 running on    8 total cores
 distrk:  each k-point on    8 cores,    1 groups
 distr:  one band on    2 cores,    4 groups
 using from now: INCAR     
 vasp.5.4.4 16052018 (build Apr 24 2014 20:13:14) complex standard
 Contain Constrained Minimization Technique (TS), Periodic NBO, VASPsol, libbeef, VASP2WANNIER90, Constrained Cell Relaxation
 POSCAR found type information on POSCAR  C  O  Pt
 POSCAR found :  3 types and      39 ions
 scaLAPACK will be used
 LDA part: xc-table for Pade appr. of Perdew
 POSCAR found type information on POSCAR  C  O  Pt
 POSCAR found :  3 types and      39 ions
 POSCAR, INCAR and KPOINTS ok, starting setup
 FFT: planning ...
 WAVECAR not read
 entering main loop
       N       E                     dE             d eps       ncg     rms          rms(c)
DAV:   1     0.242058040001E+04    0.24206E+04   -0.15953E+05  1824   0.129E+03
DAV:   2    -0.645689100194E+02   -0.24851E+04   -0.23112E+04  2128   0.286E+02
DAV:   3    -0.240329976283E+03   -0.17576E+03   -0.15955E+03  2168   0.688E+01
DAV:   4    -0.247796025743E+03   -0.74660E+01   -0.71769E+01  2312   0.135E+01
DAV:   5    -0.248014280345E+03   -0.21825E+00   -0.21642E+00  2292   0.240E+00    0.272E+01
RMM:   6    -0.247172885053E+03    0.84140E+00   -0.53441E+01  1831   0.147E+01    0.312E+01
RMM:   7    -0.247011083699E+03    0.16180E+00   -0.32142E+01  1827   0.896E+00    0.232E+01
RMM:   8    -0.243812749630E+03    0.31983E+01   -0.11118E+01  1827   0.496E+00    0.237E+01
RMM:   9    -0.231634254822E+03    0.12178E+02   -0.69063E+00  1830   0.436E+00    0.941E+00
RMM:  10    -0.230156229109E+03    0.14780E+01   -0.19754E+00  1830   0.231E+00    0.490E+00
RMM:  11    -0.229888109348E+03    0.26812E+00   -0.46624E-01  1831   0.104E+00    0.334E+00
RMM:  12    -0.229723709872E+03    0.16440E+00   -0.20804E-01  1846   0.712E-01    0.175E+00
RMM:  13    -0.229725918203E+03   -0.22083E-02   -0.10245E-01  1833   0.532E-01    0.179E+00
RMM:  14    -0.229698294590E+03    0.27624E-01   -0.90269E-02  1830   0.513E-01    0.116E+00
RMM:  15    -0.229687491163E+03    0.10803E-01   -0.35349E-02  1831   0.325E-01    0.773E-01
RMM:  16    -0.229677781907E+03    0.97093E-02   -0.84245E-03  1831   0.158E-01    0.199E-01
RMM:  17    -0.229677651394E+03    0.13051E-03   -0.16953E-03  1813   0.687E-02    0.152E-01
RMM:  18    -0.229678005505E+03   -0.35411E-03   -0.86708E-04  1770   0.491E-02    0.131E-01
RMM:  19    -0.229677933092E+03    0.72413E-04   -0.35109E-04  1234   0.334E-02
   1 F= -.22967793E+03 E0= -.22967845E+03  d E =-.229678E+03
 BRION: g(F)=  0.551E+00 g(S)=  0.000E+00
 bond charge predicted
       N       E                     dE             d eps       ncg     rms          rms(c)
DAV:   1    -0.230055630422E+03   -0.37762E+00   -0.52966E+01  1856   0.130E+01    0.103E+00
RMM:   2    -0.230199738256E+03   -0.14411E+00   -0.88166E-01  1834   0.203E+00    0.222E+00
RMM:   3    -0.230156653478E+03    0.43085E-01   -0.76962E-02  1860   0.476E-01    0.155E+00
RMM:   4    -0.230125727623E+03    0.30926E-01   -0.22257E-02  1844   0.248E-01    0.748E-01
RMM:   5    -0.230120598984E+03    0.51286E-02   -0.95441E-03  1834   0.161E-01    0.520E-01
RMM:   6    -0.230119860955E+03    0.73803E-03   -0.11429E-02  1829   0.182E-01    0.407E-01
RMM:   7    -0.230118492806E+03    0.13681E-02   -0.71421E-03  1832   0.144E-01    0.237E-01
RMM:   8    -0.230117559084E+03    0.93372E-03   -0.20004E-03  1821   0.773E-02    0.110E-01
RMM:   9    -0.230117465759E+03    0.93325E-04   -0.43508E-04  1404   0.365E-02
   2 F= -.23011747E+03 E0= -.23011600E+03  d E =-.439533E+00
 BRION: g(F)=  0.391E+00 g(S)=  0.000E+00 retain N=  1 mean eig= 1.19
 eig:   1.191
 bond charge predicted
       N       E                     dE             d eps       ncg     rms          rms(c)
DAV:   1    -0.230227498085E+03   -0.10994E+00   -0.24373E+01  1832   0.928E+00    0.787E-01
RMM:   2    -0.230308573837E+03   -0.81076E-01   -0.76950E-01  1841   0.148E+00    0.104E+00
RMM:   3    -0.230302813360E+03    0.57605E-02   -0.33607E-02  1845   0.305E-01    0.105E+00
RMM:   4    -0.230289377606E+03    0.13436E-01   -0.92895E-03  1843   0.160E-01    0.582E-01
RMM:   5    -0.230286503078E+03    0.28745E-02   -0.80622E-03  1831   0.140E-01    0.531E-01
RMM:   6    -0.230285870777E+03    0.63230E-03   -0.11249E-02  1830   0.171E-01    0.443E-01
RMM:   7    -0.230282742249E+03    0.31285E-02   -0.44796E-03  1832   0.113E-01    0.151E-01
RMM:   8    -0.230282354363E+03    0.38789E-03   -0.89934E-04  1769   0.515E-02    0.797E-02
RMM:   9    -0.230282288397E+03    0.65966E-04   -0.22406E-04  1047   0.277E-02
   3 F= -.23028229E+03 E0= -.23027973E+03  d E =-.164823E+00
 BRION: g(F)=  0.579E+00 g(S)=  0.000E+00 retain N=  2 mean eig= 0.52
 eig:   0.518  0.518
 bond charge predicted
       N       E                     dE             d eps       ncg     rms          rms(c)
DAV:   1    -0.230468661728E+03   -0.18631E+00   -0.12462E+02  1824   0.202E+01    0.166E+00
RMM:   2    -0.230686868656E+03   -0.21821E+00   -0.21395E+00  1836   0.314E+00    0.195E+00
RMM:   3    -0.230723106288E+03   -0.36238E-01   -0.17018E-01  1862   0.715E-01    0.244E+00
RMM:   4    -0.230651930488E+03    0.71176E-01   -0.40570E-02  1852   0.332E-01    0.141E+00
RMM:   5    -0.230635486535E+03    0.16444E-01   -0.27124E-02  1837   0.268E-01    0.925E-01
RMM:   6    -0.230631711008E+03    0.37755E-02   -0.27568E-02  1832   0.280E-01    0.629E-01
RMM:   7    -0.230627987688E+03    0.37233E-02   -0.16471E-02  1832   0.217E-01    0.365E-01
RMM:   8    -0.230625748214E+03    0.22395E-02   -0.46387E-03  1828   0.118E-01    0.194E-01
RMM:   9    -0.230625265021E+03    0.48319E-03   -0.11819E-03  1815   0.583E-02    0.122E-01
RMM:  10    -0.230625036969E+03    0.22805E-03   -0.35538E-04  1192   0.336E-02    0.545E-02
RMM:  11    -0.230625037493E+03   -0.52404E-06   -0.17641E-04   972   0.250E-02
   4 F= -.23062504E+03 E0= -.23061936E+03  d E =-.342749E+00
 BRION: g(F)=  0.994E-01 g(S)=  0.000E+00 retain N=  3 mean eig= 4.98
 eig:   6.907  6.907  1.125
 bond charge predicted
       N       E                     dE             d eps       ncg     rms          rms(c)
DAV:   1    -0.230662208871E+03   -0.37172E-01   -0.42031E+00  1832   0.405E+00    0.306E-01
RMM:   2    -0.230672448021E+03   -0.10239E-01   -0.10468E-01  1844   0.606E-01    0.277E-01
RMM:   3    -0.230672544314E+03   -0.96293E-04   -0.56119E-03  1851   0.133E-01    0.332E-01
RMM:   4    -0.230671791229E+03    0.75308E-03   -0.11524E-03  1822   0.566E-02    0.274E-01
RMM:   5    -0.230671018845E+03    0.77238E-03   -0.80625E-04  1706   0.467E-02    0.170E-01
RMM:   6    -0.230670966174E+03    0.52671E-04   -0.87825E-04  1759   0.504E-02    0.134E-01
RMM:   7    -0.230670805173E+03    0.16100E-03   -0.55499E-04  1549   0.406E-02    0.853E-02
RMM:   8    -0.230670716322E+03    0.88852E-04   -0.16120E-04   998   0.241E-02
   5 F= -.23067072E+03 E0= -.23066510E+03  d E =-.456788E-01
 BRION: g(F)=  0.290E-01 g(S)=  0.000E+00 retain N=  2 mean eig= 2.69
 eig:   0.763  4.617
 bond charge predicted
       N       E                     dE             d eps       ncg     rms          rms(c)
[mpiexec@node07] Sending Ctrl-C to processes as requested
[mpiexec@node07] Press Ctrl-C again to force abort
