metal                                   
           1
     7.296955   -4.212899    0.000000
     0.000000    8.425798    0.000000
     0.000000    0.000000   21.879635
   C    O    Pt
   1   2  36
Direct configuration=     1
   0.69894202  0.43878402  0.47919954
   0.90222736  0.38382909  0.46925931
   0.67080547  0.46563991  0.52908808
   0.98675500  0.32859100  0.07437600
   0.32008800  0.32859100  0.07437600
   0.65342200  0.32859100  0.07437600
   0.98675500  0.66192500  0.07437600
   0.32008800  0.66192500  0.07437600
   0.65342200  0.66192500  0.07437600
   0.32008800  0.99525800  0.07437600
   0.65342200  0.99525800  0.07437600
   0.98675500  0.99525800  0.07437600
   0.20897700  0.10636900  0.17918600
   0.54231100  0.10636900  0.17918600
   0.87564400  0.10636900  0.17918600
   0.20897700  0.43970300  0.17918600
   0.54231100  0.43970300  0.17918600
   0.87564400  0.43970300  0.17918600
   0.20897700  0.77303600  0.17918600
   0.54231100  0.77303600  0.17918600
   0.87564400  0.77303600  0.17918600
   0.09315058  0.55162207  0.28092570
   0.43540727  0.88847917  0.27814244
   0.76799572  0.22233460  0.28720442
   0.09615793  0.21773471  0.28499854
   0.43135314  0.21573651  0.27902607
   0.10240045  0.88303066  0.28599983
   0.76191118  0.87972423  0.28085286
   0.43659968  0.54615596  0.28833242
   0.76154669  0.55309491  0.28839692
   0.32690458  0.66204706  0.38847246
   0.65297242  0.98901862  0.38362878
   0.32532926  0.32839552  0.38353708
   0.99031553  0.98787636  0.38586086
   0.31817158  0.99251207  0.38558343
   0.64200274  0.32057167  0.39118267
   0.99826497  0.66331099  0.38352738
   0.99225762  0.31591713  0.39527076
   0.65608319  0.66797085  0.38541374
Direct configuration=     2
   0.69772768  0.43477083  0.47783322
   0.90347169  0.38466002  0.46886266
   0.67165504  0.46611751  0.52875120
   0.98675500  0.32859100  0.07437600
   0.32008800  0.32859100  0.07437600
   0.65342200  0.32859100  0.07437600
   0.98675500  0.66192500  0.07437600
   0.32008800  0.66192500  0.07437600
   0.65342200  0.66192500  0.07437600
   0.32008800  0.99525800  0.07437600
   0.65342200  0.99525800  0.07437600
   0.98675500  0.99525800  0.07437600
   0.20897700  0.10636900  0.17918600
   0.54231100  0.10636900  0.17918600
   0.87564400  0.10636900  0.17918600
   0.20897700  0.43970300  0.17918600
   0.54231100  0.43970300  0.17918600
   0.87564400  0.43970300  0.17918600
   0.20897700  0.77303600  0.17918600
   0.54231100  0.77303600  0.17918600
   0.87564400  0.77303600  0.17918600
   0.09477452  0.55072631  0.28121447
   0.43470109  0.88699017  0.27901101
   0.76765242  0.22225365  0.28666230
   0.09541262  0.21823167  0.28474331
   0.43213073  0.21591466  0.27969326
   0.10135583  0.88323011  0.28472073
   0.76317015  0.88123943  0.28083567
   0.43449529  0.54740399  0.28674441
   0.76250755  0.55179053  0.28707066
   0.32607671  0.66233099  0.38810338
   0.65252325  0.98923351  0.38391937
   0.32397314  0.32668504  0.38426017
   0.98965148  0.98851973  0.38624039
   0.31958420  0.99249858  0.38580966
   0.64227596  0.32271832  0.39260102
   0.99826271  0.66305025  0.38439425
   0.99219404  0.31687487  0.39574670
   0.65690266  0.66831073  0.38640218
Direct configuration=     3
   0.69617964  0.43283155  0.47844044
   0.90435412  0.38543356  0.46873963
   0.67303021  0.46552429  0.52699143
   0.98675500  0.32859100  0.07437600
   0.32008800  0.32859100  0.07437600
   0.65342200  0.32859100  0.07437600
   0.98675500  0.66192500  0.07437600
   0.32008800  0.66192500  0.07437600
   0.65342200  0.66192500  0.07437600
   0.32008800  0.99525800  0.07437600
   0.65342200  0.99525800  0.07437600
   0.98675500  0.99525800  0.07437600
   0.20897700  0.10636900  0.17918600
   0.54231100  0.10636900  0.17918600
   0.87564400  0.10636900  0.17918600
   0.20897700  0.43970300  0.17918600
   0.54231100  0.43970300  0.17918600
   0.87564400  0.43970300  0.17918600
   0.20897700  0.77303600  0.17918600
   0.54231100  0.77303600  0.17918600
   0.87564400  0.77303600  0.17918600
   0.09567268  0.55025530  0.28146375
   0.43426180  0.88615427  0.27952534
   0.76735806  0.22213481  0.28637798
   0.09504743  0.21852107  0.28464118
   0.43257261  0.21611184  0.28017428
   0.10069463  0.88322288  0.28408246
   0.76383385  0.88197044  0.28090673
   0.43353908  0.54801816  0.28594275
   0.76296953  0.55121258  0.28637167
   0.32564864  0.66242994  0.38786202
   0.65233313  0.98943453  0.38411892
   0.32322207  0.32591307  0.38460027
   0.98934409  0.98888099  0.38644647
   0.32025177  0.99244741  0.38591668
   0.64231730  0.32410705  0.39343080
   0.99817851  0.66311641  0.38481020
   0.99223080  0.31734257  0.39593223
   0.65723017  0.66828215  0.38679184
Direct configuration=     4
   0.69301458  0.42423934  0.47615365
   0.90738748  0.38776951  0.46835068
   0.67524496  0.46647523  0.52589924
   0.98675500  0.32859100  0.07437600
   0.32008800  0.32859100  0.07437600
   0.65342200  0.32859100  0.07437600
   0.98675500  0.66192500  0.07437600
   0.32008800  0.66192500  0.07437600
   0.65342200  0.66192500  0.07437600
   0.32008800  0.99525800  0.07437600
   0.65342200  0.99525800  0.07437600
   0.98675500  0.99525800  0.07437600
   0.20897700  0.10636900  0.17918600
   0.54231100  0.10636900  0.17918600
   0.87564400  0.10636900  0.17918600
   0.20897700  0.43970300  0.17918600
   0.54231100  0.43970300  0.17918600
   0.87564400  0.43970300  0.17918600
   0.20897700  0.77303600  0.17918600
   0.54231100  0.77303600  0.17918600
   0.87564400  0.77303600  0.17918600
   0.09815782  0.54893443  0.28221986
   0.43298978  0.88381747  0.28099378
   0.76642458  0.22172849  0.28558756
   0.09403863  0.21933594  0.28438221
   0.43381663  0.21670757  0.28159666
   0.09880376  0.88314951  0.28233318
   0.76566026  0.88395246  0.28115400
   0.43097345  0.54970593  0.28371234
   0.76426162  0.54963080  0.28441938
   0.32448034  0.66267273  0.38716346
   0.65186130  0.99009165  0.38471656
   0.32107138  0.32382924  0.38553208
   0.98852131  0.98991032  0.38703109
   0.32206397  0.99226629  0.38621147
   0.64246498  0.32825007  0.39584181
   0.99786385  0.66343629  0.38594143
   0.99241481  0.31864492  0.39644933
   0.65807617  0.66814039  0.38776555
Direct configuration=     5
   0.69231811  0.42256348  0.47649540
   0.90894666  0.38901169  0.46843928
   0.67587605  0.46639950  0.52549478
   0.98675500  0.32859100  0.07437600
   0.32008800  0.32859100  0.07437600
   0.65342200  0.32859100  0.07437600
   0.98675500  0.66192500  0.07437600
   0.32008800  0.66192500  0.07437600
   0.65342200  0.66192500  0.07437600
   0.32008800  0.99525800  0.07437600
   0.65342200  0.99525800  0.07437600
   0.98675500  0.99525800  0.07437600
   0.20897700  0.10636900  0.17918600
   0.54231100  0.10636900  0.17918600
   0.87564400  0.10636900  0.17918600
   0.20897700  0.43970300  0.17918600
   0.54231100  0.43970300  0.17918600
   0.87564400  0.43970300  0.17918600
   0.20897700  0.77303600  0.17918600
   0.54231100  0.77303600  0.17918600
   0.87564400  0.77303600  0.17918600
   0.09815932  0.54878673  0.28248048
   0.43277455  0.88372723  0.28119295
   0.76604073  0.22141982  0.28554094
   0.09402185  0.21939290  0.28444573
   0.43394888  0.21692210  0.28197609
   0.09858337  0.88302198  0.28230232
   0.76568214  0.88397485  0.28136614
   0.43121550  0.54974410  0.28355015
   0.76439878  0.54961574  0.28424694
   0.32447572  0.66252088  0.38703969
   0.65204562  0.99048330  0.38491308
   0.32061597  0.32379334  0.38559040
   0.98850736  0.99004255  0.38711157
   0.32203038  0.99219962  0.38625061
   0.64163648  0.32819629  0.39546224
   0.99756693  0.66393064  0.38596463
   0.99260400  0.31858981  0.39634415
   0.65795895  0.66800076  0.38754673
