       N       E                     dE             d eps       ncg     rms          rms(c)
DAV:   1     0.242342512936E+04    0.24234E+04   -0.15952E+05  1824   0.129E+03
DAV:   2    -0.641080358625E+02   -0.24875E+04   -0.23099E+04  2128   0.286E+02
DAV:   3    -0.240476124645E+03   -0.17637E+03   -0.15985E+03  2152   0.691E+01
DAV:   4    -0.248164294621E+03   -0.76882E+01   -0.74141E+01  2328   0.138E+01
DAV:   5    -0.248410380301E+03   -0.24609E+00   -0.24328E+00  2560   0.248E+00    0.273E+01
RMM:   6    -0.245105183112E+03    0.33052E+01   -0.55010E+01  1829   0.149E+01    0.291E+01
RMM:   7    -0.247300632880E+03   -0.21954E+01   -0.31650E+01  1831   0.887E+00    0.230E+01
RMM:   8    -0.243766157938E+03    0.35345E+01   -0.10775E+01  1827   0.493E+00    0.232E+01
RMM:   9    -0.231962655518E+03    0.11804E+02   -0.65129E+00  1831   0.422E+00    0.907E+00
RMM:  10    -0.230686629294E+03    0.12760E+01   -0.20025E+00  1831   0.230E+00    0.537E+00
RMM:  11    -0.230367240003E+03    0.31939E+00   -0.52369E-01  1831   0.114E+00    0.333E+00
RMM:  12    -0.230182281809E+03    0.18496E+00   -0.22589E-01  1846   0.747E-01    0.176E+00
RMM:  13    -0.230201195944E+03   -0.18914E-01   -0.13596E-01  1833   0.597E-01    0.203E+00
RMM:  14    -0.230146790535E+03    0.54405E-01   -0.76080E-02  1832   0.482E-01    0.958E-01
RMM:  15    -0.230141489613E+03    0.53009E-02   -0.31645E-02  1831   0.305E-01    0.634E-01
RMM:  16    -0.230135210983E+03    0.62786E-02   -0.76025E-03  1830   0.150E-01    0.247E-01
RMM:  17    -0.230134547612E+03    0.66337E-03   -0.15752E-03  1817   0.673E-02    0.134E-01
RMM:  18    -0.230134838683E+03   -0.29107E-03   -0.79559E-04  1772   0.475E-02    0.116E-01
RMM:  19    -0.230134938553E+03   -0.99870E-04   -0.38096E-04  1280   0.347E-02
   1 F= -.23013494E+03 E0= -.23013385E+03  d E =-.230135E+03
       N       E                     dE             d eps       ncg     rms          rms(c)
DAV:   1    -0.230340884862E+03   -0.20605E+00   -0.29875E+01  1848   0.987E+00    0.588E-01
RMM:   2    -0.230482570567E+03   -0.14169E+00   -0.47456E-01  1833   0.151E+00    0.255E+00
RMM:   3    -0.230386274581E+03    0.96296E-01   -0.41591E-02  1846   0.353E-01    0.591E-01
RMM:   4    -0.230380989626E+03    0.52850E-02   -0.87784E-03  1839   0.163E-01    0.376E-01
RMM:   5    -0.230379009792E+03    0.19798E-02   -0.23007E-03  1837   0.800E-02    0.274E-01
RMM:   6    -0.230379063804E+03   -0.54012E-04   -0.38528E-03  1828   0.103E-01    0.278E-01
RMM:   7    -0.230378511442E+03    0.55236E-03   -0.34037E-03  1829   0.989E-02    0.155E-01
RMM:   8    -0.230378204907E+03    0.30654E-03   -0.65871E-04  1692   0.448E-02    0.542E-02
RMM:   9    -0.230378244305E+03   -0.39399E-04   -0.15704E-04   985   0.228E-02
   2 F= -.23037824E+03 E0= -.23037578E+03  d E =-.243306E+00
       N       E                     dE             d eps       ncg     rms          rms(c)
DAV:   1    -0.230464357452E+03   -0.86153E-01   -0.45242E+01  1824   0.125E+01    0.765E-01
RMM:   2    -0.230616513151E+03   -0.15216E+00   -0.86360E-01  1844   0.194E+00    0.219E+00
RMM:   3    -0.230547774264E+03    0.68739E-01   -0.54614E-02  1866   0.409E-01    0.863E-01
RMM:   4    -0.230538086645E+03    0.96876E-02   -0.12381E-02  1839   0.194E-01    0.524E-01
RMM:   5    -0.230534918890E+03    0.31678E-02   -0.50512E-03  1836   0.120E-01    0.400E-01
RMM:   6    -0.230535627107E+03   -0.70822E-03   -0.10799E-02  1831   0.174E-01    0.498E-01
RMM:   7    -0.230532466770E+03    0.31603E-02   -0.52524E-03  1832   0.122E-01    0.174E-01
RMM:   8    -0.230532180587E+03    0.28618E-03   -0.11634E-03  1822   0.589E-02    0.998E-02
RMM:   9    -0.230532048771E+03    0.13182E-03   -0.25235E-04  1051   0.293E-02    0.628E-02
RMM:  10    -0.230532005299E+03    0.43472E-04   -0.11106E-04   971   0.205E-02
   3 F= -.23053201E+03 E0= -.23052813E+03  d E =-.153761E+00
       N       E                     dE             d eps       ncg     rms          rms(c)
DAV:   1    -0.230623706129E+03   -0.91657E-01   -0.16727E+01  1832   0.767E+00    0.603E-01
RMM:   2    -0.230676278296E+03   -0.52572E-01   -0.37497E-01  1835   0.122E+00    0.120E+00
RMM:   3    -0.230658236040E+03    0.18042E-01   -0.20618E-02  1862   0.252E-01    0.675E-01
RMM:   4    -0.230652675883E+03    0.55602E-02   -0.72507E-03  1845   0.146E-01    0.401E-01
RMM:   5    -0.230650761732E+03    0.19142E-02   -0.55671E-03  1833   0.125E-01    0.300E-01
RMM:   6    -0.230650680686E+03    0.81046E-04   -0.54287E-03  1830   0.125E-01    0.332E-01
RMM:   7    -0.230649162915E+03    0.15178E-02   -0.19487E-03  1823   0.742E-02    0.117E-01
RMM:   8    -0.230649044494E+03    0.11842E-03   -0.44849E-04  1395   0.373E-02    0.704E-02
RMM:   9    -0.230648991727E+03    0.52766E-04   -0.10900E-04   975   0.204E-02
   4 F= -.23064899E+03 E0= -.23064424E+03  d E =-.116986E+00
       N       E                     dE             d eps       ncg     rms          rms(c)
DAV:   1    -0.230691874385E+03   -0.42830E-01   -0.70138E+00  1824   0.519E+00    0.365E-01
RMM:   2    -0.230705028053E+03   -0.13154E-01   -0.12856E-01  1836   0.735E-01    0.339E-01
RMM:   3    -0.230707094667E+03   -0.20666E-02   -0.86170E-03  1865   0.166E-01    0.512E-01
RMM:   4    -0.230704264872E+03    0.28298E-02   -0.18402E-03  1850   0.711E-02    0.304E-01
RMM:   5    -0.230703073084E+03    0.11918E-02   -0.11482E-03  1827   0.569E-02    0.138E-01
RMM:   6    -0.230703311664E+03   -0.23858E-03   -0.12057E-03  1822   0.583E-02    0.162E-01
RMM:   7    -0.230703037641E+03    0.27402E-03   -0.76777E-04  1793   0.479E-02    0.619E-02
RMM:   8    -0.230702984690E+03    0.52950E-04   -0.10843E-04   971   0.193E-02
   5 F= -.23070298E+03 E0= -.23069823E+03  d E =-.539930E-01
       N       E                     dE             d eps       ncg     rms          rms(c)
