 vasp.5.4.4 16052018 (build Apr 24 2014 20:13:14) complex standard
 Contain Constrained Minimization Technique (TS), Periodic NBO, VASPsol, libbeef, VASP2WANNIER90, Constrained Cell Relaxation
 executed on Center for Computational Chemistry by phu@node10 date 2025.09.27 12:58:37
 running on    8 total cores
 distrk:  each k-point on    8 cores,    1 groups
 distr:  one band on NCORES_PER_BAND=   2 cores,    4 groups


--------------------------------------------------------------------------------------------------------


 INCAR:
 POTCAR:   PAW_PBE C 08Apr2002                    
 POTCAR:   PAW_PBE O 08Apr2002                    
 POTCAR:    PAW_PBE Pt 04Feb2005                  
 POTCAR:   PAW_PBE C 08Apr2002                    
   VRHFIN =C: s2p2                                                              
   LEXCH  = PE                                                                  
   EATOM  =   147.1560 eV,   10.8157 Ry                                         
                                                                                
   TITEL  = PAW_PBE C 08Apr2002                                                 
   LULTRA =        F    use ultrasoft PP ?                                      
   IUNSCR =        0    unscreen: 0-lin 1-nonlin 2-no                           
   RPACOR =     .000    partial core radius                                     
   POMASS =   12.011; ZVAL   =    4.000    mass and valenz                      
   RCORE  =    1.500    outmost cutoff radius                                   
   RWIGS  =    1.630; RWIGS  =     .863    wigner-seitz radius (au A)           
   ENMAX  =  400.000; ENMIN  =  300.000 eV                                      
   ICORE  =        2    local potential                                         
   LCOR   =        T    correct aug charges                                     
   LPAW   =        T    paw PP                                                  
   EAUG   =  644.873                                                            
   DEXC   =     .000                                                            
   RMAX   =    2.266    core radius for proj-oper                               
   RAUG   =    1.300    factor for augmentation sphere                          
   RDEP   =    1.501    radius for radial grids                                 
   RDEPT  =    1.300    core radius for aug-charge                              
   QCUT   =   -5.516; QGAM   =   11.032    optimization parameters              
                                                                                
   Description                                                                  
     l     E      TYP  RCUT    TYP  RCUT                                        
     0   .000     23  1.200                                                     
     0   .000     23  1.200                                                     
     1   .000     23  1.500                                                     
     1  2.500     23  1.500                                                     
     2   .000      7  1.500                                                     
  local pseudopotential read in
  atomic valenz-charges read in
  non local Contribution for L=           0  read in
    real space projection operators read in
  non local Contribution for L=           0  read in
    real space projection operators read in
  non local Contribution for L=           1  read in
    real space projection operators read in
  non local Contribution for L=           1  read in
    real space projection operators read in
    PAW grid and wavefunctions read in
 
   number of l-projection  operators is LMAX  =           4
   number of lm-projection operators is LMMAX =           8
 
 POTCAR:   PAW_PBE O 08Apr2002                    
   VRHFIN =O: s2p4                                                              
   LEXCH  = PE                                                                  
   EATOM  =   432.3788 eV,   31.7789 Ry                                         
                                                                                
   TITEL  = PAW_PBE O 08Apr2002                                                 
   LULTRA =        F    use ultrasoft PP ?                                      
   IUNSCR =        0    unscreen: 0-lin 1-nonlin 2-no                           
   RPACOR =     .000    partial core radius                                     
   POMASS =   16.000; ZVAL   =    6.000    mass and valenz                      
   RCORE  =    1.520    outmost cutoff radius                                   
   RWIGS  =    1.550; RWIGS  =     .820    wigner-seitz radius (au A)           
   ENMAX  =  400.000; ENMIN  =  300.000 eV                                      
   ICORE  =        2    local potential                                         
   LCOR   =        T    correct aug charges                                     
   LPAW   =        T    paw PP                                                  
   EAUG   =  605.392                                                            
   DEXC   =     .000                                                            
   RMAX   =    2.264    core radius for proj-oper                               
   RAUG   =    1.300    factor for augmentation sphere                          
   RDEP   =    1.550    radius for radial grids                                 
   QCUT   =   -5.520; QGAM   =   11.041    optimization parameters              
                                                                                
   Description                                                                  
     l     E      TYP  RCUT    TYP  RCUT                                        
     0   .000     23  1.200                                                     
     0  -.700     23  1.200                                                     
     1   .000     23  1.520                                                     
     1   .600     23  1.520                                                     
     2   .000      7  1.500                                                     
  local pseudopotential read in
  atomic valenz-charges read in
  non local Contribution for L=           0  read in
    real space projection operators read in
  non local Contribution for L=           0  read in
    real space projection operators read in
  non local Contribution for L=           1  read in
    real space projection operators read in
  non local Contribution for L=           1  read in
    real space projection operators read in
    PAW grid and wavefunctions read in
 
   number of l-projection  operators is LMAX  =           4
   number of lm-projection operators is LMMAX =           8
 
 POTCAR:    PAW_PBE Pt 04Feb2005                  
   VRHFIN =Pt: s1d9                                                             
   LEXCH  = PE                                                                  
   EATOM  =   729.1182 eV,   53.5887 Ry                                         
                                                                                
   TITEL  = PAW_PBE Pt 04Feb2005                                                
   LULTRA =        F    use ultrasoft PP ?                                      
   IUNSCR =        1    unscreen: 0-lin 1-nonlin 2-no                           
   RPACOR =    2.330    partial core radius                                     
   POMASS =  195.080; ZVAL   =   10.000    mass and valenz                      
   RCORE  =    2.600    outmost cutoff radius                                   
   RWIGS  =    2.750; RWIGS  =    1.455    wigner-seitz radius (au A)           
   ENMAX  =  230.283; ENMIN  =  172.712 eV                                      
   ICORE  =        3    local potential                                         
   LCOR   =        T    correct aug charges                                     
   LPAW   =        T    paw PP                                                  
   EAUG   =  358.966                                                            
   DEXC   =     .000                                                            
   RMAX   =    3.038    core radius for proj-oper                               
   RAUG   =    1.300    factor for augmentation sphere                          
   RDEP   =    2.761    radius for radial grids                                 
   QCUT   =   -4.114; QGAM   =    8.228    optimization parameters              
                                                                                
   Description                                                                  
     l     E      TYP  RCUT    TYP  RCUT                                        
     2   .000     23  2.500                                                     
     2   .000     23  2.500                                                     
     0   .000     23  2.500                                                     
     0   .000     23  2.500                                                     
     1  -.200     23  2.600                                                     
     1  1.500     23  2.600                                                     
     3   .000     23  2.500                                                     
  local pseudopotential read in
  partial core-charges read in
  atomic valenz-charges read in
  non local Contribution for L=           2  read in
    real space projection operators read in
  non local Contribution for L=           2  read in
    real space projection operators read in
  non local Contribution for L=           0  read in
    real space projection operators read in
  non local Contribution for L=           0  read in
    real space projection operators read in
  non local Contribution for L=           1  read in
    real space projection operators read in
  non local Contribution for L=           1  read in
    real space projection operators read in
    PAW grid and wavefunctions read in
 
   number of l-projection  operators is LMAX  =           6
   number of lm-projection operators is LMMAX =          18
 
 Optimization of the real space projectors (new method)

 maximal supplied QI-value         = 25.13
 optimisation between [QCUT,QGAM] = [ 10.81, 21.61] = [ 32.71,130.83] Ry 
 Optimized for a Real-space Cutoff    1.23 Angstroem

   l    n(q)    QCUT    max X(q) W(low)/X(q) W(high)/X(q)  e(spline) 
   0      8    10.807     5.582    0.53E-04    0.84E-04    0.44E-07
   0      8    10.807    69.432    0.35E-03    0.71E-03    0.24E-06
   1      7    10.807     2.780    0.44E-04    0.88E-04    0.89E-07
   1      7    10.807     4.549    0.14E-03    0.28E-03    0.13E-06
 Optimization of the real space projectors (new method)

 maximal supplied QI-value         = 24.76
 optimisation between [QCUT,QGAM] = [ 10.64, 21.54] = [ 31.73,129.89] Ry 
 Optimized for a Real-space Cutoff    1.23 Angstroem

   l    n(q)    QCUT    max X(q) W(low)/X(q) W(high)/X(q)  e(spline) 
   0      8    10.645     4.192    0.69E-04    0.93E-04    0.58E-07
   0      8    10.645     8.473    0.40E-03    0.65E-03    0.17E-06
   1      7    10.645     2.474    0.80E-04    0.12E-03    0.30E-07
   1      7    10.645     3.912    0.24E-03    0.53E-03    0.16E-06
 Optimization of the real space projectors (new method)

 maximal supplied QI-value         = 14.36
 optimisation between [QCUT,QGAM] = [ 10.77, 21.69] = [ 32.49,131.70] Ry 
 Optimized for a Real-space Cutoff    1.46 Angstroem

   l    n(q)    QCUT    max X(q) W(low)/X(q) W(high)/X(q)  e(spline) 
   2      9    10.771     3.903    0.38E-04    0.12E-03    0.82E-07
   2      9    10.771    18.372    0.13E-03    0.32E-03    0.28E-06
   0     10    10.771    13.697    0.11E-04    0.86E-05    0.85E-08
   0     10    10.771    65.529    0.40E-04    0.12E-03    0.14E-06
   1      9    10.771     7.604    0.48E-04    0.31E-04    0.38E-07
   1      9    10.771    12.136    0.35E-03    0.16E-03    0.23E-06
 PAW_PBE C 08Apr2002                    :
 energy of atom  1       EATOM= -147.1560
 kinetic energy error for atom=    0.0116 (will be added to EATOM!!)
 PAW_PBE O 08Apr2002                    :
 energy of atom  2       EATOM= -432.3788
 kinetic energy error for atom=    0.0389 (will be added to EATOM!!)
  PAW_PBE Pt 04Feb2005                  :
 energy of atom  3       EATOM= -729.1182
 kinetic energy error for atom=    0.0051 (will be added to EATOM!!)
 
 
 POSCAR: C    O    Pt                            
  positions in direct lattice
  No initial velocities read in
 exchange correlation table for  LEXCH =        8
   RHO(1)=    0.500       N(1)  =     2000
   RHO(2)=  100.500       N(2)  =     4000

 VTST: version 3.2, (02/03/18)

 CHAIN: initializing optimizer
 
 OPT: Using VASP QUASI-newton optimizer
 CHAIN: Read ICHAIN            0
 
 POSCAR: C    O    Pt                            
  positions in direct lattice
  No initial velocities read in
 


--------------------------------------------------------------------------------------------------------


 ion  position               nearest neighbor table
   1  0.702  0.435  0.473-   3 1.16  36 1.90   2 1.94
   2  0.903  0.387  0.465-  38 1.91   1 1.94  36 2.52
   3  0.674  0.462  0.522-   1 1.16
   4  0.987  0.329  0.074-  15 2.81  16 2.81  12 2.81   5 2.81  11 2.81   6 2.81  18 2.81   8 2.81
                             7 2.81
   5  0.320  0.329  0.074-  13 2.81  10 2.81   4 2.81  12 2.81  16 2.81  17 2.81   8 2.81   9 2.81
                             6 2.81
   6  0.653  0.329  0.074-  14 2.81  18 2.81  11 2.81   4 2.81  17 2.81   7 2.81  10 2.81   9 2.81
                             5 2.81
   7  0.987  0.662  0.074-  18 2.81  21 2.81  19 2.81  12 2.81   8 2.81  10 2.81   9 2.81   6 2.81
                             4 2.81
   8  0.320  0.662  0.074-  16 2.81  19 2.81  10 2.81   7 2.81  20 2.81   4 2.81  11 2.81   5 2.81
                             9 2.81
   9  0.653  0.662  0.074-  17 2.81  20 2.81  21 2.81  11 2.81  12 2.81   7 2.81   6 2.81   5 2.81
                             8 2.81
  10  0.320  0.995  0.074-  13 2.81  19 2.81   5 2.81   8 2.81  12 2.81   7 2.81  14 2.81   6 2.81
                            11 2.81
  11  0.653  0.995  0.074-  14 2.81  20 2.81  15 2.81   9 2.81   6 2.81  12 2.81   4 2.81   8 2.81
                            10 2.81
  12  0.987  0.995  0.074-  15 2.81  21 2.81  13 2.81   7 2.81   4 2.81  10 2.81   5 2.81  11 2.81
                             9 2.81
  13  0.209  0.106  0.179-  27 2.73  26 2.79  25 2.80  10 2.81   5 2.81  12 2.81  19 2.81  15 2.81
                            21 2.81  16 2.81  17 2.81  14 2.81
  14  0.542  0.106  0.179-   6 2.81  11 2.81  20 2.81  15 2.81  10 2.81  18 2.81  19 2.81  17 2.81
                            13 2.81  26 2.81  23 2.85  24 2.87
  15  0.876  0.106  0.179-   4 2.81  12 2.81  11 2.81  21 2.81  13 2.81  20 2.81  14 2.81  16 2.81
                            18 2.81  25 2.82  24 2.87  28 2.91
  16  0.209  0.440  0.179-  22 2.78  25 2.81   8 2.81   4 2.81  19 2.81  18 2.81   5 2.81  15 2.81
                            20 2.81  13 2.81  17 2.81  29 2.88
  17  0.542  0.440  0.179-  26 2.78   9 2.81  20 2.81  21 2.81  18 2.81   6 2.81   5 2.81  14 2.81
                            13 2.81  16 2.81  30 2.82  29 2.85
  18  0.876  0.440  0.179-  22 2.80   7 2.81   6 2.81  21 2.81  16 2.81  19 2.81  17 2.81   4 2.81
                            14 2.81  15 2.81  30 2.81  24 2.86
  19  0.209  0.773  0.179-  27 2.68  22 2.78   8 2.81  10 2.81   7 2.81  16 2.81  13 2.81  18 2.81
                            21 2.81  14 2.81  20 2.81  23 2.87
  20  0.542  0.773  0.179-   9 2.81  11 2.81  17 2.81  14 2.81  15 2.81  21 2.81   8 2.81  16 2.81
                            19 2.81  23 2.86  29 2.89  28 2.90
  21  0.876  0.773  0.179-  27 2.72  12 2.81   7 2.81   9 2.81  18 2.81  15 2.81  19 2.81  13 2.81
                            17 2.81  20 2.81  30 2.83  28 2.84
  22  0.102  0.553  0.283-  37 2.74  27 2.76  16 2.78  19 2.78  18 2.80  23 2.80  31 2.80  29 2.82
                            25 2.82  30 2.82  24 2.82  38 2.98
  23  0.433  0.886  0.287-  31 2.70  35 2.71  27 2.78  32 2.79  22 2.80  24 2.80  26 2.84  29 2.85
                            14 2.85  20 2.86  28 2.86  19 2.87
  24  0.766  0.219  0.287-  30 2.78  32 2.80  23 2.80  22 2.82  25 2.83  26 2.83  18 2.86  15 2.87
                            14 2.87  36 2.88  28 2.89  38 2.91
  25  0.100  0.217  0.284-  33 2.74  26 2.77  13 2.80  29 2.80  16 2.81  15 2.82  22 2.82  24 2.83
                            28 2.83  27 2.85  34 2.85  38 2.88
  26  0.431  0.221  0.283-  33 2.72  29 2.74  25 2.77  17 2.78  30 2.79  13 2.79  14 2.81  27 2.83
                            24 2.83  23 2.84  35 2.88  36 2.88
  27  0.101  0.880  0.278-  19 2.68  21 2.72  13 2.73  37 2.74  22 2.76  23 2.78  28 2.79  30 2.82
                            26 2.83  25 2.85  35 2.91  34 2.95
  28  0.769  0.878  0.288-  39 2.69  34 2.73  30 2.76  27 2.79  29 2.81  32 2.81  25 2.83  21 2.84
                            23 2.86  24 2.89  20 2.90  15 2.91
  29  0.433  0.547  0.287-  33 2.69  39 2.71  31 2.71  26 2.74  30 2.79  25 2.80  28 2.81  22 2.82
                            17 2.85  23 2.85  16 2.88  20 2.89
  30  0.764  0.548  0.285-  37 2.73  28 2.76  24 2.78  26 2.79  29 2.79  39 2.79  18 2.81  27 2.82
                            17 2.82  22 2.82  21 2.83  36 2.91
  31  0.328  0.666  0.386-  23 2.70  29 2.71  35 2.73  39 2.75  32 2.77  22 2.80  37 2.83  38 2.84
                            33 2.85
  32  0.655  0.994  0.391-  31 2.77  35 2.77  39 2.79  23 2.79  24 2.80  34 2.80  28 2.81  36 2.83
                            38 2.84
  33  0.321  0.324  0.385-  29 2.69  36 2.70  26 2.72  38 2.74  25 2.74  39 2.82  34 2.82  35 2.84
                            31 2.85
  34  0.985  0.990  0.390-  37 2.73  28 2.73  38 2.77  39 2.78  32 2.80  33 2.82  25 2.85  35 2.85
                            27 2.95
  35  0.323  0.987  0.389-  37 2.71  23 2.71  31 2.73  36 2.76  32 2.77  33 2.84  34 2.85  26 2.88
                            27 2.91
  36  0.641  0.323  0.394-   1 1.90   2 2.52  33 2.70  35 2.76  39 2.82  32 2.83  24 2.88  26 2.88
                            30 2.91  37 2.98  38 3.00
  37  0.995  0.672  0.382-  35 2.71  30 2.73  34 2.73  22 2.74  27 2.74  31 2.83  39 2.85  38 2.95
                            36 2.98
  38  0.997  0.324  0.395-   2 1.91  33 2.74  34 2.77  32 2.84  31 2.84  25 2.88  24 2.91  37 2.95
                            22 2.98  36 3.00
  39  0.652  0.662  0.387-  28 2.69  29 2.71  31 2.75  34 2.78  32 2.79  30 2.79  36 2.82  33 2.82
                            37 2.85
 

IMPORTANT INFORMATION: All symmetrisations will be switched off!
NOSYMM: (Re-)initialisation of all symmetry stuff for point group C_1.

 
 
 KPOINTS: mesh auto                               

Automatic generation of k-mesh.
Space group operators:
 irot       det(A)        alpha          n_x          n_y          n_z        tau_x        tau_y        tau_z
    1     1.000000     0.000000     1.000000     0.000000     0.000000     0.000000     0.000000     0.000000
 
 Subroutine IBZKPT returns following result:
 ===========================================
 
 Found      4 irreducible k-points:
 
 Following reciprocal coordinates:
            Coordinates               Weight
  0.000000  0.000000  0.000000      1.000000
  0.500000  0.000000  0.000000      1.000000
 -0.000000  0.500000  0.000000      1.000000
  0.500000  0.500000  0.000000      1.000000
 
 Following cartesian coordinates:
            Coordinates               Weight
  0.000000  0.000000  0.000000      1.000000
  0.068522  0.000000  0.000000      1.000000
  0.034261  0.059342  0.000000      1.000000
  0.102783  0.059342  0.000000      1.000000
 


--------------------------------------------------------------------------------------------------------




 Dimension of arrays:
   k-points           NKPTS =      4   k-points in BZ     NKDIM =      4   number of bands    NBANDS=    228
   number of dos      NEDOS =    301   number of ions     NIONS =     39
   non local maximal  LDIM  =      6   non local SUM 2l+1 LMDIM =     18
   total plane-waves  NPLWV = 276480
   max r-space proj   IRMAX =   2756   max aug-charges    IRDMAX=  12646
   dimension x,y,z NGX =    48 NGY =   48 NGZ =  120
   dimension x,y,z NGXF=    96 NGYF=   96 NGZF=  240
   support grid    NGXF=    96 NGYF=   96 NGZF=  240
   ions per type =               1   2  36
   NGX,Y,Z   is equivalent  to a cutoff of   9.47,  9.47,  9.12 a.u.
   NGXF,Y,Z  is equivalent  to a cutoff of  18.94, 18.94, 18.24 a.u.

 SYSTEM =  metal                                   
 POSCAR =  C    O    Pt                            

 Startparameter for this run:
   NWRITE =      2    write-flag & timer
   PREC   = normal    normal or accurate (medium, high low for compatibility)
   ISTART =      0    job   : 0-new  1-cont  2-samecut
   ICHARG =      2    charge: 1-file 2-atom 10-const
   ISPIN  =      1    spin polarized calculation?
   LNONCOLLINEAR =      F non collinear calculations
   LSORBIT =      F    spin-orbit coupling
   INIWAV =      1    electr: 0-lowe 1-rand  2-diag
   LASPH  =      F    aspherical Exc in radial PAW
   METAGGA=      F    non-selfconsistent MetaGGA calc.

 Electronic Relaxation 1
   ENCUT  =  450.0 eV  33.07 Ry    5.75 a.u.  14.57 14.57 37.84*2*pi/ulx,y,z
   ENINI  =  450.0     initial cutoff
   ENAUG  =  644.9 eV  augmentation charge cutoff
   NELM   =     60;   NELMIN=  8; NELMDL= -5     # of ELM steps 
   EDIFF  = 0.1E-03   stopping-criterion for ELM
   LREAL  =      T    real-space projection
   NLSPLINE    = F    spline interpolate recip. space projectors
   LCOMPAT=      F    compatible to vasp.4.4
   GGA_COMPAT  = T    GGA compatible to vasp.4.4-vasp.4.6
   LMAXPAW     = -100 max onsite density
   LMAXMIX     =    2 max onsite mixed and CHGCAR
   VOSKOWN=      0    Vosko Wilk Nusair interpolation
   ROPT   =   -0.00050  -0.00050  -0.00050
 Ionic relaxation
   EDIFFG = -.5E-01   stopping-criterion for IOM
   NSW    =   5000    number of steps for IOM
   NBLOCK =      1;   KBLOCK =   5000    inner block; outer block 
   IBRION =      1    ionic relax: 0-MD 1-quasi-New 2-CG
   NFREE  =      0    steps in history (QN), initial steepest desc. (CG)
   ISIF   =      2    stress and relaxation
   IWAVPR =     11    prediction:  0-non 1-charg 2-wave 3-comb
   ISYM   =      0    0-nonsym 1-usesym 2-fastsym
   LCORR  =      T    Harris-Foulkes like correction to forces

   POTIM  = 0.2000    time-step for ionic-motion
   TEIN   =    0.0    initial temperature
   TEBEG  =    0.0;   TEEND  =   0.0 temperature during run
   SMASS  =  -3.00    Nose mass-parameter (am)
   estimated Nose-frequenzy (Omega)   =  0.10E-29 period in steps =****** mass=  -0.162E-26a.u.
   SCALEE = 1.0000    scale energy and forces
   NPACO  =    256;   APACO  = 16.0  distance and # of slots for P.C.
   PSTRESS=    0.0 pullay stress

  Mass of Ions in am
   POMASS =  12.01 16.00195.08
  Ionic Valenz
   ZVAL   =   4.00  6.00 10.00
  Atomic Wigner-Seitz radii
   RWIGS  =  -1.00 -1.00 -1.00
  virtual crystal weights 
   VCA    =   1.00  1.00  1.00
   NELECT =     376.0000    total number of electrons
   NUPDOWN=      -1.0000    fix difference up-down

 DOS related values:
   EMIN   =  10.00;   EMAX   =-10.00  energy-range for DOS
   EFERMI =   0.00
   ISMEAR =     1;   SIGMA  =   0.20  broadening in eV -4-tet -1-fermi 0-gaus

 Electronic relaxation 2 (details)
   IALGO  =     68    algorithm
   LDIAG  =      T    sub-space diagonalisation (order eigenvalues)
   LSUBROT=      F    optimize rotation matrix (better conditioning)
   TURBO    =      0    0=normal 1=particle mesh
   IRESTART =      0    0=no restart 2=restart with 2 vectors
   NREBOOT  =      0    no. of reboots
   NMIN     =      0    reboot dimension
   EREF     =   0.00    reference energy to select bands
   IMIX   =      4    mixing-type and parameters
     AMIX     =   0.40;   BMIX     =  1.00
     AMIX_MAG =   1.60;   BMIX_MAG =  1.00
     AMIN     =   0.10
     WC   =   100.;   INIMIX=   1;  MIXPRE=   1;  MAXMIX= -45

 Intra band minimization:
   WEIMIN = 0.0010     energy-eigenvalue tresh-hold
   EBREAK =  0.11E-06  absolut break condition
   DEPER  =   0.30     relativ break condition  

   TIME   =   0.40     timestep for ELM

  volume/ion in A,a.u.               =      34.49       232.77
  Fermi-wavevector in a.u.,A,eV,Ry     =   1.070385  2.022734 15.588510  1.145723
  Thomas-Fermi vector in A             =   2.206093
 
 Write flags
   LWAVE        =      F    write WAVECAR
   LDOWNSAMPLE  =      F    k-point downsampling of WAVECAR
   LCHARG       =      F    write CHGCAR
   LVTOT        =      F    write LOCPOT, total local potential
   LVHAR        =      F    write LOCPOT, Hartree potential only
   LELF         =      F    write electronic localiz. function (ELF)
   LORBIT       =      0    0 simple, 1 ext, 2 COOP (PROOUT), +10 PAW based schemes


 Dipole corrections
   LMONO  =      F    monopole corrections only (constant potential shift)
   LDIPOL =      F    correct potential (dipole corrections)
   IDIPOL =      0    1-x, 2-y, 3-z, 4-all directions 
   EPSILON=  1.0000000 bulk dielectric constant

 Exchange correlation treatment:
   GGA     =    --    GGA type
   LEXCH   =     8    internal setting for exchange type
   VOSKOWN=      0    Vosko Wilk Nusair interpolation
   LHFCALC =     F    Hartree Fock is set to
   LHFONE  =     F    Hartree Fock one center treatment
   AEXX    =    0.0000 exact exchange contribution

 Linear response parameters
   LEPSILON=     F    determine dielectric tensor
   LRPA    =     F    only Hartree local field effects (RPA)
   LNABLA  =     F    use nabla operator in PAW spheres
   LVEL    =     F    velocity operator in full k-point grid
   LINTERFAST=   F  fast interpolation
   KINTER  =     0    interpolate to denser k-point grid
   CSHIFT  =0.1000    complex shift for real part using Kramers Kronig
   OMEGAMAX=  -1.0    maximum frequency
   DEG_THRESHOLD= 0.2000000E-02 threshold for treating states as degnerate
   RTIME   =   -0.100 relaxation time in fs
  (WPLASMAI=    0.000 imaginary part of plasma frequency in eV, 0.658/RTIME)
   DFIELD  = 0.0000000 0.0000000 0.0000000 field for delta impulse in time
 
 Orbital magnetization related:
   ORBITALMAG=     F  switch on orbital magnetization
   LCHIMAG   =     F  perturbation theory with respect to B field
   DQ        =  0.001000  dq finite difference perturbation B field
   LLRAUG    =     F  two centre corrections for induced B field



--------------------------------------------------------------------------------------------------------


 quasi-Newton-method for relaxation of ions
   using selective dynamics as specified on POSCAR
 charge density and potential will be updated during run
 non-spin polarized calculation
 RMM-DIIS sequential band-by-band and
  variant of blocked Davidson during initial phase
 perform sub-space diagonalisation
    before iterative eigenvector-optimisation
 modified Broyden-mixing scheme, WC =      100.0
 initial mixing is a Kerker type mixing with AMIX =  0.4000 and BMIX =      1.0000
 Hartree-type preconditioning will be used
 using additional bands           40
 real space projection scheme for non local part
 use partial core corrections
 calculate Harris-corrections to forces 
   (improved forces if not selfconsistent)
 use gradient corrections 
 use of overlap-Matrix (Vanderbilt PP)
 Methfessel and Paxton  Order N= 1 SIGMA  =   0.20


--------------------------------------------------------------------------------------------------------


  energy-cutoff  :      450.00
  volume of cell :     1345.22
      direct lattice vectors                 reciprocal lattice vectors
     7.296955120 -4.212899000  0.000000000     0.137043463  0.000000000  0.000000000
     0.000000000  8.425798000  0.000000000     0.068521732  0.118683121  0.000000000
     0.000000000  0.000000000 21.879635000     0.000000000  0.000000000  0.045704602

  length of vectors
     8.425798004  8.425798000 21.879635000     0.137043463  0.137043463  0.045704602


 
 k-points in units of 2pi/SCALE and weight: mesh auto                               
   0.00000000  0.00000000  0.00000000       0.250
   0.06852173  0.00000000  0.00000000       0.250
   0.03426087  0.05934156  0.00000000       0.250
   0.10278260  0.05934156  0.00000000       0.250
 
 k-points in reciprocal lattice and weights: mesh auto                               
   0.00000000  0.00000000  0.00000000       0.250
   0.50000000  0.00000000  0.00000000       0.250
  -0.00000000  0.50000000  0.00000000       0.250
   0.50000000  0.50000000  0.00000000       0.250
 
 position of ions in fractional coordinates (direct lattice) 
   0.70215071  0.43524172  0.47260514
   0.90340279  0.38708019  0.46513041
   0.67401416  0.46209760  0.52249367
   0.98675500  0.32859100  0.07437600
   0.32008800  0.32859100  0.07437600
   0.65342200  0.32859100  0.07437600
   0.98675500  0.66192500  0.07437600
   0.32008800  0.66192500  0.07437600
   0.65342200  0.66192500  0.07437600
   0.32008800  0.99525800  0.07437600
   0.65342200  0.99525800  0.07437600
   0.98675500  0.99525800  0.07437600
   0.20897700  0.10636900  0.17918600
   0.54231100  0.10636900  0.17918600
   0.87564400  0.10636900  0.17918600
   0.20897700  0.43970300  0.17918600
   0.54231100  0.43970300  0.17918600
   0.87564400  0.43970300  0.17918600
   0.20897700  0.77303600  0.17918600
   0.54231100  0.77303600  0.17918600
   0.87564400  0.77303600  0.17918600
   0.10174505  0.55269776  0.28259416
   0.43333207  0.88589002  0.28686716
   0.76560915  0.21906254  0.28737503
   0.10000088  0.21716044  0.28390653
   0.43064429  0.22113350  0.28314792
   0.10062058  0.87982400  0.27827277
   0.76896950  0.87772006  0.28798747
   0.43342442  0.54739821  0.28745211
   0.76448381  0.54824495  0.28458600
   0.32777012  0.66563230  0.38625815
   0.65518281  0.99422965  0.39086779
   0.32147595  0.32373916  0.38527300
   0.98548025  0.99002514  0.38996470
   0.32270683  0.98685685  0.38885120
   0.64098703  0.32270989  0.39446727
   0.99549278  0.67172654  0.38247370
   0.99736407  0.32435193  0.39534647
   0.65233665  0.66230367  0.38748244
 
 position of ions in cartesian coordinates  (Angst):
   5.12356219  0.70916882 10.34042788
   6.59208960 -0.54448517 10.17688351
   4.91825108  1.05398748 11.43197075
   7.20030695 -1.38845776  1.62731973
   2.33566777  1.42014298  1.62731973
   4.76799101  0.01584050  1.62731973
   7.20030695  1.42014719  1.62731973
   2.33566777  4.22874793  1.62731973
   4.76799101  2.82444545  1.62731973
   2.33566777  7.03734445  1.62731973
   4.76799101  5.63304198  1.62731973
   7.20030695  4.22874371  1.62731973
   1.52489579  0.01584471  3.92052428
   3.95721903 -1.38845776  3.92052428
   6.38953497 -2.79275602  3.92052428
   1.52489579  2.82444966  3.92052428
   3.95721903  1.42014719  3.92052428
   6.38953497  0.01584893  3.92052428
   1.52489579  5.63304619  3.92052428
   3.95721903  4.22874371  3.92052428
   6.38953497  2.82444545  3.92052428
   0.74242907  4.22827805  6.18305707
   3.16200468  5.63874614  6.27654869
   5.58661557 -1.37965730  6.28766066
   0.72970194  1.40845636  6.21177126
   3.14239204  0.04896532  6.19517317
   0.73422387  6.98931492  6.08850674
   5.61113590  4.15590114  6.30106074
   3.16267851  2.78629343  6.28934733
   5.57840409  1.39870810  6.22663772
   2.39172385  4.22762093  8.45118730
   4.78083953  5.61695923  8.55204461
   2.34579561  1.37341502  8.42963258
   7.19100515  4.19002308  8.53228538
   2.35477726  6.95552515  8.50792238
   4.67725362  0.01867473  8.63079995
   7.26406616  1.46592163  8.36838491
   7.27772087 -1.46887025  8.65003642
   4.76007123  2.83220853  8.47797444
 


--------------------------------------------------------------------------------------------------------


 k-point  1 :   0.0000 0.0000 0.0000  plane waves:   29241
 k-point  2 :   0.5000 0.0000 0.0000  plane waves:   29108
 k-point  3 :  -0.0000 0.5000 0.0000  plane waves:   29108
 k-point  4 :   0.5000 0.5000 0.0000  plane waves:   29108

 maximum and minimum number of plane-waves per node :     14624    14548

 maximum number of plane-waves:     29241
 maximum index in each direction: 
   IXMAX=   14   IYMAX=   14   IZMAX=   37
   IXMIN=  -15   IYMIN=  -15   IZMIN=  -37


 real space projection operators:
  total allocation   :      13566.25 KBytes
  max/ min on nodes  :       6792.22       6774.03


 parallel 3D FFT for wavefunctions:
    minimum data exchange during FFTs selected (reduces bandwidth)
 parallel 3D FFT for charge:
    minimum data exchange during FFTs selected (reduces bandwidth)


 total amount of memory used by VASP MPI-rank0   131967. kBytes
=======================================================================

   base      :      30000. kBytes
   nonlr-proj:      10159. kBytes
   fftplans  :      13556. kBytes
   grid      :      23353. kBytes
   one-center:        311. kBytes
   wavefun   :      54588. kBytes
 
     INWAV:  cpu time    0.0001: real time    0.0000
 Broyden mixing: mesh for mixing (old mesh)
   NGX = 29   NGY = 29   NGZ = 75
  (NGX  = 96   NGY  = 96   NGZ  =240)
  gives a total of  63075 points

 initial charge density was supplied:
 charge density of overlapping atoms calculated
 number of electron     376.0000000 magnetization 
 keeping initial charge density in first step


--------------------------------------------------------------------------------------------------------


 Maximum index for non-local projection operator         1322
 Maximum index for augmentation-charges         1558 (set IRDMAX)


--------------------------------------------------------------------------------------------------------


 First call to EWALD:  gamma=   0.161
 Maximum number of real-space cells 4x 4x 2
 Maximum number of reciprocal cells 2x 2x 5

    FEWALD:  cpu time    0.0030: real time    0.0031


--------------------------------------- Iteration      1(   1)  ---------------------------------------


    POTLOK:  cpu time    0.2113: real time    0.4144
    SETDIJ:  cpu time    0.0115: real time    0.0120
     EDDAV:  cpu time   14.9583: real time   15.2110
       DOS:  cpu time    0.0011: real time    0.0011
    --------------------------------------------
      LOOP:  cpu time   15.1823: real time   15.6385

 eigenvalue-minimisations  :  1824
 total energy-change (2. order) : 0.2423425E+04  (-0.1595248E+05)
 number of electron     376.0000000 magnetization 
 augmentation part      376.0000000 magnetization 

 Free energy of the ion-electron system (eV)
  ---------------------------------------------------
  alpha Z        PSCENC =       975.10247152
  Ewald energy   TEWEN  =     91145.28748906
  -Hartree energ DENC   =   -120232.96903902
  -exchange      EXHF   =         0.00000000
  -V(xc)+E(xc)   XCENC  =       189.81521639
  PAW double counting   =     24789.08602224   -23775.73976456
  entropy T*S    EENTRO =         0.01326567
  eigenvalues    EBANDS =      2072.93530721
  atomic energy  EATOM  =     27259.89416086
  Solvation  Ediel_sol  =         0.00000000
  ---------------------------------------------------
  free energy    TOTEN  =      2423.42512936 eV

  energy without entropy =     2423.41186369  energy(sigma->0) =     2423.42070747


--------------------------------------------------------------------------------------------------------




--------------------------------------- Iteration      1(   2)  ---------------------------------------


     EDDAV:  cpu time   15.3948: real time   15.6018
       DOS:  cpu time    0.0011: real time    0.0011
    --------------------------------------------
      LOOP:  cpu time   15.3960: real time   15.6029

 eigenvalue-minimisations  :  2128
 total energy-change (2. order) :-0.2487533E+04  (-0.2309945E+04)
 number of electron     376.0000000 magnetization 
 augmentation part      376.0000000 magnetization 

 Free energy of the ion-electron system (eV)
  ---------------------------------------------------
  alpha Z        PSCENC =       975.10247152
  Ewald energy   TEWEN  =     91145.28748906
  -Hartree energ DENC   =   -120232.96903902
  -exchange      EXHF   =         0.00000000
  -V(xc)+E(xc)   XCENC  =       189.81521639
  PAW double counting   =     24789.08602224   -23775.73976456
  entropy T*S    EENTRO =        -0.01851460
  eigenvalues    EBANDS =      -414.56607775
  atomic energy  EATOM  =     27259.89416086
  Solvation  Ediel_sol  =         0.00000000
  ---------------------------------------------------
  free energy    TOTEN  =       -64.10803586 eV

  energy without entropy =      -64.08952126  energy(sigma->0) =      -64.10186433


--------------------------------------------------------------------------------------------------------




--------------------------------------- Iteration      1(   3)  ---------------------------------------


     EDDAV:  cpu time   16.6179: real time   16.7436
       DOS:  cpu time    0.0011: real time    0.0011
    --------------------------------------------
      LOOP:  cpu time   16.6190: real time   16.7447

 eigenvalue-minimisations  :  2152
 total energy-change (2. order) :-0.1763681E+03  (-0.1598536E+03)
 number of electron     376.0000000 magnetization 
 augmentation part      376.0000000 magnetization 

 Free energy of the ion-electron system (eV)
  ---------------------------------------------------
  alpha Z        PSCENC =       975.10247152
  Ewald energy   TEWEN  =     91145.28748906
  -Hartree energ DENC   =   -120232.96903902
  -exchange      EXHF   =         0.00000000
  -V(xc)+E(xc)   XCENC  =       189.81521639
  PAW double counting   =     24789.08602224   -23775.73976456
  entropy T*S    EENTRO =        -0.01209318
  eigenvalues    EBANDS =      -590.94058795
  atomic energy  EATOM  =     27259.89416086
  Solvation  Ediel_sol  =         0.00000000
  ---------------------------------------------------
  free energy    TOTEN  =      -240.47612465 eV

  energy without entropy =     -240.46403146  energy(sigma->0) =     -240.47209358


--------------------------------------------------------------------------------------------------------




--------------------------------------- Iteration      1(   4)  ---------------------------------------


     EDDAV:  cpu time   17.3202: real time   17.4494
       DOS:  cpu time    0.0013: real time    0.0013
    --------------------------------------------
      LOOP:  cpu time   17.3214: real time   17.4507

 eigenvalue-minimisations  :  2328
 total energy-change (2. order) :-0.7688170E+01  (-0.7414111E+01)
 number of electron     376.0000000 magnetization 
 augmentation part      376.0000000 magnetization 

 Free energy of the ion-electron system (eV)
  ---------------------------------------------------
  alpha Z        PSCENC =       975.10247152
  Ewald energy   TEWEN  =     91145.28748906
  -Hartree energ DENC   =   -120232.96903902
  -exchange      EXHF   =         0.00000000
  -V(xc)+E(xc)   XCENC  =       189.81521639
  PAW double counting   =     24789.08602224   -23775.73976456
  entropy T*S    EENTRO =        -0.00178566
  eigenvalues    EBANDS =      -598.63906545
  atomic energy  EATOM  =     27259.89416086
  Solvation  Ediel_sol  =         0.00000000
  ---------------------------------------------------
  free energy    TOTEN  =      -248.16429462 eV

  energy without entropy =     -248.16250896  energy(sigma->0) =     -248.16369940


--------------------------------------------------------------------------------------------------------




--------------------------------------- Iteration      1(   5)  ---------------------------------------


     EDDAV:  cpu time   17.3813: real time   17.5131
       DOS:  cpu time    0.0011: real time    0.0011
    CHARGE:  cpu time    0.8375: real time    0.8438
    MIXING:  cpu time    0.0079: real time    0.0079
    --------------------------------------------
      LOOP:  cpu time   18.2278: real time   18.3659

 eigenvalue-minimisations  :  2560
 total energy-change (2. order) :-0.2460857E+00  (-0.2432808E+00)
 number of electron     376.0000108 magnetization 
 augmentation part      105.8319415 magnetization 

 Broyden mixing:
  rms(total) = 0.27280E+01    rms(broyden)= 0.27276E+01
  rms(prec ) = 0.30325E+01
  weight for this iteration     100.00

 Free energy of the ion-electron system (eV)
  ---------------------------------------------------
  alpha Z        PSCENC =       975.10247152
  Ewald energy   TEWEN  =     91145.28748906
  -Hartree energ DENC   =   -120232.96903902
  -exchange      EXHF   =         0.00000000
  -V(xc)+E(xc)   XCENC  =       189.81521639
  PAW double counting   =     24789.08602224   -23775.73976456
  entropy T*S    EENTRO =        -0.00154775
  eigenvalues    EBANDS =      -598.88538904
  atomic energy  EATOM  =     27259.89416086
  Solvation  Ediel_sol  =         0.00000000
  ---------------------------------------------------
  free energy    TOTEN  =      -248.41038030 eV

  energy without entropy =     -248.40883255  energy(sigma->0) =     -248.40986439


--------------------------------------------------------------------------------------------------------




--------------------------------------- Iteration      1(   6)  ---------------------------------------


    POTLOK:  cpu time    0.1966: real time    0.1981
    SETDIJ:  cpu time    0.0113: real time    0.0113
    EDDIAG:  cpu time    2.3260: real time    2.3437
  RMM-DIIS:  cpu time    7.7642: real time    7.8250
    ORTHCH:  cpu time    0.2785: real time    0.2809
       DOS:  cpu time    0.0011: real time    0.0011
    CHARGE:  cpu time    0.8403: real time    0.8466
    MIXING:  cpu time    0.0082: real time    0.0103
    --------------------------------------------
      LOOP:  cpu time   11.4262: real time   11.5171

 eigenvalue-minimisations  :  1829
 total energy-change (2. order) : 0.3305197E+01  (-0.5501041E+01)
 number of electron     376.0000112 magnetization 
 augmentation part      112.8261208 magnetization 

 Broyden mixing:
  rms(total) = 0.29144E+01    rms(broyden)= 0.29136E+01
  rms(prec ) = 0.40246E+01
  weight for this iteration     100.00

 eigenvalues of (default mixing * dielectric matrix)
  average eigenvalue GAMMA=   0.4940
  0.4940

 Free energy of the ion-electron system (eV)
  ---------------------------------------------------
  alpha Z        PSCENC =       975.10247152
  Ewald energy   TEWEN  =     91145.28748906
  -Hartree energ DENC   =   -119778.48543488
  -exchange      EXHF   =         0.00000000
  -V(xc)+E(xc)   XCENC  =       182.67693644
  PAW double counting   =     26737.40049366   -25777.75216195
  entropy T*S    EENTRO =        -0.16458430
  eigenvalues    EBANDS =      -989.06455353
  atomic energy  EATOM  =     27259.89416086
  Solvation  Ediel_sol  =         0.00000000
  ---------------------------------------------------
  free energy    TOTEN  =      -245.10518311 eV

  energy without entropy =     -244.94059881  energy(sigma->0) =     -245.05032168


--------------------------------------------------------------------------------------------------------




--------------------------------------- Iteration      1(   7)  ---------------------------------------


    POTLOK:  cpu time    0.1947: real time    0.1967
    SETDIJ:  cpu time    0.0108: real time    0.0108
    EDDIAG:  cpu time    2.1592: real time    2.1765
  RMM-DIIS:  cpu time    7.7116: real time    7.7748
    ORTHCH:  cpu time    0.2941: real time    0.2965
       DOS:  cpu time    0.0013: real time    0.0013
    CHARGE:  cpu time    0.8795: real time    0.8865
    MIXING:  cpu time    0.0056: real time    0.0079
    --------------------------------------------
      LOOP:  cpu time   11.2568: real time   11.3510

 eigenvalue-minimisations  :  1831
 total energy-change (2. order) :-0.2195450E+01  (-0.3164968E+01)
 number of electron     376.0000116 magnetization 
 augmentation part      111.3808827 magnetization 

 Broyden mixing:
  rms(total) = 0.22999E+01    rms(broyden)= 0.22992E+01
  rms(prec ) = 0.40928E+01
  weight for this iteration     100.00

 eigenvalues of (default mixing * dielectric matrix)
  average eigenvalue GAMMA=   0.5397
  0.8497  0.2298

 Free energy of the ion-electron system (eV)
  ---------------------------------------------------
  alpha Z        PSCENC =       975.10247152
  Ewald energy   TEWEN  =     91145.28748906
  -Hartree energ DENC   =   -119961.99454471
  -exchange      EXHF   =         0.00000000
  -V(xc)+E(xc)   XCENC  =       180.49756117
  PAW double counting   =     27360.82917026   -26408.36801756
  entropy T*S    EENTRO =        -0.13402197
  eigenvalues    EBANDS =      -798.41490151
  atomic energy  EATOM  =     27259.89416086
  Solvation  Ediel_sol  =         0.00000000
  ---------------------------------------------------
  free energy    TOTEN  =      -247.30063288 eV

  energy without entropy =     -247.16661091  energy(sigma->0) =     -247.25595889


--------------------------------------------------------------------------------------------------------




--------------------------------------- Iteration      1(   8)  ---------------------------------------


    POTLOK:  cpu time    0.1904: real time    0.1920
    SETDIJ:  cpu time    0.0112: real time    0.0113
    EDDIAG:  cpu time    1.8615: real time    1.8756
  RMM-DIIS:  cpu time    8.0924: real time    8.1611
    ORTHCH:  cpu time    0.3036: real time    0.3059
       DOS:  cpu time    0.0013: real time    0.0013
    CHARGE:  cpu time    0.6609: real time    0.6663
    MIXING:  cpu time    0.0064: real time    0.0065
    --------------------------------------------
      LOOP:  cpu time   11.1278: real time   11.2199

 eigenvalue-minimisations  :  1827
 total energy-change (2. order) : 0.3534475E+01  (-0.1077454E+01)
 number of electron     376.0000124 magnetization 
 augmentation part      111.8699563 magnetization 

 Broyden mixing:
  rms(total) = 0.23235E+01    rms(broyden)= 0.23233E+01
  rms(prec ) = 0.37730E+01
  weight for this iteration     100.00

 eigenvalues of (default mixing * dielectric matrix)
  average eigenvalue GAMMA=   0.5134
  1.1296  0.2656  0.1450

 Free energy of the ion-electron system (eV)
  ---------------------------------------------------
  alpha Z        PSCENC =       975.10247152
  Ewald energy   TEWEN  =     91145.28748906
  -Hartree energ DENC   =   -119943.02080089
  -exchange      EXHF   =         0.00000000
  -V(xc)+E(xc)   XCENC  =       179.44884545
  PAW double counting   =     27920.53888391   -26976.81637544
  entropy T*S    EENTRO =        -0.02964946
  eigenvalues    EBANDS =      -804.17118295
  atomic energy  EATOM  =     27259.89416086
  Solvation  Ediel_sol  =         0.00000000
  ---------------------------------------------------
  free energy    TOTEN  =      -243.76615794 eV

  energy without entropy =     -243.73650848  energy(sigma->0) =     -243.75627479


--------------------------------------------------------------------------------------------------------




--------------------------------------- Iteration      1(   9)  ---------------------------------------


    POTLOK:  cpu time    0.2023: real time    0.2039
    SETDIJ:  cpu time    0.0122: real time    0.0123
    EDDIAG:  cpu time    2.3519: real time    2.3708
  RMM-DIIS:  cpu time    7.9506: real time    8.0161
    ORTHCH:  cpu time    0.2898: real time    0.2919
       DOS:  cpu time    0.0012: real time    0.0012
    CHARGE:  cpu time    0.8132: real time    0.8201
    MIXING:  cpu time    0.0055: real time    0.0056
    --------------------------------------------
      LOOP:  cpu time   11.6269: real time   11.7219

 eigenvalue-minimisations  :  1831
 total energy-change (2. order) : 0.1180350E+02  (-0.6512942E+00)
 number of electron     376.0000112 magnetization 
 augmentation part      112.6438775 magnetization 

 Broyden mixing:
  rms(total) = 0.90691E+00    rms(broyden)= 0.90666E+00
  rms(prec ) = 0.11542E+01
  weight for this iteration     100.00

 eigenvalues of (default mixing * dielectric matrix)
  average eigenvalue GAMMA=   0.5185
  1.2782  0.3284  0.3284  0.1388

 Free energy of the ion-electron system (eV)
  ---------------------------------------------------
  alpha Z        PSCENC =       975.10247152
  Ewald energy   TEWEN  =     91145.28748906
  -Hartree energ DENC   =   -119862.48782013
  -exchange      EXHF   =         0.00000000
  -V(xc)+E(xc)   XCENC  =       178.76210940
  PAW double counting   =     28638.62274067   -27706.08255285
  entropy T*S    EENTRO =        -0.07405020
  eigenvalues    EBANDS =      -860.98720385
  atomic energy  EATOM  =     27259.89416086
  Solvation  Ediel_sol  =         0.00000000
  ---------------------------------------------------
  free energy    TOTEN  =      -231.96265552 eV

  energy without entropy =     -231.88860532  energy(sigma->0) =     -231.93797212


--------------------------------------------------------------------------------------------------------




--------------------------------------- Iteration      1(  10)  ---------------------------------------


    POTLOK:  cpu time    0.1980: real time    0.1996
    SETDIJ:  cpu time    0.0111: real time    0.0112
    EDDIAG:  cpu time    2.2395: real time    2.2588
  RMM-DIIS:  cpu time    8.4695: real time    8.5388
    ORTHCH:  cpu time    0.3180: real time    0.3203
       DOS:  cpu time    0.0012: real time    0.0012
    CHARGE:  cpu time    0.9703: real time    0.9782
    MIXING:  cpu time    0.0076: real time    0.0078
    --------------------------------------------
      LOOP:  cpu time   12.2152: real time   12.3159

 eigenvalue-minimisations  :  1831
 total energy-change (2. order) : 0.1276026E+01  (-0.2002489E+00)
 number of electron     376.0000114 magnetization 
 augmentation part      112.7810133 magnetization 

 Broyden mixing:
  rms(total) = 0.53724E+00    rms(broyden)= 0.53718E+00
  rms(prec ) = 0.66896E+00
  weight for this iteration     100.00

 eigenvalues of (default mixing * dielectric matrix)
  average eigenvalue GAMMA=   0.5363
  1.3829  0.4520  0.4520  0.1405  0.2539

 Free energy of the ion-electron system (eV)
  ---------------------------------------------------
  alpha Z        PSCENC =       975.10247152
  Ewald energy   TEWEN  =     91145.28748906
  -Hartree energ DENC   =   -119852.64049297
  -exchange      EXHF   =         0.00000000
  -V(xc)+E(xc)   XCENC  =       178.61691968
  PAW double counting   =     29022.01824351   -28094.74443099
  entropy T*S    EENTRO =         0.03352806
  eigenvalues    EBANDS =      -864.25451802
  atomic energy  EATOM  =     27259.89416086
  Solvation  Ediel_sol  =         0.00000000
  ---------------------------------------------------
  free energy    TOTEN  =      -230.68662929 eV

  energy without entropy =     -230.72015735  energy(sigma->0) =     -230.69780531


--------------------------------------------------------------------------------------------------------




--------------------------------------- Iteration      1(  11)  ---------------------------------------


    POTLOK:  cpu time    0.2047: real time    0.2065
    SETDIJ:  cpu time    0.0111: real time    0.0112
    EDDIAG:  cpu time    2.5213: real time    2.5421
  RMM-DIIS:  cpu time    8.3494: real time    8.4183
    ORTHCH:  cpu time    0.3001: real time    0.3024
       DOS:  cpu time    0.0012: real time    0.0012
    CHARGE:  cpu time    0.9449: real time    0.9523
    MIXING:  cpu time    0.0076: real time    0.0077
    --------------------------------------------
      LOOP:  cpu time   12.3403: real time   12.4417

 eigenvalue-minimisations  :  1831
 total energy-change (2. order) : 0.3193893E+00  (-0.5236871E-01)
 number of electron     376.0000113 magnetization 
 augmentation part      112.8986386 magnetization 

 Broyden mixing:
  rms(total) = 0.33318E+00    rms(broyden)= 0.33293E+00
  rms(prec ) = 0.44851E+00
  weight for this iteration     100.00

 eigenvalues of (default mixing * dielectric matrix)
  average eigenvalue GAMMA=   0.5789
  1.5565  0.8336  0.1393  0.3677  0.3385  0.2380

 Free energy of the ion-electron system (eV)
  ---------------------------------------------------
  alpha Z        PSCENC =       975.10247152
  Ewald energy   TEWEN  =     91145.28748906
  -Hartree energ DENC   =   -119849.15758997
  -exchange      EXHF   =         0.00000000
  -V(xc)+E(xc)   XCENC  =       178.61176935
  PAW double counting   =     29309.68274670   -28386.13709183
  entropy T*S    EENTRO =        -0.00987527
  eigenvalues    EBANDS =      -863.64132044
  atomic energy  EATOM  =     27259.89416086
  Solvation  Ediel_sol  =         0.00000000
  ---------------------------------------------------
  free energy    TOTEN  =      -230.36724000 eV

  energy without entropy =     -230.35736474  energy(sigma->0) =     -230.36394825


--------------------------------------------------------------------------------------------------------




--------------------------------------- Iteration      1(  12)  ---------------------------------------


    POTLOK:  cpu time    0.2117: real time    0.2136
    SETDIJ:  cpu time    0.0114: real time    0.0115
    EDDIAG:  cpu time    2.3320: real time    2.3510
  RMM-DIIS:  cpu time    8.0685: real time    8.1333
    ORTHCH:  cpu time    0.3048: real time    0.3071
       DOS:  cpu time    0.0012: real time    0.0012
    CHARGE:  cpu time    0.8773: real time    0.8843
    MIXING:  cpu time    0.0088: real time    0.0088
    --------------------------------------------
      LOOP:  cpu time   11.8158: real time   11.9108

 eigenvalue-minimisations  :  1846
 total energy-change (2. order) : 0.1849582E+00  (-0.2258882E-01)
 number of electron     376.0000112 magnetization 
 augmentation part      112.9622509 magnetization 

 Broyden mixing:
  rms(total) = 0.17596E+00    rms(broyden)= 0.17592E+00
  rms(prec ) = 0.19345E+00
  weight for this iteration     100.00

 eigenvalues of (default mixing * dielectric matrix)
  average eigenvalue GAMMA=   0.6589
  1.8781  1.0429  0.5138  0.5138  0.1394  0.2623  0.2623

 Free energy of the ion-electron system (eV)
  ---------------------------------------------------
  alpha Z        PSCENC =       975.10247152
  Ewald energy   TEWEN  =     91145.28748906
  -Hartree energ DENC   =   -119839.69269749
  -exchange      EXHF   =         0.00000000
  -V(xc)+E(xc)   XCENC  =       178.56576167
  PAW double counting   =     29627.76989412   -28708.12450317
  entropy T*S    EENTRO =        -0.00750864
  eigenvalues    EBANDS =      -868.97734974
  atomic energy  EATOM  =     27259.89416086
  Solvation  Ediel_sol  =         0.00000000
  ---------------------------------------------------
  free energy    TOTEN  =      -230.18228181 eV

  energy without entropy =     -230.17477317  energy(sigma->0) =     -230.17977893


--------------------------------------------------------------------------------------------------------




--------------------------------------- Iteration      1(  13)  ---------------------------------------


    POTLOK:  cpu time    0.1980: real time    0.1997
    SETDIJ:  cpu time    0.0106: real time    0.0107
    EDDIAG:  cpu time    2.2457: real time    2.2632
  RMM-DIIS:  cpu time    8.4053: real time    8.4705
    ORTHCH:  cpu time    0.3175: real time    0.3198
       DOS:  cpu time    0.0012: real time    0.0012
    CHARGE:  cpu time    0.9842: real time    0.9917
    MIXING:  cpu time    0.0088: real time    0.0089
    --------------------------------------------
      LOOP:  cpu time   12.1714: real time   12.2655

 eigenvalue-minimisations  :  1833
 total energy-change (2. order) :-0.1891414E-01  (-0.1359592E-01)
 number of electron     376.0000112 magnetization 
 augmentation part      112.9858559 magnetization 

 Broyden mixing:
  rms(total) = 0.20263E+00    rms(broyden)= 0.20263E+00
  rms(prec ) = 0.25735E+00
  weight for this iteration     100.00

 eigenvalues of (default mixing * dielectric matrix)
  average eigenvalue GAMMA=   0.6920
  2.1536  1.1421  0.8375  0.4393  0.1394  0.2967  0.2967  0.2306

 Free energy of the ion-electron system (eV)
  ---------------------------------------------------
  alpha Z        PSCENC =       975.10247152
  Ewald energy   TEWEN  =     91145.28748906
  -Hartree energ DENC   =   -119837.23311594
  -exchange      EXHF   =         0.00000000
  -V(xc)+E(xc)   XCENC  =       178.48385620
  PAW double counting   =     29878.23706647   -28961.59506329
  entropy T*S    EENTRO =        -0.00452388
  eigenvalues    EBANDS =      -868.37353695
  atomic energy  EATOM  =     27259.89416086
  Solvation  Ediel_sol  =         0.00000000
  ---------------------------------------------------
  free energy    TOTEN  =      -230.20119594 eV

  energy without entropy =     -230.19667207  energy(sigma->0) =     -230.19968798


--------------------------------------------------------------------------------------------------------




--------------------------------------- Iteration      1(  14)  ---------------------------------------


    POTLOK:  cpu time    0.2095: real time    0.2112
    SETDIJ:  cpu time    0.0107: real time    0.0108
    EDDIAG:  cpu time    2.5067: real time    2.5266
  RMM-DIIS:  cpu time    7.9756: real time    8.0347
    ORTHCH:  cpu time    0.3103: real time    0.3126
       DOS:  cpu time    0.0013: real time    0.0013
    CHARGE:  cpu time    1.0789: real time    1.0876
    MIXING:  cpu time    0.0075: real time    0.0075
    --------------------------------------------
      LOOP:  cpu time   12.1005: real time   12.1924

 eigenvalue-minimisations  :  1832
 total energy-change (2. order) : 0.5440541E-01  (-0.7608028E-02)
 number of electron     376.0000112 magnetization 
 augmentation part      112.9801891 magnetization 

 Broyden mixing:
  rms(total) = 0.95777E-01    rms(broyden)= 0.95764E-01
  rms(prec ) = 0.12595E+00
  weight for this iteration     100.00

 eigenvalues of (default mixing * dielectric matrix)
  average eigenvalue GAMMA=   0.7277
  2.4131  1.2600  0.7731  0.7731  0.3935  0.1394  0.3068  0.2588  0.2317

 Free energy of the ion-electron system (eV)
  ---------------------------------------------------
  alpha Z        PSCENC =       975.10247152
  Ewald energy   TEWEN  =     91145.28748906
  -Hartree energ DENC   =   -119841.05040080
  -exchange      EXHF   =         0.00000000
  -V(xc)+E(xc)   XCENC  =       178.41729589
  PAW double counting   =     30039.83127681   -29125.08110007
  entropy T*S    EENTRO =        -0.00878759
  eigenvalues    EBANDS =      -862.53919621
  atomic energy  EATOM  =     27259.89416086
  Solvation  Ediel_sol  =         0.00000000
  ---------------------------------------------------
  free energy    TOTEN  =      -230.14679054 eV

  energy without entropy =     -230.13800294  energy(sigma->0) =     -230.14386134


--------------------------------------------------------------------------------------------------------




--------------------------------------- Iteration      1(  15)  ---------------------------------------


    POTLOK:  cpu time    0.1989: real time    0.2006
    SETDIJ:  cpu time    0.0108: real time    0.0109
    EDDIAG:  cpu time    1.9156: real time    1.9295
  RMM-DIIS:  cpu time    5.6866: real time    5.7279
    ORTHCH:  cpu time    0.2534: real time    0.2550
       DOS:  cpu time    0.0012: real time    0.0013
    CHARGE:  cpu time    0.3605: real time    0.3628
    MIXING:  cpu time    0.0063: real time    0.0064
    --------------------------------------------
      LOOP:  cpu time    8.4334: real time    8.4943

 eigenvalue-minimisations  :  1831
 total energy-change (2. order) : 0.5300922E-02  (-0.3164461E-02)
 number of electron     376.0000113 magnetization 
 augmentation part      112.9588046 magnetization 

 Broyden mixing:
  rms(total) = 0.63426E-01    rms(broyden)= 0.63370E-01
  rms(prec ) = 0.79955E-01
  weight for this iteration     100.00

 eigenvalues of (default mixing * dielectric matrix)
  average eigenvalue GAMMA=   0.7114
  2.4763  1.2814  0.8325  0.8325  0.4460  0.1394  0.3246  0.2946  0.2569  0.2296

 Free energy of the ion-electron system (eV)
  ---------------------------------------------------
  alpha Z        PSCENC =       975.10247152
  Ewald energy   TEWEN  =     91145.28748906
  -Hartree energ DENC   =   -119842.20756187
  -exchange      EXHF   =         0.00000000
  -V(xc)+E(xc)   XCENC  =       178.39106669
  PAW double counting   =     30124.74679271   -29210.88938805
  entropy T*S    EENTRO =        -0.00191748
  eigenvalues    EBANDS =      -860.46460307
  atomic energy  EATOM  =     27259.89416086
  Solvation  Ediel_sol  =         0.00000000
  ---------------------------------------------------
  free energy    TOTEN  =      -230.14148961 eV

  energy without entropy =     -230.13957214  energy(sigma->0) =     -230.14085045


--------------------------------------------------------------------------------------------------------




--------------------------------------- Iteration      1(  16)  ---------------------------------------


    POTLOK:  cpu time    0.1207: real time    0.1216
    SETDIJ:  cpu time    0.0092: real time    0.0093
    EDDIAG:  cpu time    1.5220: real time    1.5335
  RMM-DIIS:  cpu time    6.1119: real time    6.1612
    ORTHCH:  cpu time    0.2884: real time    0.2906
       DOS:  cpu time    0.0014: real time    0.0014
    CHARGE:  cpu time    0.7532: real time    0.7596
    MIXING:  cpu time    0.0085: real time    0.0086
    --------------------------------------------
      LOOP:  cpu time    8.8154: real time    8.8858

 eigenvalue-minimisations  :  1830
 total energy-change (2. order) : 0.6278630E-02  (-0.7602500E-03)
 number of electron     376.0000113 magnetization 
 augmentation part      112.9592858 magnetization 

 Broyden mixing:
  rms(total) = 0.24668E-01    rms(broyden)= 0.24663E-01
  rms(prec ) = 0.30086E-01
  weight for this iteration     100.00

 eigenvalues of (default mixing * dielectric matrix)
  average eigenvalue GAMMA=   0.6892
  2.5089  1.2889  0.8295  0.8295  0.5107  0.1394  0.3892  0.3011  0.3011  0.2526
  0.2302

 Free energy of the ion-electron system (eV)
  ---------------------------------------------------
  alpha Z        PSCENC =       975.10247152
  Ewald energy   TEWEN  =     91145.28748906
  -Hartree energ DENC   =   -119843.65344895
  -exchange      EXHF   =         0.00000000
  -V(xc)+E(xc)   XCENC  =       178.39873936
  PAW double counting   =     30141.62051770   -29227.91716211
  entropy T*S    EENTRO =        -0.00268407
  eigenvalues    EBANDS =      -858.86529435
  atomic energy  EATOM  =     27259.89416086
  Solvation  Ediel_sol  =         0.00000000
  ---------------------------------------------------
  free energy    TOTEN  =      -230.13521098 eV

  energy without entropy =     -230.13252691  energy(sigma->0) =     -230.13431629


--------------------------------------------------------------------------------------------------------




--------------------------------------- Iteration      1(  17)  ---------------------------------------


    POTLOK:  cpu time    0.1985: real time    0.2001
    SETDIJ:  cpu time    0.0103: real time    0.0104
    EDDIAG:  cpu time    2.2636: real time    2.2828
  RMM-DIIS:  cpu time    8.4116: real time    8.4806
    ORTHCH:  cpu time    0.3036: real time    0.3059
       DOS:  cpu time    0.0012: real time    0.0012
    CHARGE:  cpu time    0.9861: real time    0.9944
    MIXING:  cpu time    0.0076: real time    0.0077
    --------------------------------------------
      LOOP:  cpu time   12.1825: real time   12.2830

 eigenvalue-minimisations  :  1817
 total energy-change (2. order) : 0.6633716E-03  (-0.1575241E-03)
 number of electron     376.0000113 magnetization 
 augmentation part      112.9598382 magnetization 

 Broyden mixing:
  rms(total) = 0.13425E-01    rms(broyden)= 0.13422E-01
  rms(prec ) = 0.16226E-01
  weight for this iteration     100.00

 eigenvalues of (default mixing * dielectric matrix)
  average eigenvalue GAMMA=   0.7282
  2.5613  1.2965  1.0527  1.0527  0.8027  0.4561  0.1394  0.3198  0.3198  0.2287
  0.2546  0.2546

 Free energy of the ion-electron system (eV)
  ---------------------------------------------------
  alpha Z        PSCENC =       975.10247152
  Ewald energy   TEWEN  =     91145.28748906
  -Hartree energ DENC   =   -119843.93029994
  -exchange      EXHF   =         0.00000000
  -V(xc)+E(xc)   XCENC  =       178.40305444
  PAW double counting   =     30145.39522023   -29231.70787949
  entropy T*S    EENTRO =        -0.00313366
  eigenvalues    EBANDS =      -858.57563063
  atomic energy  EATOM  =     27259.89416086
  Solvation  Ediel_sol  =         0.00000000
  ---------------------------------------------------
  free energy    TOTEN  =      -230.13454761 eV

  energy without entropy =     -230.13141395  energy(sigma->0) =     -230.13350306


--------------------------------------------------------------------------------------------------------




--------------------------------------- Iteration      1(  18)  ---------------------------------------


    POTLOK:  cpu time    0.1966: real time    0.1982
    SETDIJ:  cpu time    0.0104: real time    0.0105
    EDDIAG:  cpu time    2.4254: real time    2.4450
  RMM-DIIS:  cpu time    8.0477: real time    8.1130
    ORTHCH:  cpu time    0.2492: real time    0.2507
       DOS:  cpu time    0.0011: real time    0.0011
    CHARGE:  cpu time    0.4610: real time    0.4643
    MIXING:  cpu time    0.0080: real time    0.0080
    --------------------------------------------
      LOOP:  cpu time   11.3993: real time   11.4908

 eigenvalue-minimisations  :  1772
 total energy-change (2. order) :-0.2910718E-03  (-0.7955904E-04)
 number of electron     376.0000113 magnetization 
 augmentation part      112.9588236 magnetization 

 Broyden mixing:
  rms(total) = 0.11645E-01    rms(broyden)= 0.11645E-01
  rms(prec ) = 0.14661E-01
  weight for this iteration     100.00

 eigenvalues of (default mixing * dielectric matrix)
  average eigenvalue GAMMA=   0.7555
  2.5686  1.8245  1.2962  0.8986  0.8986  0.4639  0.1394  0.3637  0.3336  0.3102
  0.2574  0.2278  0.2395

 Free energy of the ion-electron system (eV)
  ---------------------------------------------------
  alpha Z        PSCENC =       975.10247152
  Ewald energy   TEWEN  =     91145.28748906
  -Hartree energ DENC   =   -119844.69573509
  -exchange      EXHF   =         0.00000000
  -V(xc)+E(xc)   XCENC  =       178.41084999
  PAW double counting   =     30146.74324137   -29233.01585884
  entropy T*S    EENTRO =        -0.00267257
  eigenvalues    EBANDS =      -857.85878498
  atomic energy  EATOM  =     27259.89416086
  Solvation  Ediel_sol  =         0.00000000
  ---------------------------------------------------
  free energy    TOTEN  =      -230.13483868 eV

  energy without entropy =     -230.13216611  energy(sigma->0) =     -230.13394783


--------------------------------------------------------------------------------------------------------




--------------------------------------- Iteration      1(  19)  ---------------------------------------


    POTLOK:  cpu time    0.1527: real time    0.1539
    SETDIJ:  cpu time    0.0101: real time    0.0102
    EDDIAG:  cpu time    1.7238: real time    1.7358
  RMM-DIIS:  cpu time    3.3328: real time    3.3541
    ORTHCH:  cpu time    0.2259: real time    0.2272
       DOS:  cpu time    0.0010: real time    0.0011
    --------------------------------------------
      LOOP:  cpu time    5.4464: real time    5.4821

 eigenvalue-minimisations  :  1280
 total energy-change (2. order) :-0.9987005E-04  (-0.3809565E-04)
 number of electron     376.0000113 magnetization 
 augmentation part      112.9588236 magnetization 

 Free energy of the ion-electron system (eV)
  ---------------------------------------------------
  alpha Z        PSCENC =       975.10247152
  Ewald energy   TEWEN  =     91145.28748906
  -Hartree energ DENC   =   -119845.99127191
  -exchange      EXHF   =         0.00000000
  -V(xc)+E(xc)   XCENC  =       178.41942090
  PAW double counting   =     30143.38313645   -29229.56368942
  entropy T*S    EENTRO =        -0.00326953
  eigenvalues    EBANDS =      -856.66338649
  atomic energy  EATOM  =     27259.89416086
  Solvation  Ediel_sol  =         0.00000000
  ---------------------------------------------------
  free energy    TOTEN  =      -230.13493855 eV

  energy without entropy =     -230.13166903  energy(sigma->0) =     -230.13384871


--------------------------------------------------------------------------------------------------------




 average (electrostatic) potential at core
  the test charge radii are     0.6991  0.7215  1.2059
  (the norm of the test charge is              1.0000)
       1 -56.2817       2 -74.7688       3 -76.1133       4 -72.3182       5 -72.3372
       6 -72.3107       7 -72.3067       8 -72.3520       9 -72.3448      10 -72.3131
      11 -72.3239      12 -72.3154      13 -72.9597      14 -72.9631      15 -72.9085
      16 -72.9942      17 -72.9975      18 -72.9599      19 -73.0407      20 -72.9386
      21 -72.9795      22 -72.9581      23 -72.9537      24 -72.7823      25 -72.9910
      26 -73.0180      27 -73.0777      28 -72.9396      29 -73.0299      30 -72.9409
      31 -72.4882      32 -72.3489      33 -72.6200      34 -72.3965      35 -72.4236
      36 -73.3393      37 -72.5727      38 -73.1747      39 -72.5358
 
 
 
 E-fermi :   1.0846     XC(G=0):  -6.6130     alpha+bet : -6.8913


 k-point     1 :       0.0000    0.0000    0.0000
  band No.  band energies     occupation 
      1     -22.0357      2.00000
      2     -17.0757      2.00000
      3      -8.8799      2.00000
      4      -8.1075      2.00000
      5      -6.8528      2.00000
      6      -5.9644      2.00000
      7      -5.9378      2.00000
      8      -5.7849      2.00000
      9      -5.7294      2.00000
     10      -5.6582      2.00000
     11      -5.6378      2.00000
     12      -5.6170      2.00000
     13      -5.5627      2.00000
     14      -5.5447      2.00000
     15      -5.4638      2.00000
     16      -5.3112      2.00000
     17      -5.1395      2.00000
     18      -5.1003      2.00000
     19      -5.0845      2.00000
     20      -5.0341      2.00000
     21      -4.9979      2.00000
     22      -4.9829      2.00000
     23      -4.6935      2.00000
     24      -4.6338      2.00000
     25      -4.5973      2.00000
     26      -4.5618      2.00000
     27      -4.5449      2.00000
     28      -4.4907      2.00000
     29      -4.4155      2.00000
     30      -4.3720      2.00000
     31      -4.3657      2.00000
     32      -4.3498      2.00000
     33      -4.3094      2.00000
     34      -4.2932      2.00000
     35      -4.1620      2.00000
     36      -4.1320      2.00000
     37      -4.1243      2.00000
     38      -4.1030      2.00000
     39      -4.0893      2.00000
     40      -4.0825      2.00000
     41      -4.0637      2.00000
     42      -4.0473      2.00000
     43      -4.0079      2.00000
     44      -3.9763      2.00000
     45      -3.9510      2.00000
     46      -3.9377      2.00000
     47      -3.6247      2.00000
     48      -3.5743      2.00000
     49      -3.5317      2.00000
     50      -3.4781      2.00000
     51      -3.4423      2.00000
     52      -3.4228      2.00000
     53      -3.4153      2.00000
     54      -3.4069      2.00000
     55      -3.3661      2.00000
     56      -3.3609      2.00000
     57      -3.2725      2.00000
     58      -3.1923      2.00000
     59      -3.1741      2.00000
     60      -3.1327      2.00000
     61      -3.1011      2.00000
     62      -2.9733      2.00000
     63      -2.8942      2.00000
     64      -2.6876      2.00000
     65      -2.6006      2.00000
     66      -2.5753      2.00000
     67      -2.5596      2.00000
     68      -2.5382      2.00000
     69      -2.5126      2.00000
     70      -2.4783      2.00000
     71      -2.4495      2.00000
     72      -2.4358      2.00000
     73      -2.4274      2.00000
     74      -2.3956      2.00000
     75      -2.3865      2.00000
     76      -2.3751      2.00000
     77      -2.3590      2.00000
     78      -2.3530      2.00000
     79      -2.3170      2.00000
     80      -2.3130      2.00000
     81      -2.2981      2.00000
     82      -2.2877      2.00000
     83      -2.2700      2.00000
     84      -2.2525      2.00000
     85      -2.2446      2.00000
     86      -2.1787      2.00000
     87      -2.1526      2.00000
     88      -2.1283      2.00000
     89      -2.1055      2.00000
     90      -2.0858      2.00000
     91      -2.0307      2.00000
     92      -2.0211      2.00000
     93      -1.9749      2.00000
     94      -1.9619      2.00000
     95      -1.9396      2.00000
     96      -1.9075      2.00000
     97      -1.8594      2.00000
     98      -1.8395      2.00000
     99      -1.8271      2.00000
    100      -1.7657      2.00000
    101      -1.6963      2.00000
    102      -1.6434      2.00000
    103      -1.6372      2.00000
    104      -1.6222      2.00000
    105      -1.5983      2.00000
    106      -1.5593      2.00000
    107      -1.5462      2.00000
    108      -1.5372      2.00000
    109      -1.5184      2.00000
    110      -1.4959      2.00000
    111      -1.4928      2.00000
    112      -1.4759      2.00000
    113      -1.4427      2.00000
    114      -1.3725      2.00000
    115      -1.3192      2.00000
    116      -1.2280      2.00000
    117      -1.1811      2.00000
    118      -1.0946      2.00000
    119      -1.0503      2.00000
    120      -1.0398      2.00000
    121      -1.0234      2.00000
    122      -0.9704      2.00000
    123      -0.9515      2.00000
    124      -0.9020      2.00000
    125      -0.8875      2.00000
    126      -0.8590      2.00000
    127      -0.7958      2.00000
    128      -0.7844      2.00000
    129      -0.7106      2.00000
    130      -0.6847      2.00000
    131      -0.6763      2.00000
    132      -0.6649      2.00000
    133      -0.6520      2.00000
    134      -0.6068      2.00000
    135      -0.5573      2.00000
    136      -0.4438      2.00000
    137      -0.4176      2.00000
    138      -0.3896      2.00000
    139      -0.3601      2.00000
    140      -0.3576      2.00000
    141      -0.2706      2.00000
    142      -0.2428      2.00000
    143      -0.2087      2.00000
    144      -0.1855      2.00000
    145      -0.1607      2.00000
    146      -0.1572      2.00000
    147      -0.1007      2.00000
    148      -0.0667      2.00000
    149      -0.0312      2.00000
    150       0.0174      2.00000
    151       0.0437      2.00000
    152       0.0946      2.00000
    153       0.1090      2.00000
    154       0.1234      2.00000
    155       0.1686      2.00000
    156       0.1843      2.00000
    157       0.2208      2.00000
    158       0.2371      2.00000
    159       0.2553      2.00000
    160       0.2821      2.00000
    161       0.3010      2.00000
    162       0.3092      2.00000
    163       0.3212      2.00000
    164       0.3545      2.00000
    165       0.3668      2.00000
    166       0.3814      2.00001
    167       0.4069      2.00002
    168       0.4198      2.00003
    169       0.4563      2.00008
    170       0.4877      2.00020
    171       0.5266      2.00058
    172       0.5326      2.00067
    173       0.5761      2.00191
    174       0.6098      2.00399
    175       0.6249      2.00543
    176       0.6366      2.00683
    177       0.6647      2.01144
    178       0.6735      2.01332
    179       0.6924      2.01810
    180       0.7027      2.02117
    181       0.7226      2.02810
    182       0.7379      2.03424
    183       0.7854      2.05566
    184       0.7986      2.06125
    185       0.8114      2.06589
    186       0.8127      2.06629
    187       0.8231      2.06903
    188       0.8284      2.07001
    189       0.8314      2.07042
    190       0.8499      2.07005
    191       0.8504      2.06996
    192       0.8545      2.06904
    193       0.8769      2.05735
    194       0.8872      2.04742
    195       0.9333      1.95604
    196       1.0721      1.10560
    197       1.0867      0.98252
    198       1.1733      0.32469
    199       1.1876      0.24376
    200       1.2021      0.17115
    201       1.2202      0.09594
    202       1.2253      0.07793
    203       1.2553     -0.00496
    204       1.4684     -0.02059
    205       1.5444     -0.00543
    206       1.9336     -0.00000
    207       1.9926     -0.00000
    208       2.0513     -0.00000
    209       2.0675     -0.00000
    210       2.1837     -0.00000
    211       2.5474     -0.00000
    212       3.6100     -0.00000
    213       4.0179     -0.00000
    214       4.3010     -0.00000
    215       4.3645     -0.00000
    216       4.3919     -0.00000
    217       4.5760     -0.00000
    218       4.9341     -0.00000
    219       5.5065     -0.00000
    220       5.7230     -0.00000
    221       5.8746     -0.00000
    222       5.8835     -0.00000
    223       5.9106     -0.00000
    224       5.9387     -0.00000
    225       6.0291     -0.00000
    226       6.2199     -0.00000
    227       6.5512      0.00000
    228       6.8578      0.00000

 k-point     2 :       0.5000    0.0000    0.0000
  band No.  band energies     occupation 
      1     -22.0355      2.00000
      2     -17.0752      2.00000
      3      -8.8702      2.00000
      4      -7.2965      2.00000
      5      -7.1809      2.00000
      6      -6.1266      2.00000
      7      -6.0320      2.00000
      8      -5.9137      2.00000
      9      -5.8841      2.00000
     10      -5.7167      2.00000
     11      -5.6192      2.00000
     12      -5.4247      2.00000
     13      -5.3731      2.00000
     14      -5.2502      2.00000
     15      -5.0193      2.00000
     16      -4.9655      2.00000
     17      -4.9045      2.00000
     18      -4.8809      2.00000
     19      -4.8374      2.00000
     20      -4.8302      2.00000
     21      -4.8144      2.00000
     22      -4.7886      2.00000
     23      -4.7508      2.00000
     24      -4.7403      2.00000
     25      -4.7349      2.00000
     26      -4.7040      2.00000
     27      -4.6940      2.00000
     28      -4.6718      2.00000
     29      -4.5994      2.00000
     30      -4.5824      2.00000
     31      -4.3904      2.00000
     32      -4.3577      2.00000
     33      -4.3345      2.00000
     34      -4.2943      2.00000
     35      -4.2502      2.00000
     36      -4.1559      2.00000
     37      -4.0814      2.00000
     38      -4.0724      2.00000
     39      -4.0176      2.00000
     40      -3.9703      2.00000
     41      -3.9564      2.00000
     42      -3.9008      2.00000
     43      -3.8660      2.00000
     44      -3.8323      2.00000
     45      -3.7766      2.00000
     46      -3.7244      2.00000
     47      -3.7135      2.00000
     48      -3.6740      2.00000
     49      -3.6495      2.00000
     50      -3.6177      2.00000
     51      -3.4806      2.00000
     52      -3.4579      2.00000
     53      -3.4392      2.00000
     54      -3.4151      2.00000
     55      -3.3556      2.00000
     56      -3.3402      2.00000
     57      -3.2833      2.00000
     58      -3.2116      2.00000
     59      -3.1667      2.00000
     60      -3.1478      2.00000
     61      -3.0809      2.00000
     62      -3.0623      2.00000
     63      -3.0336      2.00000
     64      -3.0214      2.00000
     65      -2.9771      2.00000
     66      -2.9653      2.00000
     67      -2.9092      2.00000
     68      -2.8774      2.00000
     69      -2.8468      2.00000
     70      -2.7946      2.00000
[...]
     86      -2.2143      2.00000
     87      -2.1958      2.00000
     88      -2.1802      2.00000
     89      -2.1747      2.00000
     90      -2.1567      2.00000
     91      -2.1262      2.00000
     92      -2.1126      2.00000
     93      -2.0745      2.00000
     94      -2.0099      2.00000
     95      -1.9860      2.00000
     96      -1.9724      2.00000
     97      -1.9129      2.00000
     98      -1.8849      2.00000
     99      -1.8536      2.00000
    100      -1.8401      2.00000
    101      -1.7840      2.00000
    102      -1.7623      2.00000
    103      -1.7521      2.00000
    104      -1.7300      2.00000
    105      -1.7139      2.00000
    106      -1.6979      2.00000
    107      -1.6839      2.00000
    108      -1.6616      2.00000
    109      -1.6440      2.00000
    110      -1.5680      2.00000
    111      -1.5335      2.00000
    112      -1.4829      2.00000
    113      -1.4720      2.00000
    114      -1.4098      2.00000
    115      -1.3255      2.00000
    116      -1.3061      2.00000
    117      -1.2213      2.00000
    118      -1.1966      2.00000
    119      -1.1577      2.00000
    120      -1.1082      2.00000
    121      -1.0966      2.00000
    122      -1.0506      2.00000
    123      -1.0373      2.00000
    124      -1.0230      2.00000
    125      -1.0006      2.00000
    126      -0.9706      2.00000
    127      -0.9566      2.00000
    128      -0.9354      2.00000
    129      -0.9172      2.00000
    130      -0.9135      2.00000
    131      -0.8663      2.00000
    132      -0.8294      2.00000
    133      -0.7813      2.00000
    134      -0.7630      2.00000
    135      -0.7468      2.00000
    136      -0.7034      2.00000
    137      -0.6998      2.00000
    138      -0.6594      2.00000
    139      -0.6214      2.00000
    140      -0.5679      2.00000
    141      -0.4944      2.00000
    142      -0.4740      2.00000
    143      -0.4070      2.00000
    144      -0.3164      2.00000
    145      -0.2754      2.00000
    146      -0.2089      2.00000
    147      -0.1951      2.00000
    148      -0.1579      2.00000
    149      -0.1113      2.00000
    150      -0.0712      2.00000
    151      -0.0588      2.00000
    152       0.0144      2.00000
    153       0.0189      2.00000
    154       0.0502      2.00000
    155       0.0681      2.00000
    156       0.0842      2.00000
    157       0.0923      2.00000
    158       0.1571      2.00000
    159       0.1850      2.00000
    160       0.2047      2.00000
    161       0.2417      2.00000
    162       0.2695      2.00000
    163       0.2939      2.00000
    164       0.3164      2.00000
    165       0.3455      2.00000
    166       0.3758      2.00001
    167       0.5102      2.00052
    168       0.5716      2.00228
    169       0.5754      2.00248
    170       0.6060      2.00476
    171       0.6264      2.00712
    172       0.6582      2.01267
    173       0.6812      2.01844
    174       0.7618      2.05056
    175       0.7710      2.05476
    176       0.7906      2.06293
    177       0.8322      2.07073
    178       0.8442      2.06844
    179       0.8841      2.03571
    180       0.9061      1.99502
    181       0.9180      1.96470
    182       0.9839      1.67307
    183       1.0230      1.40298
    184       1.0619      1.08756
    185       1.0786      0.94619
    186       1.0852      0.89058
    187       1.1058      0.72066
    188       1.1301      0.53260
    189       1.1439      0.43490
    190       1.1522      0.37964
    191       1.2742     -0.05222
    192       1.3144     -0.07085
    193       1.3412     -0.06717
    194       1.3700     -0.05628
    195       1.4034     -0.04104
    196       1.4584     -0.01987
    197       1.5829     -0.00182
    198       1.7162     -0.00005
    199       1.7968     -0.00000
    200       1.9698     -0.00000
    201       2.2188     -0.00000
    202       2.3166     -0.00000
    203       2.7530     -0.00000
    204       2.9242     -0.00000
    205       2.9489     -0.00000
    206       2.9762     -0.00000
    207       2.9890     -0.00000
    208       3.2292     -0.00000
    209       3.3920     -0.00000
    210       3.4960     -0.00000
    211       3.5460     -0.00000
    212       3.5866     -0.00000
    213       3.6987     -0.00000
    214       3.7857     -0.00000
    215       3.9562     -0.00000
    216       4.1448     -0.00000
    217       4.1959     -0.00000
    218       4.3855     -0.00000
    219       4.4192     -0.00000
    220       4.5743     -0.00000
    221       4.6579     -0.00000
    222       4.8343     -0.00000
    223       5.1908     -0.00000
    224       5.5193     -0.00000
    225       6.0614     -0.00000
    226       6.4984     -0.00000
    227       6.5299     -0.00000
    228       6.5770      0.00000


--------------------------------------------------------------------------------------------------------


 soft charge-density along one line, spin component           1
         0         1         2         3         4         5         6         7         8         9
 total charge-density along one line
 
 pseudopotential strength for first ion, spin component:           1
 10.089   0.015   0.004   0.009   0.000  -0.004  -0.008   0.000
  0.015  -0.002  -0.000  -0.000  -0.000  -0.000  -0.000   0.000
  0.004  -0.000  -4.244  -0.006   0.001  -0.010  -0.002   0.000
  0.009  -0.000  -0.006  -4.256   0.003  -0.002  -0.015   0.000
  0.000  -0.000   0.001   0.003  -4.240   0.000   0.000  -0.009
 -0.004  -0.000  -0.010  -0.002   0.000  -0.770  -0.000   0.000
 -0.008  -0.000  -0.002  -0.015   0.000  -0.000  -0.770   0.000
  0.000   0.000   0.000   0.000  -0.009   0.000   0.000  -0.770
 total augmentation occupancy for first ion, spin component:           1
  1.623  -0.841   0.017  -0.001  -0.064   0.037   0.078  -0.024
 -0.841   1.167  -0.225  -0.505   0.084  -0.090  -0.212   0.029
  0.017  -0.225   0.857   0.200   0.003   0.117   0.058  -0.006
 -0.001  -0.505   0.200   1.289  -0.001   0.058   0.237  -0.009
 -0.064   0.084   0.003  -0.001   0.792  -0.006  -0.009   0.098
  0.037  -0.090   0.117   0.058  -0.006   0.021   0.023  -0.004
  0.078  -0.212   0.058   0.237  -0.009   0.023   0.066  -0.006
 -0.024   0.029  -0.006  -0.009   0.098  -0.004  -0.006   0.014


------------------------ aborting loop because EDIFF is reached ----------------------------------------


    CHARGE:  cpu time    0.8424: real time    0.8490
    FORLOC:  cpu time    0.0536: real time    0.0540
    FORNL :  cpu time    4.0894: real time    4.1194
    STRESS:  cpu time   11.6103: real time   11.6994
    FORCOR:  cpu time    0.2291: real time    0.2308
    FORHAR:  cpu time    0.1037: real time    0.1045
    MIXING:  cpu time    0.0066: real time    0.0067
    OFIELD:  cpu time    0.0001: real time    0.0001

  FORCE on cell =-STRESS in cart. coord.  units (eV):
  Direction    XX          YY          ZZ          XY          YZ          ZX
  --------------------------------------------------------------------------------------
  Alpha Z   975.10247   975.10247   975.10247
  Ewald  110910.25798110925.49405************  -203.22653   266.26133   -78.88706
  Hartree117654.67042117639.34704************  -132.05609   114.80654   -44.64628
  E(xc)   -1665.64387 -1665.35010 -1673.15605    -0.49585     0.78049    -0.23763
  Local  ************************239266.98535   324.67771  -355.95806   116.89699
  n-local   122.75612   122.02546    87.75105    -1.21366     0.91396     0.21844
  augment  1894.99267  1892.75703  1933.94725     2.72428    -4.45452     1.02971
  Kinetic  5521.79785  5511.54733  5603.13381    10.68780   -23.10201     7.21782
  Fock        0.00000     0.00000     0.00000     0.00000     0.00000     0.00000
  -------------------------------------------------------------------------------------
  Total     -37.16842   -39.95571    -5.59906     1.09765    -0.75226     1.59199
  in kB     -44.26820   -47.58791    -6.66857     1.30732    -0.89596     1.89609
  external pressure =      -32.84 kB  Pullay stress =        0.00 kB


 VOLUME and BASIS-vectors are now :
 -----------------------------------------------------------------------------
  energy-cutoff  :      450.00
  volume of cell :     1345.22
      direct lattice vectors                 reciprocal lattice vectors
     7.296955120 -4.212899000  0.000000000     0.137043463  0.000000000  0.000000000
     0.000000000  8.425798000  0.000000000     0.068521732  0.118683121  0.000000000
     0.000000000  0.000000000 21.879635000     0.000000000  0.000000000  0.045704602

  length of vectors
     8.425798004  8.425798000 21.879635000     0.137043463  0.137043463  0.045704602


 FORCES acting on ions
    electron-ion (+dipol)            ewald-force                    non-local-force                 convergence-correction
 -----------------------------------------------------------------------------------------------
   0.159E+02 0.214E+02 -.888E+03   -.168E+02 -.259E+02 0.878E+03   0.109E+01 0.371E+01 0.103E+02   -.208E-01 0.337E-02 -.965E-02
   -.869E+02 0.454E+02 -.159E+04   0.893E+02 -.422E+02 0.161E+04   -.198E+01 -.281E+01 -.225E+02   0.233E-02 0.204E-01 0.137E-01
   0.589E+02 -.115E+03 -.155E+04   -.667E+02 0.138E+03 0.161E+04   0.794E+01 -.234E+02 -.557E+02   0.149E-01 0.209E-02 -.321E-01
   0.303E+00 0.570E+00 0.234E+04   -.342E+00 -.513E+00 -.234E+04   0.249E-01 -.480E-01 -.120E+01   0.267E-01 -.345E-01 0.448E-01
   0.231E+00 -.163E+00 0.234E+04   -.228E+00 0.151E+00 -.234E+04   -.144E-01 -.242E-01 -.110E+01   -.348E-01 -.596E-02 0.578E-01
   -.131E+00 0.428E+00 0.234E+04   0.854E-01 -.468E+00 -.234E+04   0.231E-01 -.381E-02 -.114E+01   0.234E-02 0.305E-01 0.401E-01
   0.201E+00 0.211E+00 0.234E+04   -.192E+00 -.209E+00 -.234E+04   0.540E-02 0.141E-01 -.116E+01   -.524E-02 0.400E-01 0.507E-01
   -.379E+00 0.279E+00 0.234E+04   0.348E+00 -.228E+00 -.234E+04   0.161E-01 0.172E-01 -.125E+01   -.135E-01 -.254E-01 0.387E-01
   0.150E+00 -.442E+00 0.234E+04   -.157E+00 0.429E+00 -.234E+04   0.164E-01 0.142E-01 -.121E+01   0.287E-01 0.261E-02 0.607E-01
   -.348E+00 -.235E+00 0.234E+04   0.451E+00 0.753E-01 -.234E+04   -.565E-01 0.897E-01 -.108E+01   -.558E-01 0.312E-01 0.434E-01
   -.442E+00 0.745E-01 0.234E+04   0.405E+00 0.353E-01 -.234E+04   -.610E-02 -.422E-01 -.124E+01   0.405E-01 -.331E-01 0.402E-01
   0.382E+00 -.716E+00 0.234E+04   -.366E+00 0.722E+00 -.234E+04   -.137E-01 0.142E-02 -.101E+01   0.113E-01 -.542E-02 0.697E-01
   0.345E+00 -.626E+01 0.858E+03   -.421E+00 0.620E+01 -.858E+03   0.962E-01 0.114E+00 -.512E+00   -.528E-01 0.121E-01 0.826E-01
   -.567E+01 0.208E+01 0.858E+03   0.558E+01 -.210E+01 -.858E+03   0.205E+00 0.115E-01 -.135E+00   -.171E-01 0.209E-01 0.813E-01
   0.263E+01 -.169E+01 0.853E+03   -.259E+01 0.163E+01 -.853E+03   -.578E-01 0.788E-01 -.142E+00   0.540E-01 -.615E-01 0.605E-01
   -.587E+00 0.363E+01 0.859E+03   0.557E+00 -.360E+01 -.859E+03   0.514E-01 -.514E-01 -.306E+00   -.888E-03 -.526E-01 0.544E-01
   0.164E+01 -.102E+01 0.861E+03   -.166E+01 0.103E+01 -.860E+03   0.104E-01 -.197E-01 -.320E+00   -.987E-02 0.229E-01 0.819E-01
   0.203E+01 0.562E+01 0.859E+03   -.206E+01 -.568E+01 -.859E+03   -.120E-01 -.615E-01 -.207E+00   0.102E-01 0.293E-01 0.630E-01
   -.346E+01 0.321E+01 0.861E+03   0.353E+01 -.314E+01 -.861E+03   0.471E-01 -.142E+00 -.347E+00   -.477E-01 0.420E-01 0.767E-01
   -.243E+01 -.669E+00 0.856E+03   0.241E+01 0.766E+00 -.856E+03   0.709E-01 -.367E-01 -.268E+00   0.394E-01 -.453E-01 0.695E-01
   0.406E+01 -.309E+01 0.860E+03   -.404E+01 0.321E+01 -.860E+03   -.353E-01 -.639E-01 -.318E+00   0.236E-01 0.328E-01 0.807E-01
   -.292E+01 0.278E+01 -.628E+03   0.280E+01 -.293E+01 0.627E+03   0.533E-01 0.162E+00 0.524E+00   0.942E-02 0.328E-01 -.338E-01
   0.913E+00 0.447E+01 -.637E+03   -.812E+00 -.441E+01 0.637E+03   -.243E+00 -.155E+00 0.299E+00   0.244E-02 0.227E-01 0.632E-01
   -.390E+01 0.432E+01 -.665E+03   0.368E+01 -.406E+01 0.665E+03   0.213E+00 -.239E+00 -.337E-01   -.104E-01 -.995E-02 0.235E-01
   -.225E+01 0.847E+01 -.642E+03   0.176E+01 -.768E+01 0.642E+03   0.490E+00 -.649E+00 -.414E+00   0.175E-01 -.850E-01 -.539E-01
   0.104E+02 0.176E+00 -.623E+03   -.965E+01 -.357E+00 0.623E+03   -.682E+00 0.127E+00 0.751E-01   -.401E-01 0.408E-01 -.124E-01
   -.370E+01 -.106E+02 -.611E+03   0.364E+01 0.105E+02 0.611E+03   0.158E-01 0.187E+00 0.690E+00   -.265E-01 0.245E-01 -.661E-01
   0.383E+00 -.390E+01 -.644E+03   -.391E+00 0.402E+01 0.644E+03   -.116E+00 0.237E-01 0.153E+00   0.539E-01 -.663E-01 0.423E-01
   0.128E+01 -.258E+01 -.633E+03   -.131E+01 0.262E+01 0.633E+03   -.166E-01 -.544E-01 0.199E+00   0.367E-01 -.363E-01 0.263E-01
   0.814E+00 -.348E+01 -.622E+03   -.841E+00 0.315E+01 0.621E+03   0.629E-01 0.380E+00 0.269E+00   -.830E-02 0.511E-01 0.372E-02
   -.198E+02 -.497E+01 -.215E+04   0.203E+02 0.527E+01 0.215E+04   -.525E+00 -.350E+00 0.135E+01   0.527E-01 0.310E-01 -.642E-01
   0.200E+02 0.351E+02 -.216E+04   -.203E+02 -.356E+02 0.216E+04   0.283E+00 0.546E+00 0.132E+01   -.228E-02 -.131E-01 -.270E-01
   0.283E+02 -.125E+02 -.212E+04   -.288E+02 0.124E+02 0.212E+04   0.447E+00 0.280E+00 0.117E+01   0.222E-01 -.424E-01 -.965E-01
   -.715E+01 0.585E+01 -.218E+04   0.702E+01 -.605E+01 0.218E+04   0.119E+00 0.244E+00 0.951E+00   -.238E-01 -.292E-01 -.686E-01
   0.197E+02 0.135E+02 -.217E+04   -.197E+02 -.140E+02 0.217E+04   0.372E-01 0.482E+00 0.883E+00   0.239E-02 -.877E-02 -.509E-01
   0.628E+02 0.541E+02 -.197E+04   -.656E+02 -.523E+02 0.197E+04   0.263E+01 -.155E+01 -.349E+01   -.207E-01 -.318E-01 -.478E-01
   -.465E+02 -.416E+02 -.204E+04   0.478E+02 0.438E+02 0.204E+04   -.145E+01 -.247E+01 0.256E+01   -.259E-02 0.945E-01 -.124E+00
   -.667E+02 0.855E+02 -.205E+04   0.669E+02 -.860E+02 0.206E+04   -.464E+00 0.597E+00 -.919E+00   0.107E-01 -.547E-01 -.948E-01
   0.138E+02 -.623E+02 -.212E+04   -.137E+02 0.635E+02 0.211E+04   -.645E-01 -.109E+01 0.132E+01   0.153E-01 0.169E-02 -.707E-01
 -----------------------------------------------------------------------------------------------
   -.821E+01 0.264E+02 0.736E+02   0.107E-13 -.426E-13 -.136E-11   0.821E+01 -.262E+02 -.739E+02   0.841E-01 -.520E-01 0.417E+00
 
 
 POSITION                                       TOTAL-FORCE (eV/Angst)
 -----------------------------------------------------------------------------------
      5.09544      0.61986     10.36124         0.081093     -0.798491      0.224914
      6.63752     -0.51145     10.20820         0.404137      0.402809      0.127237
      4.95022      1.07148     11.42941         0.187789     -0.082804     -0.247183
      7.20031     -1.38846      1.62732         0.010253     -0.029218      0.142613
      2.33567      1.42014      1.62732        -0.048214     -0.044464      0.166039
      4.76799      0.01584      1.62732        -0.021905     -0.015709      0.136633
      7.20031      1.42015      1.62732         0.006621      0.053289      0.076904
      2.33567      4.22875      1.62732        -0.030781      0.039864      0.136969
      4.76799      2.82445      1.62732         0.035386      0.001422      0.163128
      2.33567      7.03734      1.62732        -0.010827     -0.041911      0.040876
      4.76799      5.63304      1.62732        -0.003775      0.031515      0.133901
      7.20031      4.22874      1.62732         0.011109     -0.001410      0.051774
      1.52490      0.01584      3.92052        -0.034159      0.061752     -0.139938
      3.95722     -1.38846      3.92052         0.092921      0.006722      0.022500
      6.38953     -2.79276      3.92052         0.031595     -0.037208      0.070009
      1.52490      2.82445      3.92052         0.018366     -0.076872     -0.044642
      3.95722      1.42015      3.92052        -0.016564      0.008923     -0.032297
      6.38953      0.01585      3.92052        -0.030844     -0.091598      0.059686
      1.52490      5.63305      3.92052         0.070489     -0.034117     -0.215058
      3.95722      4.22874      3.92052         0.091421      0.011220      0.020734
      6.38953      2.82445      3.92052         0.003261      0.084938     -0.206858
      0.72754      4.19572      6.19076        -0.051410      0.040702      0.096330
      3.18059      5.62981      6.20571        -0.142576     -0.079354     -0.126232
      5.58601     -1.39251      6.26072        -0.025737      0.015957     -0.116340
      0.69095      1.43400      6.22432         0.016764      0.054892      0.075526
      3.16176     -0.00333      6.19727        -0.020448     -0.016099      0.035849
      0.73018      7.02339      6.15993        -0.071197      0.045687      0.208143
      5.59663      4.21304      6.22344        -0.072211      0.072588     -0.217857
      3.15830      2.81340      6.20563        -0.011266     -0.046718     -0.070877
      5.58021      1.38984      6.19574         0.025995      0.100821     -0.026758
      2.37351      4.22053      8.47637         0.015782     -0.017965     -0.085020
      4.78133      5.61109      8.53112        -0.073272     -0.029678     -0.251724
      2.32128      1.36988      8.46459        -0.007087      0.160032     -0.010134
      7.21488      4.19080      8.52090        -0.036486      0.006671     -0.077255
      2.33903      6.99182      8.50286        -0.008737      0.022073     -0.089941
      4.65714      0.04292      8.59557        -0.117203      0.187825     -0.112410
      7.26367      1.45156      8.40804        -0.063119     -0.160866      0.244119
      7.27456     -1.48138      8.63750        -0.249816      0.048430      0.100865
      4.78305      2.83930      8.50237         0.044652      0.146352     -0.264227
 -----------------------------------------------------------------------------------
    total drift:                                0.077337      0.115574      0.032484
  FORCES: max atom, RMS     0.833517    0.214060
  Number: max atom                 1
  FORCE total and by dimension    1.336804    0.798491


--------------------------------------------------------------------------------------------------------



  FREE ENERGIE OF THE ION-ELECTRON SYSTEM (eV)
  ---------------------------------------------------
  free  energy   TOTEN  =      -230.70298469 eV

  energy  without entropy=     -230.68870686  energy(sigma->0) =     -230.69822541
 
 d Force = 0.5382922E-01[ 0.499E-01, 0.577E-01]  d Energy = 0.5399296E-01-0.164E-03
 d Force =-0.2333414E+02[-0.232E+02,-0.235E+02]  d Ewald  =-0.2333457E+02 0.433E-03


--------------------------------------------------------------------------------------------------------


    POTLOK:  cpu time    0.1991: real time    0.2705


--------------------------------------------------------------------------------------------------------


 stress matrix after NEB project (eV)
    -37.16842      1.09765      1.59199
      1.09765    -39.95571     -0.75226
      1.59199     -0.75226     -5.59906
  FORCES: max atom, RMS     0.833517    0.214060
  FORCE total and by dimension    1.336804    0.798491
  Stress total and by dimension   54.935503   39.955707
 Quasi-Newton relaxation of ions (Broydens 2nd method)
  g(Force)  = 0.345E-01   g(Stress)= 0.000E+00

 retain information from N=  3 steps
 eigenvalues of (default step * inverse Hessian matrix)
  average eigenvalue of G=   3.6633
 eigenvalue spectrum of G is  4.6129  4.6129  1.7642
  RESET_HESSIAN           0


--------------------------------------------------------------------------------------------------------


    WAVPRE:  cpu time    0.0810: real time    0.2164
    FEWALD:  cpu time    0.0010: real time    0.0010

 real space projection operators:
  total allocation   :      13546.34 KBytes
  max/ min on nodes  :       6781.12       6765.22

    ORTHCH:  cpu time    1.5993: real time    1.6122
     LOOP+:  cpu time  112.2372: real time  113.5277


--------------------------------------- Iteration      6(   1)  ---------------------------------------


