metal                                   
           1
     7.296955   -4.212899    0.000000
     0.000000    8.425798    0.000000
     0.000000    0.000000   21.879635
   C    O    Pt
   1   2  36
Direct configuration=     1
   0.70215071  0.43524172  0.47260514
   0.90340279  0.38708019  0.46513041
   0.67401416  0.46209760  0.52249367
   0.98675500  0.32859100  0.07437600
   0.32008800  0.32859100  0.07437600
   0.65342200  0.32859100  0.07437600
   0.98675500  0.66192500  0.07437600
   0.32008800  0.66192500  0.07437600
   0.65342200  0.66192500  0.07437600
   0.32008800  0.99525800  0.07437600
   0.65342200  0.99525800  0.07437600
   0.98675500  0.99525800  0.07437600
   0.20897700  0.10636900  0.17918600
   0.54231100  0.10636900  0.17918600
   0.87564400  0.10636900  0.17918600
   0.20897700  0.43970300  0.17918600
   0.54231100  0.43970300  0.17918600
   0.87564400  0.43970300  0.17918600
   0.20897700  0.77303600  0.17918600
   0.54231100  0.77303600  0.17918600
   0.87564400  0.77303600  0.17918600
   0.10174505  0.55269776  0.28259416
   0.43333207  0.88589002  0.28686716
   0.76560915  0.21906254  0.28737503
   0.10000088  0.21716044  0.28390653
   0.43064429  0.22113350  0.28314792
   0.10062058  0.87982400  0.27827277
   0.76896950  0.87772006  0.28798747
   0.43342442  0.54739821  0.28745211
   0.76448381  0.54824495  0.28458600
   0.32777012  0.66563230  0.38625815
   0.65518281  0.99422965  0.39086779
   0.32147595  0.32373916  0.38527300
   0.98548025  0.99002514  0.38996470
   0.32270683  0.98685685  0.38885120
   0.64098703  0.32270989  0.39446727
   0.99549278  0.67172654  0.38247370
   0.99736407  0.32435193  0.39534647
   0.65233665  0.66230367  0.38748244
Direct configuration=     2
   0.70097907  0.43262902  0.47266108
   0.90453260  0.38846119  0.46567159
   0.67495789  0.46330660  0.52273454
   0.98675500  0.32859100  0.07437600
   0.32008800  0.32859100  0.07437600
   0.65342200  0.32859100  0.07437600
   0.98675500  0.66192500  0.07437600
   0.32008800  0.66192500  0.07437600
   0.65342200  0.66192500  0.07437600
   0.32008800  0.99525800  0.07437600
   0.65342200  0.99525800  0.07437600
   0.98675500  0.99525800  0.07437600
   0.20897700  0.10636900  0.17918600
   0.54231100  0.10636900  0.17918600
   0.87564400  0.10636900  0.17918600
   0.20897700  0.43970300  0.17918600
   0.54231100  0.43970300  0.17918600
   0.87564400  0.43970300  0.17918600
   0.20897700  0.77303600  0.17918600
   0.54231100  0.77303600  0.17918600
   0.87564400  0.77303600  0.17918600
   0.10111864  0.55099757  0.28262136
   0.43449775  0.88637896  0.28587640
   0.76564037  0.21862578  0.28707237
   0.09816253  0.21712360  0.28403980
   0.43159403  0.21955099  0.28312564
   0.10057347  0.88102106  0.27915429
   0.76858651  0.87961922  0.28696833
   0.43320208  0.54851045  0.28619541
   0.76451262  0.54760381  0.28413702
   0.32685849  0.66493052  0.38672785
   0.65540055  0.99424919  0.39074060
   0.32026542  0.32267191  0.38585567
   0.98661343  0.99065785  0.38986970
   0.32200798  0.98787836  0.38885594
   0.64024925  0.32286585  0.39398685
   0.99562132  0.67156764  0.38289049
   0.99786368  0.32382010  0.39495661
   0.65329664  0.66274802  0.38806515
Direct configuration=     3
   0.69923585  0.42892619  0.47378124
   0.90655724  0.39071484  0.46616528
   0.67683332  0.46440509  0.52198222
   0.98675500  0.32859100  0.07437600
   0.32008800  0.32859100  0.07437600
   0.65342200  0.32859100  0.07437600
   0.98675500  0.66192500  0.07437600
   0.32008800  0.66192500  0.07437600
   0.65342200  0.66192500  0.07437600
   0.32008800  0.99525800  0.07437600
   0.65342200  0.99525800  0.07437600
   0.98675500  0.99525800  0.07437600
   0.20897700  0.10636900  0.17918600
   0.54231100  0.10636900  0.17918600
   0.87564400  0.10636900  0.17918600
   0.20897700  0.43970300  0.17918600
   0.54231100  0.43970300  0.17918600
   0.87564400  0.43970300  0.17918600
   0.20897700  0.77303600  0.17918600
   0.54231100  0.77303600  0.17918600
   0.87564400  0.77303600  0.17918600
   0.10040008  0.54914351  0.28273266
   0.43558464  0.88654927  0.28468390
   0.76562554  0.21800689  0.28662740
   0.09613850  0.21722914  0.28423485
   0.43260716  0.21772490  0.28315462
   0.10041598  0.88244789  0.28035028
   0.76785376  0.88180063  0.28568239
   0.43298410  0.54963157  0.28477491
   0.76457832  0.54720037  0.28360808
   0.32589663  0.66414367  0.38717993
   0.65548046  0.99403888  0.39043837
   0.31902366  0.32179114  0.38644963
   0.98789512  0.99132970  0.38968954
   0.32119010  0.98910239  0.38878512
   0.63923249  0.32328112  0.39335376
   0.99563607  0.67103275  0.38351816
   0.99783027  0.32326090  0.39473576
   0.65444694  0.66354141  0.38854589
Direct configuration=     4
   0.69858486  0.42554634  0.47329705
   0.90801263  0.39224324  0.46642242
   0.67752477  0.46586194  0.52260216
   0.98675500  0.32859100  0.07437600
   0.32008800  0.32859100  0.07437600
   0.65342200  0.32859100  0.07437600
   0.98675500  0.66192500  0.07437600
   0.32008800  0.66192500  0.07437600
   0.65342200  0.66192500  0.07437600
   0.32008800  0.99525800  0.07437600
   0.65342200  0.99525800  0.07437600
   0.98675500  0.99525800  0.07437600
   0.20897700  0.10636900  0.17918600
   0.54231100  0.10636900  0.17918600
   0.87564400  0.10636900  0.17918600
   0.20897700  0.43970300  0.17918600
   0.54231100  0.43970300  0.17918600
   0.87564400  0.43970300  0.17918600
   0.20897700  0.77303600  0.17918600
   0.54231100  0.77303600  0.17918600
   0.87564400  0.77303600  0.17918600
   0.09997841  0.54813313  0.28281909
   0.43608260  0.88653191  0.28399954
   0.76560253  0.21765442  0.28635440
   0.09503768  0.21733002  0.28436092
   0.43315115  0.21670719  0.28318723
   0.10028577  0.88324305  0.28106376
   0.76738823  0.88301220  0.28492240
   0.43286432  0.55021489  0.28397673
   0.76463508  0.54706371  0.28331043
   0.32538688  0.66370628  0.38740735
   0.65547063  0.99386203  0.39021687
   0.31834692  0.32140238  0.38677037
   0.98858631  0.99168236  0.38956777
   0.32073264  0.98978607  0.38872360
   0.63869466  0.32371312  0.39305728
   0.99560246  0.67062094  0.38391514
   0.99765297  0.32292659  0.39466193
   0.65511349  0.66409011  0.38874761
Direct configuration=     5
   0.69829665  0.42271494  0.47355617
   0.90962916  0.39411468  0.46656187
   0.67839566  0.46636489  0.52237684
   0.98675500  0.32859100  0.07437600
   0.32008800  0.32859100  0.07437600
   0.65342200  0.32859100  0.07437600
   0.98675500  0.66192500  0.07437600
   0.32008800  0.66192500  0.07437600
   0.65342200  0.66192500  0.07437600
   0.32008800  0.99525800  0.07437600
   0.65342200  0.99525800  0.07437600
   0.98675500  0.99525800  0.07437600
   0.20897700  0.10636900  0.17918600
   0.54231100  0.10636900  0.17918600
   0.87564400  0.10636900  0.17918600
   0.20897700  0.43970300  0.17918600
   0.54231100  0.43970300  0.17918600
   0.87564400  0.43970300  0.17918600
   0.20897700  0.77303600  0.17918600
   0.54231100  0.77303600  0.17918600
   0.87564400  0.77303600  0.17918600
   0.09970507  0.54781385  0.28294641
   0.43587860  0.88610295  0.28362951
   0.76552664  0.21749646  0.28614368
   0.09469038  0.21753619  0.28447998
   0.43329899  0.21625443  0.28324379
   0.10006609  0.88359052  0.28153720
   0.76698151  0.88350789  0.28443985
   0.43282427  0.55031481  0.28362597
   0.76473167  0.54731581  0.28317376
   0.32527387  0.66354262  0.38740891
   0.65525006  0.99356651  0.38991158
   0.31811609  0.32163911  0.38687093
   0.98875265  0.99175335  0.38944428
   0.32054824  0.99008552  0.38861967
   0.63823111  0.32420947  0.39285727
   0.99543785  0.66999437  0.38428627
   0.99693052  0.32265051  0.39477336
   0.65548568  0.66471963  0.38859741
