       N       E                     dE             d eps       ncg     rms          rms(c)
DAV:   1     0.242647664820E+04    0.24265E+04   -0.15958E+05  1824   0.129E+03
DAV:   2    -0.643111625704E+02   -0.24908E+04   -0.23128E+04  2128   0.286E+02
DAV:   3    -0.240575747869E+03   -0.17626E+03   -0.15989E+03  2152   0.692E+01
DAV:   4    -0.248224581318E+03   -0.76488E+01   -0.73777E+01  2328   0.137E+01
DAV:   5    -0.248457900063E+03   -0.23332E+00   -0.23146E+00  2400   0.246E+00    0.275E+01
RMM:   6    -0.247732010490E+03    0.72589E+00   -0.56034E+01  1828   0.150E+01    0.311E+01
RMM:   7    -0.247862869386E+03   -0.13086E+00   -0.32716E+01  1831   0.903E+00    0.231E+01
RMM:   8    -0.243765873044E+03    0.40970E+01   -0.11346E+01  1826   0.503E+00    0.234E+01
RMM:   9    -0.231894408545E+03    0.11871E+02   -0.69731E+00  1831   0.437E+00    0.918E+00
RMM:  10    -0.230499181454E+03    0.13952E+01   -0.20587E+00  1831   0.237E+00    0.497E+00
RMM:  11    -0.230258394960E+03    0.24079E+00   -0.51080E-01  1831   0.110E+00    0.358E+00
RMM:  12    -0.230070690608E+03    0.18770E+00   -0.23558E-01  1844   0.775E-01    0.169E+00
RMM:  13    -0.230074108685E+03   -0.34181E-02   -0.98553E-02  1834   0.519E-01    0.185E+00
RMM:  14    -0.230044496518E+03    0.29612E-01   -0.84268E-02  1831   0.503E-01    0.106E+00
RMM:  15    -0.230035810588E+03    0.86859E-02   -0.30676E-02  1831   0.300E-01    0.737E-01
RMM:  16    -0.230026914948E+03    0.88956E-02   -0.74262E-03  1827   0.150E-01    0.199E-01
RMM:  17    -0.230026657123E+03    0.25782E-03   -0.15453E-03  1816   0.654E-02    0.138E-01
RMM:  18    -0.230026901821E+03   -0.24470E-03   -0.73386E-04  1693   0.451E-02    0.112E-01
RMM:  19    -0.230026888471E+03    0.13351E-04   -0.29150E-04  1176   0.304E-02
   1 F= -.23002689E+03 E0= -.23002288E+03  d E =-.230027E+03
       N       E                     dE             d eps       ncg     rms          rms(c)
DAV:   1    -0.230309657084E+03   -0.28276E+00   -0.42792E+01  1856   0.115E+01    0.709E-01
RMM:   2    -0.230448572577E+03   -0.13892E+00   -0.62670E-01  1832   0.176E+00    0.231E+00
RMM:   3    -0.230377505743E+03    0.71067E-01   -0.55357E-02  1848   0.408E-01    0.105E+00
RMM:   4    -0.230362505427E+03    0.15000E-01   -0.14365E-02  1835   0.202E-01    0.491E-01
RMM:   5    -0.230359677265E+03    0.28282E-02   -0.33118E-03  1829   0.944E-02    0.334E-01
RMM:   6    -0.230359250971E+03    0.42629E-03   -0.42869E-03  1828   0.107E-01    0.321E-01
RMM:   7    -0.230358928567E+03    0.32240E-03   -0.64164E-03  1830   0.135E-01    0.228E-01
RMM:   8    -0.230358165383E+03    0.76318E-03   -0.15714E-03  1816   0.677E-02    0.933E-02
RMM:   9    -0.230358056483E+03    0.10890E-03   -0.25574E-04  1058   0.295E-02    0.569E-02
RMM:  10    -0.230358037423E+03    0.19059E-04   -0.22271E-04   975   0.264E-02
   2 F= -.23035804E+03 E0= -.23035219E+03  d E =-.331149E+00
       N       E                     dE             d eps       ncg     rms          rms(c)
DAV:   1    -0.230456198828E+03   -0.98142E-01   -0.67986E+01  1824   0.152E+01    0.919E-01
RMM:   2    -0.230634398931E+03   -0.17820E+00   -0.12243E+00  1843   0.235E+00    0.211E+00
RMM:   3    -0.230583776953E+03    0.50622E-01   -0.78499E-02  1864   0.496E-01    0.129E+00
RMM:   4    -0.230562565415E+03    0.21212E-01   -0.19471E-02  1837   0.238E-01    0.697E-01
RMM:   5    -0.230557185502E+03    0.53799E-02   -0.60884E-03  1834   0.131E-01    0.487E-01
RMM:   6    -0.230558326387E+03   -0.11409E-02   -0.13346E-02  1830   0.191E-01    0.599E-01
RMM:   7    -0.230553773314E+03    0.45531E-02   -0.97309E-03  1832   0.168E-01    0.248E-01
RMM:   8    -0.230552945823E+03    0.82749E-03   -0.24062E-03  1828   0.837E-02    0.143E-01
RMM:   9    -0.230552680212E+03    0.26561E-03   -0.51126E-04  1490   0.400E-02    0.824E-02
RMM:  10    -0.230552563013E+03    0.11720E-03   -0.21040E-04  1010   0.265E-02    0.428E-02
RMM:  11    -0.230552542323E+03    0.20690E-04   -0.14728E-04   968   0.221E-02
   3 F= -.23055254E+03 E0= -.23054447E+03  d E =-.194505E+00
       N       E                     dE             d eps       ncg     rms          rms(c)
DAV:   1    -0.230629040094E+03   -0.76477E-01   -0.84315E+00  1840   0.540E+00    0.520E-01
RMM:   2    -0.230653769772E+03   -0.24730E-01   -0.23350E-01  1842   0.898E-01    0.721E-01
RMM:   3    -0.230650723364E+03    0.30464E-02   -0.11329E-02  1852   0.184E-01    0.660E-01
RMM:   4    -0.230645415360E+03    0.53080E-02   -0.48553E-03  1836   0.115E-01    0.383E-01
RMM:   5    -0.230644164655E+03    0.12507E-02   -0.50588E-03  1832   0.117E-01    0.320E-01
RMM:   6    -0.230643684101E+03    0.48055E-03   -0.35804E-03  1827   0.997E-02    0.275E-01
RMM:   7    -0.230642663501E+03    0.10206E-02   -0.15119E-03  1820   0.649E-02    0.118E-01
RMM:   8    -0.230642494326E+03    0.16917E-03   -0.36575E-04  1260   0.335E-02    0.721E-02
RMM:   9    -0.230642437637E+03    0.56689E-04   -0.10890E-04   972   0.203E-02
   4 F= -.23064244E+03 E0= -.23063362E+03  d E =-.898953E-01
