 vasp.5.4.4 16052018 (build Apr 24 2014 20:13:14) complex standard
 Contain Constrained Minimization Technique (TS), Periodic NBO, VASPsol, libbeef, VASP2WANNIER90, Constrained Cell Relaxation
 executed on Center for Computational Chemistry by phu@node12 date 2025.09.27 17:21:29
 running on    8 total cores
 distrk:  each k-point on    8 cores,    1 groups
 distr:  one band on NCORES_PER_BAND=   2 cores,    4 groups


--------------------------------------------------------------------------------------------------------


 INCAR:
 POTCAR:   PAW_PBE C 08Apr2002                    
 POTCAR:   PAW_PBE O 08Apr2002                    
 POTCAR:    PAW_PBE Pt 04Feb2005                  
 POTCAR:   PAW_PBE C 08Apr2002                    
   VRHFIN =C: s2p2                                                              
   LEXCH  = PE                                                                  
   EATOM  =   147.1560 eV,   10.8157 Ry                                         
                                                                                
   TITEL  = PAW_PBE C 08Apr2002                                                 
   LULTRA =        F    use ultrasoft PP ?                                      
   IUNSCR =        0    unscreen: 0-lin 1-nonlin 2-no                           
   RPACOR =     .000    partial core radius                                     
   POMASS =   12.011; ZVAL   =    4.000    mass and valenz                      
   RCORE  =    1.500    outmost cutoff radius                                   
   RWIGS  =    1.630; RWIGS  =     .863    wigner-seitz radius (au A)           
   ENMAX  =  400.000; ENMIN  =  300.000 eV                                      
   ICORE  =        2    local potential                                         
   LCOR   =        T    correct aug charges                                     
   LPAW   =        T    paw PP                                                  
   EAUG   =  644.873                                                            
   DEXC   =     .000                                                            
   RMAX   =    2.266    core radius for proj-oper                               
   RAUG   =    1.300    factor for augmentation sphere                          
   RDEP   =    1.501    radius for radial grids                                 
   RDEPT  =    1.300    core radius for aug-charge                              
   QCUT   =   -5.516; QGAM   =   11.032    optimization parameters              
                                                                                
   Description                                                                  
     l     E      TYP  RCUT    TYP  RCUT                                        
     0   .000     23  1.200                                                     
     0   .000     23  1.200                                                     
     1   .000     23  1.500                                                     
     1  2.500     23  1.500                                                     
     2   .000      7  1.500                                                     
  local pseudopotential read in
  atomic valenz-charges read in
  non local Contribution for L=           0  read in
    real space projection operators read in
  non local Contribution for L=           0  read in
    real space projection operators read in
  non local Contribution for L=           1  read in
    real space projection operators read in
  non local Contribution for L=           1  read in
    real space projection operators read in
    PAW grid and wavefunctions read in
 
   number of l-projection  operators is LMAX  =           4
   number of lm-projection operators is LMMAX =           8
 
 POTCAR:   PAW_PBE O 08Apr2002                    
   VRHFIN =O: s2p4                                                              
   LEXCH  = PE                                                                  
   EATOM  =   432.3788 eV,   31.7789 Ry                                         
                                                                                
   TITEL  = PAW_PBE O 08Apr2002                                                 
   LULTRA =        F    use ultrasoft PP ?                                      
   IUNSCR =        0    unscreen: 0-lin 1-nonlin 2-no                           
   RPACOR =     .000    partial core radius                                     
   POMASS =   16.000; ZVAL   =    6.000    mass and valenz                      
   RCORE  =    1.520    outmost cutoff radius                                   
   RWIGS  =    1.550; RWIGS  =     .820    wigner-seitz radius (au A)           
   ENMAX  =  400.000; ENMIN  =  300.000 eV                                      
   ICORE  =        2    local potential                                         
   LCOR   =        T    correct aug charges                                     
   LPAW   =        T    paw PP                                                  
   EAUG   =  605.392                                                            
   DEXC   =     .000                                                            
   RMAX   =    2.264    core radius for proj-oper                               
   RAUG   =    1.300    factor for augmentation sphere                          
   RDEP   =    1.550    radius for radial grids                                 
   QCUT   =   -5.520; QGAM   =   11.041    optimization parameters              
                                                                                
   Description                                                                  
     l     E      TYP  RCUT    TYP  RCUT                                        
     0   .000     23  1.200                                                     
     0  -.700     23  1.200                                                     
     1   .000     23  1.520                                                     
     1   .600     23  1.520                                                     
     2   .000      7  1.500                                                     
  local pseudopotential read in
  atomic valenz-charges read in
  non local Contribution for L=           0  read in
    real space projection operators read in
  non local Contribution for L=           0  read in
    real space projection operators read in
  non local Contribution for L=           1  read in
    real space projection operators read in
  non local Contribution for L=           1  read in
    real space projection operators read in
    PAW grid and wavefunctions read in
 
   number of l-projection  operators is LMAX  =           4
   number of lm-projection operators is LMMAX =           8
 
 POTCAR:    PAW_PBE Pt 04Feb2005                  
   VRHFIN =Pt: s1d9                                                             
   LEXCH  = PE                                                                  
   EATOM  =   729.1182 eV,   53.5887 Ry                                         
                                                                                
   TITEL  = PAW_PBE Pt 04Feb2005                                                
   LULTRA =        F    use ultrasoft PP ?                                      
   IUNSCR =        1    unscreen: 0-lin 1-nonlin 2-no                           
   RPACOR =    2.330    partial core radius                                     
   POMASS =  195.080; ZVAL   =   10.000    mass and valenz                      
   RCORE  =    2.600    outmost cutoff radius                                   
   RWIGS  =    2.750; RWIGS  =    1.455    wigner-seitz radius (au A)           
   ENMAX  =  230.283; ENMIN  =  172.712 eV                                      
   ICORE  =        3    local potential                                         
   LCOR   =        T    correct aug charges                                     
   LPAW   =        T    paw PP                                                  
   EAUG   =  358.966                                                            
   DEXC   =     .000                                                            
   RMAX   =    3.038    core radius for proj-oper                               
   RAUG   =    1.300    factor for augmentation sphere                          
   RDEP   =    2.761    radius for radial grids                                 
   QCUT   =   -4.114; QGAM   =    8.228    optimization parameters              
                                                                                
   Description                                                                  
     l     E      TYP  RCUT    TYP  RCUT                                        
     2   .000     23  2.500                                                     
     2   .000     23  2.500                                                     
     0   .000     23  2.500                                                     
     0   .000     23  2.500                                                     
     1  -.200     23  2.600                                                     
     1  1.500     23  2.600                                                     
     3   .000     23  2.500                                                     
  local pseudopotential read in
  partial core-charges read in
  atomic valenz-charges read in
  non local Contribution for L=           2  read in
    real space projection operators read in
  non local Contribution for L=           2  read in
    real space projection operators read in
  non local Contribution for L=           0  read in
    real space projection operators read in
  non local Contribution for L=           0  read in
    real space projection operators read in
  non local Contribution for L=           1  read in
    real space projection operators read in
  non local Contribution for L=           1  read in
    real space projection operators read in
    PAW grid and wavefunctions read in
 
   number of l-projection  operators is LMAX  =           6
   number of lm-projection operators is LMMAX =          18
 
 Optimization of the real space projectors (new method)

 maximal supplied QI-value         = 25.13
 optimisation between [QCUT,QGAM] = [ 10.81, 21.61] = [ 32.71,130.83] Ry 
 Optimized for a Real-space Cutoff    1.23 Angstroem

   l    n(q)    QCUT    max X(q) W(low)/X(q) W(high)/X(q)  e(spline) 
   0      8    10.807     5.582    0.53E-04    0.84E-04    0.44E-07
   0      8    10.807    69.432    0.35E-03    0.71E-03    0.24E-06
   1      7    10.807     2.780    0.44E-04    0.88E-04    0.89E-07
   1      7    10.807     4.549    0.14E-03    0.28E-03    0.13E-06
 Optimization of the real space projectors (new method)

 maximal supplied QI-value         = 24.76
 optimisation between [QCUT,QGAM] = [ 10.64, 21.54] = [ 31.73,129.89] Ry 
 Optimized for a Real-space Cutoff    1.23 Angstroem

   l    n(q)    QCUT    max X(q) W(low)/X(q) W(high)/X(q)  e(spline) 
   0      8    10.645     4.192    0.69E-04    0.93E-04    0.58E-07
   0      8    10.645     8.473    0.40E-03    0.65E-03    0.17E-06
   1      7    10.645     2.474    0.80E-04    0.12E-03    0.30E-07
   1      7    10.645     3.912    0.24E-03    0.53E-03    0.16E-06
 Optimization of the real space projectors (new method)

 maximal supplied QI-value         = 14.36
 optimisation between [QCUT,QGAM] = [ 10.77, 21.69] = [ 32.49,131.70] Ry 
 Optimized for a Real-space Cutoff    1.46 Angstroem

   l    n(q)    QCUT    max X(q) W(low)/X(q) W(high)/X(q)  e(spline) 
   2      9    10.771     3.903    0.38E-04    0.12E-03    0.82E-07
   2      9    10.771    18.372    0.13E-03    0.32E-03    0.28E-06
   0     10    10.771    13.697    0.11E-04    0.86E-05    0.85E-08
   0     10    10.771    65.529    0.40E-04    0.12E-03    0.14E-06
   1      9    10.771     7.604    0.48E-04    0.31E-04    0.38E-07
   1      9    10.771    12.136    0.35E-03    0.16E-03    0.23E-06
 PAW_PBE C 08Apr2002                    :
 energy of atom  1       EATOM= -147.1560
 kinetic energy error for atom=    0.0116 (will be added to EATOM!!)
 PAW_PBE O 08Apr2002                    :
 energy of atom  2       EATOM= -432.3788
 kinetic energy error for atom=    0.0389 (will be added to EATOM!!)
  PAW_PBE Pt 04Feb2005                  :
 energy of atom  3       EATOM= -729.1182
 kinetic energy error for atom=    0.0051 (will be added to EATOM!!)
 
 
 POSCAR: C    O    Pt                            
  positions in direct lattice
  No initial velocities read in
 exchange correlation table for  LEXCH =        8
   RHO(1)=    0.500       N(1)  =     2000
   RHO(2)=  100.500       N(2)  =     4000

 VTST: version 3.2, (02/03/18)

 CHAIN: initializing optimizer
 
 OPT: Using VASP QUASI-newton optimizer
 CHAIN: Read ICHAIN            0
 
 POSCAR: C    O    Pt                            
  positions in direct lattice
  No initial velocities read in
 


--------------------------------------------------------------------------------------------------------


 ion  position               nearest neighbor table
   1  0.697  0.433  0.473-   3 1.16  36 1.92   2 2.01
   2  0.906  0.383  0.463-  38 1.94   1 2.01  36 2.52
   3  0.669  0.460  0.522-   1 1.16
   4  0.987  0.329  0.074-  15 2.81  16 2.81  12 2.81   5 2.81  11 2.81   6 2.81  18 2.81   8 2.81
                             7 2.81
   5  0.320  0.329  0.074-  13 2.81  10 2.81   4 2.81  12 2.81  16 2.81  17 2.81   8 2.81   9 2.81
                             6 2.81
   6  0.653  0.329  0.074-  14 2.81  18 2.81  11 2.81   4 2.81  17 2.81   7 2.81  10 2.81   9 2.81
                             5 2.81
   7  0.987  0.662  0.074-  18 2.81  21 2.81  19 2.81  12 2.81   8 2.81  10 2.81   9 2.81   6 2.81
                             4 2.81
   8  0.320  0.662  0.074-  16 2.81  19 2.81  10 2.81   7 2.81  20 2.81   4 2.81  11 2.81   5 2.81
                             9 2.81
   9  0.653  0.662  0.074-  17 2.81  20 2.81  21 2.81  11 2.81  12 2.81   7 2.81   6 2.81   5 2.81
                             8 2.81
  10  0.320  0.995  0.074-  13 2.81  19 2.81   5 2.81   8 2.81  12 2.81   7 2.81  14 2.81   6 2.81
                            11 2.81
  11  0.653  0.995  0.074-  14 2.81  20 2.81  15 2.81   9 2.81   6 2.81  12 2.81   4 2.81   8 2.81
                            10 2.81
  12  0.987  0.995  0.074-  15 2.81  21 2.81  13 2.81   7 2.81   4 2.81  10 2.81   5 2.81  11 2.81
                             9 2.81
  13  0.209  0.106  0.179-  27 2.74  10 2.81   5 2.81  12 2.81  19 2.81  15 2.81  21 2.81  16 2.81
                            17 2.81  14 2.81  25 2.87  26 2.89
  14  0.542  0.106  0.179-  23 2.72  11 2.81   6 2.81  20 2.81  15 2.81  10 2.81  18 2.81  19 2.81
                            17 2.81  13 2.81  26 2.89  24 2.90
  15  0.876  0.106  0.179-  28 2.79  12 2.81   4 2.81  11 2.81  21 2.81  13 2.81  14 2.81  20 2.81
                            16 2.81  18 2.81  25 2.87  24 2.88
  16  0.209  0.440  0.179-   8 2.81   4 2.81  19 2.81  18 2.81   5 2.81  15 2.81  20 2.81  13 2.81
                            17 2.81  22 2.82  29 2.83  25 2.86
  17  0.542  0.440  0.179-  29 2.81   9 2.81  20 2.81  21 2.81  18 2.81   6 2.81   5 2.81  14 2.81
                            13 2.81  16 2.81  30 2.83  26 2.90
  18  0.876  0.440  0.179-   7 2.81   6 2.81  21 2.81  19 2.81  16 2.81  17 2.81   4 2.81  14 2.81
                            15 2.81  30 2.81  22 2.81  24 2.89
  19  0.209  0.773  0.179-  27 2.71  23 2.75   8 2.81  10 2.81   7 2.81  16 2.81  13 2.81  18 2.81
                            21 2.81  14 2.81  20 2.81  22 2.83
  20  0.542  0.773  0.179-  23 2.73  28 2.80   9 2.81  11 2.81  17 2.81  14 2.81  15 2.81  21 2.81
                             8 2.81  16 2.81  19 2.81  29 2.81
  21  0.876  0.773  0.179-  27 2.69  28 2.75   7 2.81  12 2.81   9 2.81  18 2.81  15 2.81  19 2.81
                            13 2.81  17 2.81  20 2.81  30 2.81
  22  0.096  0.549  0.285-  31 2.74  37 2.77  30 2.78  27 2.79  25 2.79  24 2.79  18 2.81  16 2.82
                            19 2.83  29 2.83  23 2.85  38 2.91
  23  0.436  0.887  0.280-  14 2.72  20 2.73  19 2.75  24 2.79  26 2.80  31 2.81  35 2.81  29 2.82
                            28 2.83  27 2.84  22 2.85  32 2.85
  24  0.766  0.217  0.289-  32 2.73  25 2.79  23 2.79  22 2.79  36 2.82  30 2.82  26 2.82  38 2.83
                            28 2.84  15 2.88  18 2.89  14 2.90
  25  0.098  0.219  0.287-  33 2.65  34 2.71  38 2.72  24 2.79  22 2.79  26 2.81  29 2.81  28 2.82
                            27 2.86  16 2.86  15 2.87  13 2.87
  26  0.431  0.216  0.289-  33 2.59  35 2.67  36 2.77  23 2.80  29 2.81  25 2.81  24 2.82  30 2.84
                            27 2.85  14 2.89  13 2.89  17 2.90
  27  0.094  0.879  0.279-  21 2.69  19 2.71  13 2.74  30 2.75  28 2.75  22 2.79  37 2.80  23 2.84
                            26 2.85  25 2.86  34 2.88  35 2.89
  28  0.768  0.881  0.282-  21 2.75  27 2.75  34 2.76  30 2.77  39 2.78  15 2.79  20 2.80  29 2.80
                            25 2.82  23 2.83  24 2.84  32 2.86
  29  0.434  0.551  0.284-  31 2.67  33 2.70  39 2.74  28 2.80  17 2.81  30 2.81  26 2.81  25 2.81
                            20 2.81  23 2.82  16 2.83  22 2.83
  30  0.768  0.552  0.285-  39 2.73  27 2.75  28 2.77  37 2.77  22 2.78  29 2.81  18 2.81  21 2.81
                            24 2.82  17 2.83  26 2.84  36 2.91
  31  0.328  0.659  0.383-  29 2.67  22 2.74  39 2.75  32 2.77  33 2.79  23 2.81  35 2.84  38 2.84
                            37 2.88
  32  0.651  0.992  0.389-  24 2.73  35 2.76  31 2.77  34 2.79  36 2.80  39 2.83  38 2.83  23 2.85
                            28 2.86
  33  0.322  0.325  0.382-  26 2.59  25 2.65  29 2.70  38 2.71  36 2.75  31 2.79  35 2.79  39 2.81
                            34 2.81
  34  0.984  0.996  0.386-  38 2.66  25 2.71  37 2.76  28 2.76  32 2.79  33 2.81  39 2.81  35 2.87
                            27 2.88
  35  0.325  0.995  0.386-  26 2.67  36 2.72  32 2.76  37 2.76  33 2.79  23 2.81  31 2.84  34 2.87
                            27 2.89
  36  0.645  0.321  0.393-   1 1.92   2 2.52  35 2.72  33 2.75  26 2.77  32 2.80  39 2.81  24 2.82
                            30 2.91  37 2.95  38 2.99
  37  0.993  0.672  0.386-  34 2.76  35 2.76  30 2.77  22 2.77  39 2.79  27 2.80  31 2.88  36 2.95
                            38 3.02
  38  0.997  0.317  0.392-   2 1.94  34 2.66  33 2.71  25 2.72  24 2.83  32 2.83  31 2.84  22 2.91
                            36 2.99  37 3.02
  39  0.654  0.658  0.386-  30 2.73  29 2.74  31 2.75  28 2.78  37 2.79  33 2.81  36 2.81  34 2.81
                            32 2.83
 

IMPORTANT INFORMATION: All symmetrisations will be switched off!
NOSYMM: (Re-)initialisation of all symmetry stuff for point group C_1.

 
 
 KPOINTS: mesh auto                               

Automatic generation of k-mesh.
Space group operators:
 irot       det(A)        alpha          n_x          n_y          n_z        tau_x        tau_y        tau_z
    1     1.000000     0.000000     1.000000     0.000000     0.000000     0.000000     0.000000     0.000000
 
 Subroutine IBZKPT returns following result:
 ===========================================
 
 Found      4 irreducible k-points:
 
 Following reciprocal coordinates:
            Coordinates               Weight
  0.000000  0.000000  0.000000      1.000000
  0.500000  0.000000  0.000000      1.000000
 -0.000000  0.500000  0.000000      1.000000
  0.500000  0.500000  0.000000      1.000000
 
 Following cartesian coordinates:
            Coordinates               Weight
  0.000000  0.000000  0.000000      1.000000
  0.068522  0.000000  0.000000      1.000000
  0.034261  0.059342  0.000000      1.000000
  0.102783  0.059342  0.000000      1.000000
 


--------------------------------------------------------------------------------------------------------




 Dimension of arrays:
   k-points           NKPTS =      4   k-points in BZ     NKDIM =      4   number of bands    NBANDS=    228
   number of dos      NEDOS =    301   number of ions     NIONS =     39
   non local maximal  LDIM  =      6   non local SUM 2l+1 LMDIM =     18
   total plane-waves  NPLWV = 276480
   max r-space proj   IRMAX =   2756   max aug-charges    IRDMAX=  12646
   dimension x,y,z NGX =    48 NGY =   48 NGZ =  120
   dimension x,y,z NGXF=    96 NGYF=   96 NGZF=  240
   support grid    NGXF=    96 NGYF=   96 NGZF=  240
   ions per type =               1   2  36
   NGX,Y,Z   is equivalent  to a cutoff of   9.47,  9.47,  9.12 a.u.
   NGXF,Y,Z  is equivalent  to a cutoff of  18.94, 18.94, 18.24 a.u.

 SYSTEM =  metal                                   
 POSCAR =  C    O    Pt                            

 Startparameter for this run:
   NWRITE =      2    write-flag & timer
   PREC   = normal    normal or accurate (medium, high low for compatibility)
   ISTART =      0    job   : 0-new  1-cont  2-samecut
   ICHARG =      2    charge: 1-file 2-atom 10-const
   ISPIN  =      1    spin polarized calculation?
   LNONCOLLINEAR =      F non collinear calculations
   LSORBIT =      F    spin-orbit coupling
   INIWAV =      1    electr: 0-lowe 1-rand  2-diag
   LASPH  =      F    aspherical Exc in radial PAW
   METAGGA=      F    non-selfconsistent MetaGGA calc.

 Electronic Relaxation 1
   ENCUT  =  450.0 eV  33.07 Ry    5.75 a.u.  14.57 14.57 37.84*2*pi/ulx,y,z
   ENINI  =  450.0     initial cutoff
   ENAUG  =  644.9 eV  augmentation charge cutoff
   NELM   =     60;   NELMIN=  8; NELMDL= -5     # of ELM steps 
   EDIFF  = 0.1E-03   stopping-criterion for ELM
   LREAL  =      T    real-space projection
   NLSPLINE    = F    spline interpolate recip. space projectors
   LCOMPAT=      F    compatible to vasp.4.4
   GGA_COMPAT  = T    GGA compatible to vasp.4.4-vasp.4.6
   LMAXPAW     = -100 max onsite density
   LMAXMIX     =    2 max onsite mixed and CHGCAR
   VOSKOWN=      0    Vosko Wilk Nusair interpolation
   ROPT   =   -0.00050  -0.00050  -0.00050
 Ionic relaxation
   EDIFFG = -.5E-01   stopping-criterion for IOM
   NSW    =   5000    number of steps for IOM
   NBLOCK =      1;   KBLOCK =   5000    inner block; outer block 
   IBRION =      1    ionic relax: 0-MD 1-quasi-New 2-CG
   NFREE  =      0    steps in history (QN), initial steepest desc. (CG)
   ISIF   =      2    stress and relaxation
   IWAVPR =     11    prediction:  0-non 1-charg 2-wave 3-comb
   ISYM   =      0    0-nonsym 1-usesym 2-fastsym
   LCORR  =      T    Harris-Foulkes like correction to forces

   POTIM  = 0.2000    time-step for ionic-motion
   TEIN   =    0.0    initial temperature
   TEBEG  =    0.0;   TEEND  =   0.0 temperature during run
   SMASS  =  -3.00    Nose mass-parameter (am)
   estimated Nose-frequenzy (Omega)   =  0.10E-29 period in steps =****** mass=  -0.162E-26a.u.
   SCALEE = 1.0000    scale energy and forces
   NPACO  =    256;   APACO  = 16.0  distance and # of slots for P.C.
   PSTRESS=    0.0 pullay stress

  Mass of Ions in am
   POMASS =  12.01 16.00195.08
  Ionic Valenz
   ZVAL   =   4.00  6.00 10.00
  Atomic Wigner-Seitz radii
   RWIGS  =  -1.00 -1.00 -1.00
  virtual crystal weights 
   VCA    =   1.00  1.00  1.00
   NELECT =     376.0000    total number of electrons
   NUPDOWN=      -1.0000    fix difference up-down

 DOS related values:
   EMIN   =  10.00;   EMAX   =-10.00  energy-range for DOS
   EFERMI =   0.00
   ISMEAR =     1;   SIGMA  =   0.20  broadening in eV -4-tet -1-fermi 0-gaus

 Electronic relaxation 2 (details)
   IALGO  =     68    algorithm
   LDIAG  =      T    sub-space diagonalisation (order eigenvalues)
   LSUBROT=      F    optimize rotation matrix (better conditioning)
   TURBO    =      0    0=normal 1=particle mesh
   IRESTART =      0    0=no restart 2=restart with 2 vectors
   NREBOOT  =      0    no. of reboots
   NMIN     =      0    reboot dimension
   EREF     =   0.00    reference energy to select bands
   IMIX   =      4    mixing-type and parameters
     AMIX     =   0.40;   BMIX     =  1.00
     AMIX_MAG =   1.60;   BMIX_MAG =  1.00
     AMIN     =   0.10
     WC   =   100.;   INIMIX=   1;  MIXPRE=   1;  MAXMIX= -45

 Intra band minimization:
   WEIMIN = 0.0010     energy-eigenvalue tresh-hold
   EBREAK =  0.11E-06  absolut break condition
   DEPER  =   0.30     relativ break condition  

   TIME   =   0.40     timestep for ELM

  volume/ion in A,a.u.               =      34.49       232.77
  Fermi-wavevector in a.u.,A,eV,Ry     =   1.070385  2.022734 15.588510  1.145723
  Thomas-Fermi vector in A             =   2.206093
 
 Write flags
   LWAVE        =      F    write WAVECAR
   LDOWNSAMPLE  =      F    k-point downsampling of WAVECAR
   LCHARG       =      F    write CHGCAR
   LVTOT        =      F    write LOCPOT, total local potential
   LVHAR        =      F    write LOCPOT, Hartree potential only
   LELF         =      F    write electronic localiz. function (ELF)
   LORBIT       =      0    0 simple, 1 ext, 2 COOP (PROOUT), +10 PAW based schemes


 Dipole corrections
   LMONO  =      F    monopole corrections only (constant potential shift)
   LDIPOL =      F    correct potential (dipole corrections)
   IDIPOL =      0    1-x, 2-y, 3-z, 4-all directions 
   EPSILON=  1.0000000 bulk dielectric constant

 Exchange correlation treatment:
   GGA     =    --    GGA type
   LEXCH   =     8    internal setting for exchange type
   VOSKOWN=      0    Vosko Wilk Nusair interpolation
   LHFCALC =     F    Hartree Fock is set to
   LHFONE  =     F    Hartree Fock one center treatment
   AEXX    =    0.0000 exact exchange contribution

 Linear response parameters
   LEPSILON=     F    determine dielectric tensor
   LRPA    =     F    only Hartree local field effects (RPA)
   LNABLA  =     F    use nabla operator in PAW spheres
   LVEL    =     F    velocity operator in full k-point grid
   LINTERFAST=   F  fast interpolation
   KINTER  =     0    interpolate to denser k-point grid
   CSHIFT  =0.1000    complex shift for real part using Kramers Kronig
   OMEGAMAX=  -1.0    maximum frequency
   DEG_THRESHOLD= 0.2000000E-02 threshold for treating states as degnerate
   RTIME   =   -0.100 relaxation time in fs
  (WPLASMAI=    0.000 imaginary part of plasma frequency in eV, 0.658/RTIME)
   DFIELD  = 0.0000000 0.0000000 0.0000000 field for delta impulse in time
 
 Orbital magnetization related:
   ORBITALMAG=     F  switch on orbital magnetization
   LCHIMAG   =     F  perturbation theory with respect to B field
   DQ        =  0.001000  dq finite difference perturbation B field
   LLRAUG    =     F  two centre corrections for induced B field



--------------------------------------------------------------------------------------------------------


 quasi-Newton-method for relaxation of ions
   using selective dynamics as specified on POSCAR
 charge density and potential will be updated during run
 non-spin polarized calculation
 RMM-DIIS sequential band-by-band and
  variant of blocked Davidson during initial phase
 perform sub-space diagonalisation
    before iterative eigenvector-optimisation
 modified Broyden-mixing scheme, WC =      100.0
 initial mixing is a Kerker type mixing with AMIX =  0.4000 and BMIX =      1.0000
 Hartree-type preconditioning will be used
 using additional bands           40
 real space projection scheme for non local part
 use partial core corrections
 calculate Harris-corrections to forces 
   (improved forces if not selfconsistent)
 use gradient corrections 
 use of overlap-Matrix (Vanderbilt PP)
 Methfessel and Paxton  Order N= 1 SIGMA  =   0.20


--------------------------------------------------------------------------------------------------------


  energy-cutoff  :      450.00
  volume of cell :     1345.22
      direct lattice vectors                 reciprocal lattice vectors
     7.296955120 -4.212899000  0.000000000     0.137043463  0.000000000  0.000000000
     0.000000000  8.425798000  0.000000000     0.068521732  0.118683121  0.000000000
     0.000000000  0.000000000 21.879635000     0.000000000  0.000000000  0.045704602

  length of vectors
     8.425798004  8.425798000 21.879635000     0.137043463  0.137043463  0.045704602


 
 k-points in units of 2pi/SCALE and weight: mesh auto                               
   0.00000000  0.00000000  0.00000000       0.250
   0.06852173  0.00000000  0.00000000       0.250
   0.03426087  0.05934156  0.00000000       0.250
   0.10278260  0.05934156  0.00000000       0.250
 
 k-points in reciprocal lattice and weights: mesh auto                               
   0.00000000  0.00000000  0.00000000       0.250
   0.50000000  0.00000000  0.00000000       0.250
  -0.00000000  0.50000000  0.00000000       0.250
   0.50000000  0.50000000  0.00000000       0.250
 
 position of ions in fractional coordinates (direct lattice) 
   0.69737846  0.43337520  0.47255708
   0.90610161  0.38346827  0.46328039
   0.66924192  0.46023108  0.52244561
   0.98675500  0.32859100  0.07437600
   0.32008800  0.32859100  0.07437600
   0.65342200  0.32859100  0.07437600
   0.98675500  0.66192500  0.07437600
   0.32008800  0.66192500  0.07437600
   0.65342200  0.66192500  0.07437600
   0.32008800  0.99525800  0.07437600
   0.65342200  0.99525800  0.07437600
   0.98675500  0.99525800  0.07437600
   0.20897700  0.10636900  0.17918600
   0.54231100  0.10636900  0.17918600
   0.87564400  0.10636900  0.17918600
   0.20897700  0.43970300  0.17918600
   0.54231100  0.43970300  0.17918600
   0.87564400  0.43970300  0.17918600
   0.20897700  0.77303600  0.17918600
   0.54231100  0.77303600  0.17918600
   0.87564400  0.77303600  0.17918600
   0.09631941  0.54944098  0.28470766
   0.43556174  0.88710780  0.27973893
   0.76618229  0.21685430  0.28858119
   0.09806518  0.21894358  0.28718838
   0.43058382  0.21616382  0.28857138
   0.09387493  0.87867078  0.27853002
   0.76818393  0.88072907  0.28237010
   0.43362569  0.55122280  0.28441249
   0.76758559  0.55206427  0.28457692
   0.32803401  0.65932091  0.38331367
   0.65111958  0.99218689  0.38860862
   0.32172422  0.32502038  0.38234641
   0.98436030  0.99594921  0.38609295
   0.32505828  0.99510472  0.38575987
   0.64460662  0.32070689  0.39306404
   0.99253826  0.67240236  0.38643983
   0.99729613  0.31696154  0.39232172
   0.65449081  0.65842732  0.38567591
 
 position of ions in cartesian coordinates  (Angst):
   5.08873933  0.71354685 10.33937637
   6.61178276 -0.58628840 10.13640586
   4.88342822  1.05836551 11.43091924
   7.20030695 -1.38845776  1.62731973
   2.33566777  1.42014298  1.62731973
   4.76799101  0.01584050  1.62731973
   7.20030695  1.42014719  1.62731973
   2.33566777  4.22874793  1.62731973
   4.76799101  2.82444545  1.62731973
   2.33566777  7.03734445  1.62731973
   4.76799101  5.63304198  1.62731973
   7.20030695  4.22874371  1.62731973
   1.52489579  0.01584471  3.92052428
   3.95721903 -1.38845776  3.92052428
   6.38953497 -2.79275602  3.92052428
   1.52489579  2.82444966  3.92052428
   3.95721903  1.42014719  3.92052428
   6.38953497  0.01584893  3.92052428
   1.52489579  5.63304619  3.92052428
   3.95721903  4.22874371  3.92052428
   6.38953497  2.82444545  3.92052428
   0.70283841  4.22369480  6.22929965
   3.17827445  5.63961351  6.12058578
   5.59079777 -1.40067806  6.31405117
   0.71557719  1.43163567  6.28357698
   3.14195083  0.00734657  6.31383636
   0.68500116  7.00801689  6.09413514
   5.60540366  4.18456394  6.17815478
   3.16414722  2.81767072  6.22284146
   5.60103763  1.41782145  6.22643923
   2.39364946  4.17333068  8.38676317
   4.75119035  5.61686526  8.50261484
   2.34760719  1.38316442  8.36559997
   7.18283296  4.24465628  8.44757274
   2.37193570  7.01511367  8.44028506
   4.70366560 -0.01345115  8.60009783
   7.24250714  1.48406306  8.45516234
   7.27722512 -1.53085397  8.58385593
   4.77579006  2.79047191  8.43844821
 


--------------------------------------------------------------------------------------------------------


 k-point  1 :   0.0000 0.0000 0.0000  plane waves:   29241
 k-point  2 :   0.5000 0.0000 0.0000  plane waves:   29108
 k-point  3 :  -0.0000 0.5000 0.0000  plane waves:   29108
 k-point  4 :   0.5000 0.5000 0.0000  plane waves:   29108

 maximum and minimum number of plane-waves per node :     14624    14548

 maximum number of plane-waves:     29241
 maximum index in each direction: 
   IXMAX=   14   IYMAX=   14   IZMAX=   37
   IXMIN=  -15   IYMIN=  -15   IZMIN=  -37


 real space projection operators:
  total allocation   :      13567.27 KBytes
  max/ min on nodes  :       6792.81       6774.45


 parallel 3D FFT for wavefunctions:
    minimum data exchange during FFTs selected (reduces bandwidth)
 parallel 3D FFT for charge:
    minimum data exchange during FFTs selected (reduces bandwidth)


 total amount of memory used by VASP MPI-rank0   131965. kBytes
=======================================================================

   base      :      30000. kBytes
   nonlr-proj:      10157. kBytes
   fftplans  :      13556. kBytes
   grid      :      23353. kBytes
   one-center:        311. kBytes
   wavefun   :      54588. kBytes
 
     INWAV:  cpu time    0.0001: real time    0.0005
 Broyden mixing: mesh for mixing (old mesh)
   NGX = 29   NGY = 29   NGZ = 75
  (NGX  = 96   NGY  = 96   NGZ  =240)
  gives a total of  63075 points

 initial charge density was supplied:
 charge density of overlapping atoms calculated
 number of electron     376.0000000 magnetization 
 keeping initial charge density in first step


--------------------------------------------------------------------------------------------------------


 Maximum index for non-local projection operator         1323
 Maximum index for augmentation-charges         1558 (set IRDMAX)


--------------------------------------------------------------------------------------------------------


 First call to EWALD:  gamma=   0.161
 Maximum number of real-space cells 4x 4x 2
 Maximum number of reciprocal cells 2x 2x 5

    FEWALD:  cpu time    0.0026: real time    0.0027


--------------------------------------- Iteration      1(   1)  ---------------------------------------


    POTLOK:  cpu time    0.2071: real time    0.2731
    SETDIJ:  cpu time    0.0158: real time    0.0160
     EDDAV:  cpu time   13.7960: real time   14.0374
       DOS:  cpu time    0.0011: real time    0.0011
    --------------------------------------------
      LOOP:  cpu time   14.0201: real time   14.3276

 eigenvalue-minimisations  :  1824
 total energy-change (2. order) : 0.2426477E+04  (-0.1595813E+05)
 number of electron     376.0000000 magnetization 
 augmentation part      376.0000000 magnetization 

 Free energy of the ion-electron system (eV)
  ---------------------------------------------------
  alpha Z        PSCENC =       975.10247152
  Ewald energy   TEWEN  =     92070.42225633
  -Hartree energ DENC   =   -121153.53987499
  -exchange      EXHF   =         0.00000000
  -V(xc)+E(xc)   XCENC  =       190.37797731
  PAW double counting   =     24789.08602224   -23775.73976456
  entropy T*S    EENTRO =        -0.02619375
  eigenvalues    EBANDS =      2070.89959323
  atomic energy  EATOM  =     27259.89416086
  Solvation  Ediel_sol  =         0.00000000
  ---------------------------------------------------
  free energy    TOTEN  =      2426.47664820 eV

  energy without entropy =     2426.50284195  energy(sigma->0) =     2426.48537945


--------------------------------------------------------------------------------------------------------




--------------------------------------- Iteration      1(   2)  ---------------------------------------


     EDDAV:  cpu time   16.5999: real time   16.8520
       DOS:  cpu time    0.0011: real time    0.0011
    --------------------------------------------
      LOOP:  cpu time   16.6010: real time   16.8532

 eigenvalue-minimisations  :  2128
 total energy-change (2. order) :-0.2490788E+04  (-0.2312761E+04)
 number of electron     376.0000000 magnetization 
 augmentation part      376.0000000 magnetization 

 Free energy of the ion-electron system (eV)
  ---------------------------------------------------
  alpha Z        PSCENC =       975.10247152
  Ewald energy   TEWEN  =     92070.42225633
  -Hartree energ DENC   =   -121153.53987499
  -exchange      EXHF   =         0.00000000
  -V(xc)+E(xc)   XCENC  =       190.37797731
  PAW double counting   =     24789.08602224   -23775.73976456
  entropy T*S    EENTRO =        -0.01949333
  eigenvalues    EBANDS =      -419.89491795
  atomic energy  EATOM  =     27259.89416086
  Solvation  Ediel_sol  =         0.00000000
  ---------------------------------------------------
  free energy    TOTEN  =       -64.31116257 eV

  energy without entropy =      -64.29166924  energy(sigma->0) =      -64.30466479


--------------------------------------------------------------------------------------------------------




--------------------------------------- Iteration      1(   3)  ---------------------------------------


     EDDAV:  cpu time   12.8601: real time   12.9798
       DOS:  cpu time    0.0011: real time    0.0011
    --------------------------------------------
      LOOP:  cpu time   12.8612: real time   12.9809

 eigenvalue-minimisations  :  2152
 total energy-change (2. order) :-0.1762646E+03  (-0.1598852E+03)
 number of electron     376.0000000 magnetization 
 augmentation part      376.0000000 magnetization 

 Free energy of the ion-electron system (eV)
  ---------------------------------------------------
  alpha Z        PSCENC =       975.10247152
  Ewald energy   TEWEN  =     92070.42225633
  -Hartree energ DENC   =   -121153.53987499
  -exchange      EXHF   =         0.00000000
  -V(xc)+E(xc)   XCENC  =       190.37797731
  PAW double counting   =     24789.08602224   -23775.73976456
  entropy T*S    EENTRO =         0.02623214
  eigenvalues    EBANDS =      -596.20522872
  atomic energy  EATOM  =     27259.89416086
  Solvation  Ediel_sol  =         0.00000000
  ---------------------------------------------------
  free energy    TOTEN  =      -240.57574787 eV

  energy without entropy =     -240.60198001  energy(sigma->0) =     -240.58449192


--------------------------------------------------------------------------------------------------------




--------------------------------------- Iteration      1(   4)  ---------------------------------------


     EDDAV:  cpu time   17.3277: real time   17.4739
       DOS:  cpu time    0.0012: real time    0.0012
    --------------------------------------------
      LOOP:  cpu time   17.3289: real time   17.4751

 eigenvalue-minimisations  :  2328
 total energy-change (2. order) :-0.7648833E+01  (-0.7377668E+01)
 number of electron     376.0000000 magnetization 
 augmentation part      376.0000000 magnetization 

 Free energy of the ion-electron system (eV)
  ---------------------------------------------------
  alpha Z        PSCENC =       975.10247152
  Ewald energy   TEWEN  =     92070.42225633
  -Hartree energ DENC   =   -121153.53987499
  -exchange      EXHF   =         0.00000000
  -V(xc)+E(xc)   XCENC  =       190.37797731
  PAW double counting   =     24789.08602224   -23775.73976456
  entropy T*S    EENTRO =         0.02541441
  eigenvalues    EBANDS =      -603.85324445
  atomic energy  EATOM  =     27259.89416086
  Solvation  Ediel_sol  =         0.00000000
  ---------------------------------------------------
  free energy    TOTEN  =      -248.22458132 eV

  energy without entropy =     -248.24999573  energy(sigma->0) =     -248.23305279


--------------------------------------------------------------------------------------------------------




--------------------------------------- Iteration      1(   5)  ---------------------------------------


     EDDAV:  cpu time   15.9055: real time   16.0358
       DOS:  cpu time    0.0012: real time    0.0012
    CHARGE:  cpu time    0.8333: real time    0.8400
    MIXING:  cpu time    0.0110: real time    0.0111
    --------------------------------------------
      LOOP:  cpu time   16.7511: real time   16.8882

 eigenvalue-minimisations  :  2400
 total energy-change (2. order) :-0.2333187E+00  (-0.2314559E+00)
 number of electron     376.0000071 magnetization 
 augmentation part      105.7984413 magnetization 

 Broyden mixing:
  rms(total) = 0.27508E+01    rms(broyden)= 0.27504E+01
  rms(prec ) = 0.30647E+01
  weight for this iteration     100.00

 Free energy of the ion-electron system (eV)
  ---------------------------------------------------
  alpha Z        PSCENC =       975.10247152
  Ewald energy   TEWEN  =     92070.42225633
  -Hartree energ DENC   =   -121153.53987499
  -exchange      EXHF   =         0.00000000
  -V(xc)+E(xc)   XCENC  =       190.37797731
  PAW double counting   =     24789.08602224   -23775.73976456
  entropy T*S    EENTRO =         0.02540121
  eigenvalues    EBANDS =      -604.08654999
  atomic energy  EATOM  =     27259.89416086
  Solvation  Ediel_sol  =         0.00000000
  ---------------------------------------------------
  free energy    TOTEN  =      -248.45790006 eV

  energy without entropy =     -248.48330128  energy(sigma->0) =     -248.46636713


--------------------------------------------------------------------------------------------------------




--------------------------------------- Iteration      1(   6)  ---------------------------------------


    POTLOK:  cpu time    0.2085: real time    0.2103
    SETDIJ:  cpu time    0.0126: real time    0.0127
    EDDIAG:  cpu time    2.3987: real time    2.4183
  RMM-DIIS:  cpu time    8.1429: real time    8.2099
    ORTHCH:  cpu time    0.4011: real time    0.4039
       DOS:  cpu time    0.0012: real time    0.0012
    CHARGE:  cpu time    0.8327: real time    0.8394
    MIXING:  cpu time    0.0078: real time    0.0078
    --------------------------------------------
      LOOP:  cpu time   12.0055: real time   12.1036

 eigenvalue-minimisations  :  1828
 total energy-change (2. order) : 0.7258896E+00  (-0.5603382E+01)
 number of electron     376.0000076 magnetization 
 augmentation part      112.8267110 magnetization 

 Broyden mixing:
  rms(total) = 0.31068E+01    rms(broyden)= 0.31059E+01
  rms(prec ) = 0.43408E+01
  weight for this iteration     100.00

 eigenvalues of (default mixing * dielectric matrix)
  average eigenvalue GAMMA=   0.4732
  0.4732

 Free energy of the ion-electron system (eV)
  ---------------------------------------------------
  alpha Z        PSCENC =       975.10247152
  Ewald energy   TEWEN  =     92070.42225633
  -Hartree energ DENC   =   -120691.76461541
  -exchange      EXHF   =         0.00000000
  -V(xc)+E(xc)   XCENC  =       183.34266975
  PAW double counting   =     26774.45131663   -25815.21323708
  entropy T*S    EENTRO =        -0.19489962
  eigenvalues    EBANDS =     -1003.77213347
  atomic energy  EATOM  =     27259.89416086
  Solvation  Ediel_sol  =         0.00000000
  ---------------------------------------------------
  free energy    TOTEN  =      -247.73201049 eV

  energy without entropy =     -247.53711087  energy(sigma->0) =     -247.66704395


--------------------------------------------------------------------------------------------------------




--------------------------------------- Iteration      1(   7)  ---------------------------------------


    POTLOK:  cpu time    0.1842: real time    0.1856
    SETDIJ:  cpu time    0.0101: real time    0.0102
    EDDIAG:  cpu time    2.2836: real time    2.3016
  RMM-DIIS:  cpu time    7.8081: real time    7.8721
    ORTHCH:  cpu time    0.2958: real time    0.2978
       DOS:  cpu time    0.0016: real time    0.0016
    CHARGE:  cpu time    0.6977: real time    0.7029
    MIXING:  cpu time    0.0065: real time    0.0065
    --------------------------------------------
      LOOP:  cpu time   11.2875: real time   11.3783

 eigenvalue-minimisations  :  1831
 total energy-change (2. order) :-0.1308589E+00  (-0.3271609E+01)
 number of electron     376.0000083 magnetization 
 augmentation part      111.3935242 magnetization 

 Broyden mixing:
  rms(total) = 0.23098E+01    rms(broyden)= 0.23092E+01
  rms(prec ) = 0.42243E+01
  weight for this iteration     100.00

 eigenvalues of (default mixing * dielectric matrix)
  average eigenvalue GAMMA=   0.5215
  0.8184  0.2247

 Free energy of the ion-electron system (eV)
  ---------------------------------------------------
  alpha Z        PSCENC =       975.10247152
  Ewald energy   TEWEN  =     92070.42225633
  -Hartree energ DENC   =   -120876.16764133
  -exchange      EXHF   =         0.00000000
  -V(xc)+E(xc)   XCENC  =       181.19970838
  PAW double counting   =     27382.61406366   -26430.30246481
  entropy T*S    EENTRO =        -0.10092723
  eigenvalues    EBANDS =      -810.52449677
  atomic energy  EATOM  =     27259.89416086
  Solvation  Ediel_sol  =         0.00000000
  ---------------------------------------------------
  free energy    TOTEN  =      -247.86286939 eV

  energy without entropy =     -247.76194215  energy(sigma->0) =     -247.82922698


--------------------------------------------------------------------------------------------------------




--------------------------------------- Iteration      1(   8)  ---------------------------------------


    POTLOK:  cpu time    0.1904: real time    0.1918
    SETDIJ:  cpu time    0.0141: real time    0.0142
    EDDIAG:  cpu time    2.1359: real time    2.1526
  RMM-DIIS:  cpu time    6.7030: real time    6.7573
    ORTHCH:  cpu time    0.2856: real time    0.2877
       DOS:  cpu time    0.0011: real time    0.0012
    CHARGE:  cpu time    0.8311: real time    0.8380
    MIXING:  cpu time    0.0073: real time    0.0074
    --------------------------------------------
      LOOP:  cpu time   10.1685: real time   10.2501

 eigenvalue-minimisations  :  1826
 total energy-change (2. order) : 0.4096996E+01  (-0.1134586E+01)
 number of electron     376.0000082 magnetization 
 augmentation part      111.8102986 magnetization 

 Broyden mixing:
  rms(total) = 0.23415E+01    rms(broyden)= 0.23413E+01
  rms(prec ) = 0.37392E+01
  weight for this iteration     100.00

 eigenvalues of (default mixing * dielectric matrix)
  average eigenvalue GAMMA=   0.5077
  1.1181  0.2631  0.1420

 Free energy of the ion-electron system (eV)
  ---------------------------------------------------
  alpha Z        PSCENC =       975.10247152
  Ewald energy   TEWEN  =     92070.42225633
  -Hartree energ DENC   =   -120868.20341194
  -exchange      EXHF   =         0.00000000
  -V(xc)+E(xc)   XCENC  =       180.11193600
  PAW double counting   =     27939.65076097   -26995.89187465
  entropy T*S    EENTRO =        -0.00889991
  eigenvalues    EBANDS =      -804.84327223
  atomic energy  EATOM  =     27259.89416086
  Solvation  Ediel_sol  =         0.00000000
  ---------------------------------------------------
  free energy    TOTEN  =      -243.76587304 eV

  energy without entropy =     -243.75697313  energy(sigma->0) =     -243.76290641


--------------------------------------------------------------------------------------------------------




--------------------------------------- Iteration      1(   9)  ---------------------------------------


    POTLOK:  cpu time    0.1862: real time    0.1878
    SETDIJ:  cpu time    0.0108: real time    0.0109
    EDDIAG:  cpu time    2.2767: real time    2.2944
  RMM-DIIS:  cpu time    8.0032: real time    8.0678
    ORTHCH:  cpu time    0.3005: real time    0.3029
       DOS:  cpu time    0.0012: real time    0.0012
    CHARGE:  cpu time    0.8583: real time    0.8650
    MIXING:  cpu time    0.0066: real time    0.0079
    --------------------------------------------
      LOOP:  cpu time   11.6434: real time   11.7380

 eigenvalue-minimisations  :  1831
 total energy-change (2. order) : 0.1187146E+02  (-0.6973079E+00)
 number of electron     376.0000076 magnetization 
 augmentation part      112.5562878 magnetization 

 Broyden mixing:
  rms(total) = 0.91816E+00    rms(broyden)= 0.91793E+00
  rms(prec ) = 0.11477E+01
  weight for this iteration     100.00

 eigenvalues of (default mixing * dielectric matrix)
  average eigenvalue GAMMA=   0.5207
  1.2829  0.3307  0.3307  0.1386

 Free energy of the ion-electron system (eV)
  ---------------------------------------------------
  alpha Z        PSCENC =       975.10247152
  Ewald energy   TEWEN  =     92070.42225633
  -Hartree energ DENC   =   -120783.75502668
  -exchange      EXHF   =         0.00000000
  -V(xc)+E(xc)   XCENC  =       179.37295838
  PAW double counting   =     28695.97788927   -27763.89851214
  entropy T*S    EENTRO =        -0.06579675
  eigenvalues    EBANDS =      -864.94480934
  atomic energy  EATOM  =     27259.89416086
  Solvation  Ediel_sol  =         0.00000000
  ---------------------------------------------------
  free energy    TOTEN  =      -231.89440854 eV

  energy without entropy =     -231.82861179  energy(sigma->0) =     -231.87247629


--------------------------------------------------------------------------------------------------------




--------------------------------------- Iteration      1(  10)  ---------------------------------------


    POTLOK:  cpu time    0.1883: real time    0.1899
    SETDIJ:  cpu time    0.0117: real time    0.0117
    EDDIAG:  cpu time    2.3217: real time    2.3399
  RMM-DIIS:  cpu time    8.0045: real time    8.0710
    ORTHCH:  cpu time    0.3038: real time    0.3070
       DOS:  cpu time    0.0013: real time    0.0013
    CHARGE:  cpu time    0.6519: real time    0.6578
    MIXING:  cpu time    0.0079: real time    0.0079
    --------------------------------------------
      LOOP:  cpu time   11.4911: real time   11.5865

 eigenvalue-minimisations  :  1831
 total energy-change (2. order) : 0.1395227E+01  (-0.2058677E+00)
 number of electron     376.0000078 magnetization 
 augmentation part      112.7478666 magnetization 

 Broyden mixing:
  rms(total) = 0.49686E+00    rms(broyden)= 0.49678E+00
  rms(prec ) = 0.62126E+00
  weight for this iteration     100.00

 eigenvalues of (default mixing * dielectric matrix)
  average eigenvalue GAMMA=   0.5550
  1.4046  0.1399  0.2652  0.4827  0.4827

 Free energy of the ion-electron system (eV)
  ---------------------------------------------------
  alpha Z        PSCENC =       975.10247152
  Ewald energy   TEWEN  =     92070.42225633
  -Hartree energ DENC   =   -120772.15097674
  -exchange      EXHF   =         0.00000000
  -V(xc)+E(xc)   XCENC  =       179.19817020
  PAW double counting   =     29114.95240601   -28188.67194089
  entropy T*S    EENTRO =         0.02458241
  eigenvalues    EBANDS =      -869.27031115
  atomic energy  EATOM  =     27259.89416086
  Solvation  Ediel_sol  =         0.00000000
  ---------------------------------------------------
  free energy    TOTEN  =      -230.49918145 eV

  energy without entropy =     -230.52376386  energy(sigma->0) =     -230.50737559


--------------------------------------------------------------------------------------------------------




--------------------------------------- Iteration      1(  11)  ---------------------------------------


    POTLOK:  cpu time    0.1933: real time    0.1956
    SETDIJ:  cpu time    0.0153: real time    0.0154
    EDDIAG:  cpu time    2.0902: real time    2.1133
  RMM-DIIS:  cpu time    6.7806: real time    6.8531
    ORTHCH:  cpu time    0.2910: real time    0.2940
       DOS:  cpu time    0.0012: real time    0.0012
    CHARGE:  cpu time    0.7837: real time    0.7923
    MIXING:  cpu time    0.0075: real time    0.0076
    --------------------------------------------
      LOOP:  cpu time   10.1628: real time   10.2724

 eigenvalue-minimisations  :  1831
 total energy-change (2. order) : 0.2407865E+00  (-0.5107961E-01)
 number of electron     376.0000078 magnetization 
 augmentation part      112.8927758 magnetization 

 Broyden mixing:
  rms(total) = 0.35843E+00    rms(broyden)= 0.35806E+00
  rms(prec ) = 0.47507E+00
  weight for this iteration     100.00

 eigenvalues of (default mixing * dielectric matrix)
  average eigenvalue GAMMA=   0.5815
  1.5713  0.8555  0.1391  0.3423  0.3423  0.2384

 Free energy of the ion-electron system (eV)
  ---------------------------------------------------
  alpha Z        PSCENC =       975.10247152
  Ewald energy   TEWEN  =     92070.42225633
  -Hartree energ DENC   =   -120767.73437820
  -exchange      EXHF   =         0.00000000
  -V(xc)+E(xc)   XCENC  =       179.18302201
  PAW double counting   =     29442.23237358   -28520.15387309
  entropy T*S    EENTRO =        -0.02293470
  eigenvalues    EBANDS =      -869.18149329
  atomic energy  EATOM  =     27259.89416086
  Solvation  Ediel_sol  =         0.00000000
  ---------------------------------------------------
  free energy    TOTEN  =      -230.25839496 eV

  energy without entropy =     -230.23546026  energy(sigma->0) =     -230.25075006


--------------------------------------------------------------------------------------------------------




--------------------------------------- Iteration      1(  12)  ---------------------------------------


    POTLOK:  cpu time    0.1708: real time    0.1729
    SETDIJ:  cpu time    0.0114: real time    0.0115
    EDDIAG:  cpu time    2.0615: real time    2.0834
  RMM-DIIS:  cpu time    7.9953: real time    8.0837
    ORTHCH:  cpu time    0.2910: real time    0.2942
       DOS:  cpu time    0.0011: real time    0.0011
    CHARGE:  cpu time    0.9861: real time    0.9963
    MIXING:  cpu time    0.0073: real time    0.0074
    --------------------------------------------
      LOOP:  cpu time   11.5246: real time   11.6505

 eigenvalue-minimisations  :  1844
 total energy-change (2. order) : 0.1877044E+00  (-0.2355795E-01)
 number of electron     376.0000077 magnetization 
 augmentation part      112.9361359 magnetization 

 Broyden mixing:
  rms(total) = 0.16922E+00    rms(broyden)= 0.16919E+00
  rms(prec ) = 0.18695E+00
  weight for this iteration     100.00

 eigenvalues of (default mixing * dielectric matrix)
  average eigenvalue GAMMA=   0.6758
  1.9301  1.0651  0.6419  0.4240  0.1392  0.2823  0.2477

 Free energy of the ion-electron system (eV)
  ---------------------------------------------------
  alpha Z        PSCENC =       975.10247152
  Ewald energy   TEWEN  =     92070.42225633
  -Hartree energ DENC   =   -120759.40223331
  -exchange      EXHF   =         0.00000000
  -V(xc)+E(xc)   XCENC  =       179.12593459
  PAW double counting   =     29732.02909577   -28813.46140233
  entropy T*S    EENTRO =        -0.01400163
  eigenvalues    EBANDS =      -873.76697242
  atomic energy  EATOM  =     27259.89416086
  Solvation  Ediel_sol  =         0.00000000
  ---------------------------------------------------
  free energy    TOTEN  =      -230.07069061 eV

  energy without entropy =     -230.05668898  energy(sigma->0) =     -230.06602340


--------------------------------------------------------------------------------------------------------




--------------------------------------- Iteration      1(  13)  ---------------------------------------


    POTLOK:  cpu time    0.1892: real time    0.1914
    SETDIJ:  cpu time    0.0112: real time    0.0112
    EDDIAG:  cpu time    2.3057: real time    2.3307
  RMM-DIIS:  cpu time    7.9332: real time    8.0197
    ORTHCH:  cpu time    0.2925: real time    0.2956
       DOS:  cpu time    0.0012: real time    0.0012
    CHARGE:  cpu time    0.7160: real time    0.7234
    MIXING:  cpu time    0.0075: real time    0.0076
    --------------------------------------------
      LOOP:  cpu time   11.4565: real time   11.5808

 eigenvalue-minimisations  :  1834
 total energy-change (2. order) :-0.3418077E-02  (-0.9855336E-02)
 number of electron     376.0000077 magnetization 
 augmentation part      112.9645812 magnetization 

 Broyden mixing:
  rms(total) = 0.18542E+00    rms(broyden)= 0.18541E+00
  rms(prec ) = 0.22623E+00
  weight for this iteration     100.00

 eigenvalues of (default mixing * dielectric matrix)
  average eigenvalue GAMMA=   0.7062
  2.1880  1.1650  0.8123  0.4761  0.1391  0.3187  0.3187  0.2318

 Free energy of the ion-electron system (eV)
  ---------------------------------------------------
  alpha Z        PSCENC =       975.10247152
  Ewald energy   TEWEN  =     92070.42225633
  -Hartree energ DENC   =   -120759.10207967
  -exchange      EXHF   =         0.00000000
  -V(xc)+E(xc)   XCENC  =       179.03580152
  PAW double counting   =     30006.30245015   -29090.98701998
  entropy T*S    EENTRO =        -0.01377154
  eigenvalues    EBANDS =      -870.72837788
  atomic energy  EATOM  =     27259.89416086
  Solvation  Ediel_sol  =         0.00000000
  ---------------------------------------------------
  free energy    TOTEN  =      -230.07410869 eV

  energy without entropy =     -230.06033714  energy(sigma->0) =     -230.06951817


--------------------------------------------------------------------------------------------------------




--------------------------------------- Iteration      1(  14)  ---------------------------------------


    POTLOK:  cpu time    0.1833: real time    0.1855
    SETDIJ:  cpu time    0.0114: real time    0.0114
    EDDIAG:  cpu time    2.1399: real time    2.1609
  RMM-DIIS:  cpu time    7.1148: real time    7.1926
    ORTHCH:  cpu time    0.2766: real time    0.2788
       DOS:  cpu time    0.0012: real time    0.0012
    CHARGE:  cpu time    0.6420: real time    0.6492
    MIXING:  cpu time    0.0085: real time    0.0086
    --------------------------------------------
      LOOP:  cpu time   10.3777: real time   10.4882

 eigenvalue-minimisations  :  1831
 total energy-change (2. order) : 0.2961217E-01  (-0.8426818E-02)
 number of electron     376.0000077 magnetization 
 augmentation part      112.9383765 magnetization 

 Broyden mixing:
  rms(total) = 0.10620E+00    rms(broyden)= 0.10618E+00
  rms(prec ) = 0.13176E+00
  weight for this iteration     100.00

 eigenvalues of (default mixing * dielectric matrix)
  average eigenvalue GAMMA=   0.7291
  2.3932  1.2522  0.8961  0.6797  0.3983  0.1391  0.3032  0.2721  0.2285

 Free energy of the ion-electron system (eV)
  ---------------------------------------------------
  alpha Z        PSCENC =       975.10247152
  Ewald energy   TEWEN  =     92070.42225633
  -Hartree energ DENC   =   -120762.43274879
  -exchange      EXHF   =         0.00000000
  -V(xc)+E(xc)   XCENC  =       178.97902282
  PAW double counting   =     30147.72817961   -29234.00399764
  entropy T*S    EENTRO =        -0.01939308
  eigenvalues    EBANDS =      -865.71444814
  atomic energy  EATOM  =     27259.89416086
  Solvation  Ediel_sol  =         0.00000000
  ---------------------------------------------------
  free energy    TOTEN  =      -230.04449652 eV

  energy without entropy =     -230.02510343  energy(sigma->0) =     -230.03803216


--------------------------------------------------------------------------------------------------------




--------------------------------------- Iteration      1(  15)  ---------------------------------------


    POTLOK:  cpu time    0.1832: real time    0.1853
    SETDIJ:  cpu time    0.0107: real time    0.0108
    EDDIAG:  cpu time    2.1210: real time    2.1437
  RMM-DIIS:  cpu time    7.6692: real time    7.7538
    ORTHCH:  cpu time    0.2917: real time    0.2954
       DOS:  cpu time    0.0012: real time    0.0012
    CHARGE:  cpu time    0.9042: real time    0.9136
    MIXING:  cpu time    0.0083: real time    0.0084
    --------------------------------------------
      LOOP:  cpu time   11.1895: real time   11.3122

 eigenvalue-minimisations  :  1831
 total energy-change (2. order) : 0.8685929E-02  (-0.3067562E-02)
 number of electron     376.0000077 magnetization 
 augmentation part      112.9177725 magnetization 

 Broyden mixing:
  rms(total) = 0.73655E-01    rms(broyden)= 0.73621E-01
  rms(prec ) = 0.91128E-01
  weight for this iteration     100.00

 eigenvalues of (default mixing * dielectric matrix)
  average eigenvalue GAMMA=   0.7040
  2.4559  1.2659  0.8214  0.8214  0.4477  0.1391  0.3067  0.3067  0.2286  0.2470

 Free energy of the ion-electron system (eV)
  ---------------------------------------------------
  alpha Z        PSCENC =       975.10247152
  Ewald energy   TEWEN  =     92070.42225633
  -Hartree energ DENC   =   -120765.07575116
  -exchange      EXHF   =         0.00000000
  -V(xc)+E(xc)   XCENC  =       178.96233958
  PAW double counting   =     30222.99078425   -29310.05760857
  entropy T*S    EENTRO =        -0.00662496
  eigenvalues    EBANDS =      -862.26783844
  atomic energy  EATOM  =     27259.89416086
  Solvation  Ediel_sol  =         0.00000000
  ---------------------------------------------------
  free energy    TOTEN  =      -230.03581059 eV

  energy without entropy =     -230.02918563  energy(sigma->0) =     -230.03360227


--------------------------------------------------------------------------------------------------------




--------------------------------------- Iteration      1(  16)  ---------------------------------------


    POTLOK:  cpu time    0.1896: real time    0.1917
    SETDIJ:  cpu time    0.0099: real time    0.0723
    EDDIAG:  cpu time    2.2669: real time    2.3036
  RMM-DIIS:  cpu time    7.8806: real time    8.0043
    ORTHCH:  cpu time    0.2922: real time    0.2959
       DOS:  cpu time    0.0013: real time    0.0013
    CHARGE:  cpu time    0.8704: real time    0.8806
    MIXING:  cpu time    0.0083: real time    0.0083
    --------------------------------------------
      LOOP:  cpu time   11.5190: real time   11.7580

 eigenvalue-minimisations  :  1827
 total energy-change (2. order) : 0.8895641E-02  (-0.7426231E-03)
 number of electron     376.0000077 magnetization 
 augmentation part      112.9246465 magnetization 

 Broyden mixing:
  rms(total) = 0.19892E-01    rms(broyden)= 0.19883E-01
  rms(prec ) = 0.23751E-01
  weight for this iteration     100.00

 eigenvalues of (default mixing * dielectric matrix)
  average eigenvalue GAMMA=   0.6997
  2.5069  1.2773  0.8205  0.8205  0.6157  0.4276  0.1391  0.3085  0.3085  0.2452
  0.2268

 Free energy of the ion-electron system (eV)
  ---------------------------------------------------
  alpha Z        PSCENC =       975.10247152
  Ewald energy   TEWEN  =     92070.42225633
  -Hartree energ DENC   =   -120765.70372328
  -exchange      EXHF   =         0.00000000
  -V(xc)+E(xc)   XCENC  =       178.97021477
  PAW double counting   =     30237.33125906   -29324.53225058
  entropy T*S    EENTRO =        -0.01191501
  eigenvalues    EBANDS =      -861.49938863
  atomic energy  EATOM  =     27259.89416086
  Solvation  Ediel_sol  =         0.00000000
  ---------------------------------------------------
  free energy    TOTEN  =      -230.02691495 eV

  energy without entropy =     -230.01499994  energy(sigma->0) =     -230.02294328


--------------------------------------------------------------------------------------------------------




--------------------------------------- Iteration      1(  17)  ---------------------------------------


    POTLOK:  cpu time    0.1843: real time    0.1861
    SETDIJ:  cpu time    0.0117: real time    0.0117
    EDDIAG:  cpu time    2.2868: real time    2.3097
  RMM-DIIS:  cpu time    7.1469: real time    7.2194
    ORTHCH:  cpu time    0.2518: real time    0.2540
       DOS:  cpu time    0.0012: real time    0.0012
    CHARGE:  cpu time    0.5031: real time    0.5081
    MIXING:  cpu time    0.0081: real time    0.0082
    --------------------------------------------
      LOOP:  cpu time   10.3938: real time   10.4984

 eigenvalue-minimisations  :  1816
 total energy-change (2. order) : 0.2578245E-03  (-0.1545342E-03)
 number of electron     376.0000077 magnetization 
 augmentation part      112.9260504 magnetization 

 Broyden mixing:
  rms(total) = 0.13764E-01    rms(broyden)= 0.13762E-01
  rms(prec ) = 0.17492E-01
  weight for this iteration     100.00

 eigenvalues of (default mixing * dielectric matrix)
  average eigenvalue GAMMA=   0.7490
  2.5565  1.3790  1.1174  1.0834  0.8585  0.4490  0.1391  0.3200  0.3200  0.2949
  0.2438  0.2260

 Free energy of the ion-electron system (eV)
  ---------------------------------------------------
  alpha Z        PSCENC =       975.10247152
  Ewald energy   TEWEN  =     92070.42225633
  -Hartree energ DENC   =   -120765.86886357
  -exchange      EXHF   =         0.00000000
  -V(xc)+E(xc)   XCENC  =       178.97563919
  PAW double counting   =     30242.63525122   -29329.86325523
  entropy T*S    EENTRO =        -0.01132867
  eigenvalues    EBANDS =      -861.31298879
  atomic energy  EATOM  =     27259.89416086
  Solvation  Ediel_sol  =         0.00000000
  ---------------------------------------------------
  free energy    TOTEN  =      -230.02665712 eV

  energy without entropy =     -230.01532845  energy(sigma->0) =     -230.02288090


--------------------------------------------------------------------------------------------------------




--------------------------------------- Iteration      1(  18)  ---------------------------------------


    POTLOK:  cpu time    0.1578: real time    0.1594
    SETDIJ:  cpu time    0.0108: real time    0.0109
    EDDIAG:  cpu time    1.8393: real time    1.8557
  RMM-DIIS:  cpu time    5.8551: real time    5.8986
    ORTHCH:  cpu time    0.3060: real time    0.3081
       DOS:  cpu time    0.0013: real time    0.0013
    CHARGE:  cpu time    0.8667: real time    0.8733
    MIXING:  cpu time    0.0065: real time    0.0065
    --------------------------------------------
      LOOP:  cpu time    9.0435: real time    9.1140

 eigenvalue-minimisations  :  1693
 total energy-change (2. order) :-0.2446982E-03  (-0.7338575E-04)
 number of electron     376.0000077 magnetization 
 augmentation part      112.9248980 magnetization 

 Broyden mixing:
  rms(total) = 0.11160E-01    rms(broyden)= 0.11158E-01
  rms(prec ) = 0.13989E-01
  weight for this iteration     100.00

 eigenvalues of (default mixing * dielectric matrix)
  average eigenvalue GAMMA=   0.7473
  2.5620  1.7452  1.2656  0.8923  0.8923  0.4601  0.1391  0.3854  0.3182  0.3182
  0.2691  0.2414  0.2260

 Free energy of the ion-electron system (eV)
  ---------------------------------------------------
  alpha Z        PSCENC =       975.10247152
  Ewald energy   TEWEN  =     92070.42225633
  -Hartree energ DENC   =   -120767.40331667
  -exchange      EXHF   =         0.00000000
  -V(xc)+E(xc)   XCENC  =       178.98634570
  PAW double counting   =     30243.29343157   -29330.46241880
  entropy T*S    EENTRO =        -0.01150734
  eigenvalues    EBANDS =      -859.84832501
  atomic energy  EATOM  =     27259.89416086
  Solvation  Ediel_sol  =         0.00000000
  ---------------------------------------------------
  free energy    TOTEN  =      -230.02690182 eV

  energy without entropy =     -230.01539449  energy(sigma->0) =     -230.02306604


--------------------------------------------------------------------------------------------------------




--------------------------------------- Iteration      1(  19)  ---------------------------------------


    POTLOK:  cpu time    0.1681: real time    0.1693
    SETDIJ:  cpu time    0.0122: real time    0.0123
    EDDIAG:  cpu time    1.9239: real time    1.9378
  RMM-DIIS:  cpu time    5.4958: real time    5.5404
    ORTHCH:  cpu time    0.3020: real time    0.3043
       DOS:  cpu time    0.0012: real time    0.0012
    --------------------------------------------
      LOOP:  cpu time    7.9032: real time    7.9652

 eigenvalue-minimisations  :  1176
 total energy-change (2. order) : 0.1335057E-04  (-0.2914958E-04)
 number of electron     376.0000077 magnetization 
 augmentation part      112.9248980 magnetization 

 Free energy of the ion-electron system (eV)
  ---------------------------------------------------
  alpha Z        PSCENC =       975.10247152
  Ewald energy   TEWEN  =     92070.42225633
  -Hartree energ DENC   =   -120768.12325921
  -exchange      EXHF   =         0.00000000
  -V(xc)+E(xc)   XCENC  =       178.99127224
  PAW double counting   =     30241.34183387   -29328.46202272
  entropy T*S    EENTRO =        -0.01201496
  eigenvalues    EBANDS =      -859.18158642
  atomic energy  EATOM  =     27259.89416086
  Solvation  Ediel_sol  =         0.00000000
  ---------------------------------------------------
  free energy    TOTEN  =      -230.02688847 eV

  energy without entropy =     -230.01487351  energy(sigma->0) =     -230.02288348


--------------------------------------------------------------------------------------------------------




 average (electrostatic) potential at core
  the test charge radii are     0.6991  0.7215  1.2059
  (the norm of the test charge is              1.0000)
       1 -56.3281       2 -74.6899       3 -76.2824       4 -72.3111       5 -72.3078
       6 -72.2982       7 -72.3007       8 -72.3240       9 -72.3183      10 -72.2650
      11 -72.2886      12 -72.2794      13 -72.8494      14 -72.9483      15 -72.8967
      16 -72.9549      17 -72.9594      18 -72.9361      19 -73.0220      20 -73.0415
      21 -73.0083      22 -72.9039      23 -72.9600      24 -72.8332      25 -73.0679
      26 -73.0476      27 -73.0449      28 -72.9674      29 -73.0235      30 -72.9221
      31 -72.4608      32 -72.3311      33 -72.7509      34 -72.4953      35 -72.4288
      36 -73.3812      37 -72.4625      38 -73.2636      39 -72.5095
 
 
 
 E-fermi :   1.1067     XC(G=0):  -6.6045     alpha+bet : -6.8913


 k-point     1 :       0.0000    0.0000    0.0000
  band No.  band energies     occupation 
      1     -22.1552      2.00000
      2     -16.9044      2.00000
      3      -8.8515      2.00000
      4      -8.1353      2.00000
      5      -6.8784      2.00000
      6      -6.0641      2.00000
      7      -5.9683      2.00000
      8      -5.7938      2.00000
      9      -5.7650      2.00000
     10      -5.6985      2.00000
     11      -5.6791      2.00000
     12      -5.6379      2.00000
     13      -5.5640      2.00000
     14      -5.5474      2.00000
     15      -5.4755      2.00000
     16      -5.3595      2.00000
     17      -5.1418      2.00000
     18      -5.1408      2.00000
     19      -5.0949      2.00000
     20      -5.0667      2.00000
     21      -5.0422      2.00000
     22      -5.0315      2.00000
     23      -4.7833      2.00000
     24      -4.6904      2.00000
     25      -4.6205      2.00000
     26      -4.5983      2.00000
     27      -4.5838      2.00000
     28      -4.5419      2.00000
     29      -4.4774      2.00000
     30      -4.3923      2.00000
     31      -4.3880      2.00000
     32      -4.3465      2.00000
     33      -4.3323      2.00000
     34      -4.3110      2.00000
     35      -4.2083      2.00000
     36      -4.1791      2.00000
     37      -4.1612      2.00000
     38      -4.1307      2.00000
     39      -4.0911      2.00000
     40      -4.0860      2.00000
     41      -4.0749      2.00000
     42      -4.0470      2.00000
     43      -4.0390      2.00000
     44      -4.0223      2.00000
     45      -4.0026      2.00000
     46      -3.9560      2.00000
     47      -3.6595      2.00000
     48      -3.6164      2.00000
     49      -3.5746      2.00000
     50      -3.4793      2.00000
     51      -3.4562      2.00000
     52      -3.4419      2.00000
     53      -3.4221      2.00000
     54      -3.4032      2.00000
     55      -3.3678      2.00000
     56      -3.3666      2.00000
     57      -3.3191      2.00000
     58      -3.2523      2.00000
     59      -3.1638      2.00000
     60      -3.1536      2.00000
     61      -3.0936      2.00000
     62      -2.9991      2.00000
     63      -2.8949      2.00000
     64      -2.6728      2.00000
     65      -2.6331      2.00000
     66      -2.6252      2.00000
     67      -2.5656      2.00000
     68      -2.5213      2.00000
     69      -2.5076      2.00000
     70      -2.5005      2.00000
     71      -2.4843      2.00000
     72      -2.4516      2.00000
     73      -2.4416      2.00000
     74      -2.4114      2.00000
     75      -2.3896      2.00000
     76      -2.3790      2.00000
     77      -2.3591      2.00000
     78      -2.3449      2.00000
     79      -2.3408      2.00000
     80      -2.3167      2.00000
     81      -2.3139      2.00000
     82      -2.3034      2.00000
     83      -2.2702      2.00000
     84      -2.2625      2.00000
     85      -2.2162      2.00000
     86      -2.1872      2.00000
     87      -2.1433      2.00000
     88      -2.1348      2.00000
     89      -2.1067      2.00000
     90      -2.0797      2.00000
     91      -2.0623      2.00000
     92      -2.0504      2.00000
     93      -2.0190      2.00000
     94      -1.9877      2.00000
     95      -1.9797      2.00000
     96      -1.9366      2.00000
     97      -1.9244      2.00000
     98      -1.8639      2.00000
     99      -1.8548      2.00000
    100      -1.7846      2.00000
    101      -1.7795      2.00000
    102      -1.6251      2.00000
    103      -1.6168      2.00000
    104      -1.6080      2.00000
    105      -1.6021      2.00000
    106      -1.5669      2.00000
    107      -1.5287      2.00000
    108      -1.5154      2.00000
    109      -1.5145      2.00000
    110      -1.4827      2.00000
    111      -1.4707      2.00000
    112      -1.4663      2.00000
    113      -1.4480      2.00000
    114      -1.3709      2.00000
    115      -1.3077      2.00000
    116      -1.2493      2.00000
    117      -1.1716      2.00000
    118      -1.1031      2.00000
    119      -1.0863      2.00000
    120      -1.0556      2.00000
    121      -1.0436      2.00000
    122      -1.0284      2.00000
    123      -0.9771      2.00000
    124      -0.9268      2.00000
    125      -0.9040      2.00000
    126      -0.8579      2.00000
    127      -0.8136      2.00000
    128      -0.7716      2.00000
    129      -0.6831      2.00000
    130      -0.6787      2.00000
    131      -0.6517      2.00000
    132      -0.6436      2.00000
    133      -0.6160      2.00000
    134      -0.5436      2.00000
    135      -0.4974      2.00000
    136      -0.4537      2.00000
    137      -0.4181      2.00000
    138      -0.3525      2.00000
    139      -0.3494      2.00000
    140      -0.3286      2.00000
    141      -0.2849      2.00000
    142      -0.2456      2.00000
    143      -0.2101      2.00000
    144      -0.1818      2.00000
    145      -0.1660      2.00000
    146      -0.1448      2.00000
    147      -0.0973      2.00000
    148      -0.0510      2.00000
    149      -0.0109      2.00000
    150       0.0199      2.00000
    151       0.0850      2.00000
    152       0.1099      2.00000
    153       0.1241      2.00000
    154       0.1500      2.00000
    155       0.1590      2.00000
    156       0.2064      2.00000
    157       0.2342      2.00000
    158       0.2532      2.00000
    159       0.2613      2.00000
    160       0.2751      2.00000
    161       0.3092      2.00000
    162       0.3155      2.00000
    163       0.3358      2.00000
    164       0.3543      2.00000
    165       0.3802      2.00000
    166       0.3846      2.00000
    167       0.4007      2.00001
    168       0.4266      2.00002
    169       0.4541      2.00004
    170       0.4801      2.00009
    171       0.5207      2.00028
    172       0.5294      2.00035
    173       0.6120      2.00261
    174       0.6175      2.00294
    175       0.6374      2.00448
    176       0.6514      2.00594
    177       0.6633      2.00747
    178       0.6862      2.01133
    179       0.7046      2.01548
    180       0.7302      2.02295
    181       0.7408      2.02668
    182       0.7592      2.03389
    183       0.7934      2.04928
    184       0.8205      2.06119
    185       0.8280      2.06401
    186       0.8356      2.06653
    187       0.8438      2.06874
    188       0.8460      2.06920
    189       0.8627      2.07091
    190       0.8641      2.07087
    191       0.8758      2.06924
    192       0.8844      2.06629
    193       0.8907      2.06308
    194       0.9205      2.03279
    195       0.9782      1.87603
    196       1.0903      1.13797
    197       1.1191      0.89495
    198       1.1892      0.36328
    199       1.2194      0.19381
    200       1.2356      0.12165
    201       1.2493      0.07122
    202       1.2778     -0.00589
    203       1.2844     -0.01874
    204       1.4975     -0.01849
    205       1.5185     -0.01315
    206       1.9548     -0.00000
    207       2.0282     -0.00000
    208       2.0872     -0.00000
    209       2.1009     -0.00000
    210       2.2228     -0.00000
    211       2.5327     -0.00000
    212       3.5864     -0.00000
    213       4.0170     -0.00000
    214       4.3794     -0.00000
    215       4.4265     -0.00000
    216       4.4609     -0.00000
    217       4.6066     -0.00000
    218       4.9221     -0.00000
    219       5.4817     -0.00000
    220       5.5578     -0.00000
    221       5.8524     -0.00000
    222       5.9002     -0.00000
    223       5.9173     -0.00000
    224       5.9315     -0.00000
    225       6.0134     -0.00000
    226       6.1302     -0.00000
    227       6.5637     -0.00000
    228       6.8502      0.00000

 k-point     2 :       0.5000    0.0000    0.0000
  band No.  band energies     occupation 
      1     -22.1551      2.00000
      2     -16.9040      2.00000
      3      -8.8383      2.00000
      4      -7.3035      2.00000
      5      -7.2437      2.00000
      6      -6.1830      2.00000
      7      -6.1139      2.00000
      8      -5.9302      2.00000
      9      -5.8772      2.00000
     10      -5.7384      2.00000
     11      -5.6015      2.00000
     12      -5.4601      2.00000
     13      -5.4100      2.00000
     14      -5.2888      2.00000
     15      -5.0891      2.00000
     16      -5.0198      2.00000
     17      -4.9456      2.00000
     18      -4.9311      2.00000
     19      -4.9082      2.00000
     20      -4.8915      2.00000
     21      -4.8444      2.00000
     22      -4.8060      2.00000
     23      -4.7859      2.00000
     24      -4.7746      2.00000
     25      -4.7492      2.00000
     26      -4.7348      2.00000
     27      -4.7242      2.00000
     28      -4.7077      2.00000
     29      -4.6194      2.00000
     30      -4.5975      2.00000
     31      -4.4463      2.00000
     32      -4.3681      2.00000
     33      -4.3572      2.00000
     34      -4.3115      2.00000
     35      -4.2845      2.00000
     36      -4.1923      2.00000
     37      -4.1431      2.00000
     38      -4.0791      2.00000
     39      -4.0575      2.00000
     40      -4.0314      2.00000
     41      -3.9875      2.00000
     42      -3.9297      2.00000
     43      -3.9056      2.00000
     44      -3.8197      2.00000
     45      -3.7957      2.00000
     46      -3.7336      2.00000
     47      -3.7261      2.00000
     48      -3.7060      2.00000
     49      -3.6593      2.00000
     50      -3.6273      2.00000
     51      -3.4877      2.00000
     52      -3.4668      2.00000
     53      -3.4397      2.00000
     54      -3.4007      2.00000
     55      -3.3657      2.00000
     56      -3.3479      2.00000
     57      -3.2796      2.00000
     58      -3.2546      2.00000
     59      -3.2216      2.00000
     60      -3.1595      2.00000
     61      -3.1277      2.00000
     62      -3.1086      2.00000
     63      -3.0655      2.00000
     64      -3.0447      2.00000
     65      -2.9847      2.00000
     66      -2.9341      2.00000
     67      -2.9163      2.00000
     68      -2.8971      2.00000
     69      -2.8561      2.00000
     70      -2.8210      2.00000
[...]
     80      -2.4185      2.00000
     81      -2.3561      2.00000
     82      -2.3208      2.00000
     83      -2.2868      2.00000
     84      -2.2643      2.00000
     85      -2.2234      2.00000
     86      -2.2022      2.00000
     87      -2.1779      2.00000
     88      -2.1696      2.00000
     89      -2.1664      2.00000
     90      -2.1420      2.00000
     91      -2.1217      2.00000
     92      -2.1052      2.00000
     93      -2.0649      2.00000
     94      -1.9929      2.00000
     95      -1.9544      2.00000
     96      -1.9440      2.00000
     97      -1.9058      2.00000
     98      -1.8798      2.00000
     99      -1.8683      2.00000
    100      -1.8306      2.00000
    101      -1.7710      2.00000
    102      -1.7621      2.00000
    103      -1.7243      2.00000
    104      -1.7178      2.00000
    105      -1.6911      2.00000
    106      -1.6794      2.00000
    107      -1.6663      2.00000
    108      -1.6474      2.00000
    109      -1.6110      2.00000
    110      -1.5584      2.00000
    111      -1.5276      2.00000
    112      -1.4634      2.00000
    113      -1.4532      2.00000
    114      -1.4025      2.00000
    115      -1.3123      2.00000
    116      -1.3005      2.00000
    117      -1.2180      2.00000
    118      -1.1991      2.00000
    119      -1.1619      2.00000
    120      -1.0890      2.00000
    121      -1.0820      2.00000
    122      -1.0421      2.00000
    123      -1.0305      2.00000
    124      -1.0052      2.00000
    125      -0.9911      2.00000
    126      -0.9598      2.00000
    127      -0.9407      2.00000
    128      -0.9328      2.00000
    129      -0.9149      2.00000
    130      -0.9013      2.00000
    131      -0.8380      2.00000
    132      -0.7982      2.00000
    133      -0.7608      2.00000
    134      -0.7261      2.00000
    135      -0.7120      2.00000
    136      -0.6831      2.00000
    137      -0.6760      2.00000
    138      -0.6388      2.00000
    139      -0.5990      2.00000
    140      -0.5478      2.00000
    141      -0.4789      2.00000
    142      -0.4498      2.00000
    143      -0.3852      2.00000
    144      -0.2964      2.00000
    145      -0.2451      2.00000
    146      -0.1859      2.00000
    147      -0.1765      2.00000
    148      -0.1087      2.00000
    149      -0.0930      2.00000
    150      -0.0569      2.00000
    151      -0.0308      2.00000
    152       0.0400      2.00000
    153       0.0545      2.00000
    154       0.0862      2.00000
    155       0.1057      2.00000
    156       0.1162      2.00000
    157       0.1341      2.00000
    158       0.1737      2.00000
    159       0.2056      2.00000
    160       0.2275      2.00000
    161       0.2546      2.00000
    162       0.3141      2.00000
    163       0.3227      2.00000
    164       0.3598      2.00000
    165       0.3825      2.00000
    166       0.4191      2.00001
    167       0.5210      2.00022
    168       0.5911      2.00136
    169       0.6035      2.00181
    170       0.6286      2.00316
    171       0.6534      2.00530
    172       0.6883      2.01027
    173       0.7218      2.01801
    174       0.8010      2.04921
    175       0.8087      2.05276
    176       0.8252      2.05999
    177       0.8644      2.07073
    178       0.8886      2.06769
    179       0.9291      2.03128
    180       0.9455      2.00093
    181       0.9574      1.97196
    182       1.0343      1.62083
    183       1.0707      1.35996
    184       1.0992      1.12747
    185       1.1102      1.03458
    186       1.1213      0.94078
    187       1.1435      0.75574
    188       1.1562      0.65418
    189       1.1829      0.45570
    190       1.1959      0.36907
    191       1.3193     -0.05506
    192       1.3477     -0.06979
    193       1.3721     -0.06975
    194       1.4044     -0.05961
    195       1.4461     -0.04077
    196       1.5005     -0.01987
    197       1.5842     -0.00442
    198       1.7518     -0.00006
    199       1.8385     -0.00000
    200       2.0037     -0.00000
    201       2.2454     -0.00000
    202       2.3521     -0.00000
    203       2.8056     -0.00000
    204       2.9374     -0.00000
    205       2.9646     -0.00000
    206       2.9976     -0.00000
    207       3.0184     -0.00000
    208       3.2300     -0.00000
    209       3.3954     -0.00000
    210       3.5242     -0.00000
    211       3.5693     -0.00000
    212       3.6109     -0.00000
    213       3.7335     -0.00000
    214       3.8284     -0.00000
    215       3.9775     -0.00000
    216       4.1849     -0.00000
    217       4.2510     -0.00000
    218       4.4174     -0.00000
    219       4.4527     -0.00000
    220       4.6183     -0.00000
    221       4.6569     -0.00000
    222       4.8312     -0.00000
    223       5.1497     -0.00000
    224       5.5536     -0.00000
    225       5.8332     -0.00000
    226       6.5661     -0.00000
    227       6.5905      0.00000
    228       6.6219      0.00000


--------------------------------------------------------------------------------------------------------


 soft charge-density along one line, spin component           1
         0         1         2         3         4         5         6         7         8         9
 total charge-density along one line
 
 pseudopotential strength for first ion, spin component:           1
 10.098   0.015   0.004   0.009   0.000  -0.003  -0.008   0.000
  0.015  -0.002  -0.000  -0.000  -0.000  -0.000  -0.000   0.000
  0.004  -0.000  -4.247  -0.006   0.001  -0.010  -0.002   0.000
  0.009  -0.000  -0.006  -4.262   0.003  -0.002  -0.016   0.000
  0.000  -0.000   0.001   0.003  -4.245   0.000   0.000  -0.009
 -0.003  -0.000  -0.010  -0.002   0.000  -0.770  -0.000   0.000
 -0.008  -0.000  -0.002  -0.016   0.000  -0.000  -0.770   0.000
  0.000   0.000   0.000   0.000  -0.009   0.000   0.000  -0.770
 total augmentation occupancy for first ion, spin component:           1
  1.642  -0.859  -0.001  -0.008  -0.049   0.031   0.080  -0.022
 -0.859   1.188  -0.199  -0.528   0.084  -0.080  -0.222   0.029
 -0.001  -0.199   0.852   0.195   0.009   0.114   0.054  -0.003
 -0.008  -0.528   0.195   1.319  -0.009   0.054   0.247  -0.008
 -0.049   0.084   0.009  -0.009   0.785  -0.004  -0.009   0.097
  0.031  -0.080   0.114   0.054  -0.004   0.020   0.021  -0.003
  0.080  -0.222   0.054   0.247  -0.009   0.021   0.070  -0.005
 -0.022   0.029  -0.003  -0.008   0.097  -0.003  -0.005   0.013


------------------------ aborting loop because EDIFF is reached ----------------------------------------


    CHARGE:  cpu time    0.9639: real time    0.9717
    FORLOC:  cpu time    0.0557: real time    0.0561
    FORNL :  cpu time    3.9937: real time    4.0260
    STRESS:  cpu time   12.1092: real time   12.2045
    FORCOR:  cpu time    0.2245: real time    0.2261
    FORHAR:  cpu time    0.0976: real time    0.0984
    MIXING:  cpu time    0.0069: real time    0.0069
    OFIELD:  cpu time    0.0001: real time    0.0001

  FORCE on cell =-STRESS in cart. coord.  units (eV):
  Direction    XX          YY          ZZ          XY          YZ          ZX
  --------------------------------------------------------------------------------------
  Alpha Z   975.10247   975.10247   975.10247
  Ewald  111599.26920111628.44000************  -198.11600   265.06701   -84.71640
  Hartree118355.04304118346.65418************  -130.85997   112.13920   -47.62407
  E(xc)   -1666.39562 -1666.08609 -1673.70365    -0.45491     0.73646    -0.21376
  Local  ************************240661.72133   318.20764  -351.64964   126.25563
  n-local   126.06919   125.64290    95.43259    -1.45468     1.93551    -0.36073
  augment  1895.68100  1893.16997  1931.52768     2.92027    -5.00391     1.14959
  Kinetic  5526.05155  5515.67412  5598.64057    10.24615   -23.24035     6.43343
  Fock        0.00000     0.00000     0.00000     0.00000     0.00000     0.00000
  -------------------------------------------------------------------------------------
  Total     -33.99035   -36.43337    -1.07215     0.48851    -0.01572     0.92370
  in kB     -40.48307   -43.39274    -1.27694     0.58182    -0.01872     1.10014
  external pressure =      -28.38 kB  Pullay stress =        0.00 kB


 VOLUME and BASIS-vectors are now :
 -----------------------------------------------------------------------------
  energy-cutoff  :      450.00
  volume of cell :     1345.22
      direct lattice vectors                 reciprocal lattice vectors
     7.296955120 -4.212899000  0.000000000     0.137043463  0.000000000  0.000000000
     0.000000000  8.425798000  0.000000000     0.068521732  0.118683121  0.000000000
     0.000000000  0.000000000 21.879635000     0.000000000  0.000000000  0.045704602

  length of vectors
     8.425798004  8.425798000 21.879635000     0.137043463  0.137043463  0.045704602


 FORCES acting on ions
    electron-ion (+dipol)            ewald-force                    non-local-force                 convergence-correction
 -----------------------------------------------------------------------------------------------
   0.134E+02 0.117E+02 -.890E+03   -.142E+02 -.160E+02 0.880E+03   0.324E+00 0.400E+01 0.112E+02   -.129E-01 -.132E-01 -.664E-01
   -.768E+02 0.389E+02 -.160E+04   0.762E+02 -.337E+02 0.163E+04   0.127E+01 -.493E+01 -.241E+02   -.158E-01 -.248E-02 -.318E-01
   0.543E+02 -.103E+03 -.155E+04   -.612E+02 0.124E+03 0.161E+04   0.719E+01 -.206E+02 -.575E+02   -.771E-02 0.132E-01 -.648E-03
   0.319E+00 0.220E+00 0.234E+04   -.324E+00 -.265E+00 -.234E+04   0.190E-01 -.474E-01 -.120E+01   -.257E-02 0.543E-01 -.173E-01
   0.393E+00 0.252E+00 0.234E+04   -.410E+00 -.269E+00 -.234E+04   -.222E-01 -.217E-01 -.109E+01   -.667E-02 -.186E-01 -.294E-01
   -.292E+00 0.407E+00 0.234E+04   0.156E+00 -.461E+00 -.234E+04   0.316E-01 -.826E-02 -.114E+01   0.583E-01 0.494E-01 -.150E-01
   0.326E+00 0.687E+00 0.234E+04   -.280E+00 -.640E+00 -.234E+04   -.426E-03 0.885E-02 -.119E+01   -.209E-01 0.129E-01 0.455E-02
   0.536E+00 0.439E+00 0.234E+04   -.499E+00 -.450E+00 -.234E+04   0.117E-01 0.242E-01 -.127E+01   -.712E-01 0.172E-01 -.244E-01
   0.889E-02 0.442E+00 0.234E+04   -.612E-01 -.369E+00 -.234E+04   0.128E-01 0.826E-03 -.122E+01   0.767E-01 -.566E-01 -.180E-01
   -.210E+00 -.840E+00 0.234E+04   0.343E+00 0.717E+00 -.234E+04   -.642E-01 0.944E-01 -.110E+01   -.742E-01 0.155E-02 -.223E-01
   -.764E+00 -.779E+00 0.234E+04   0.759E+00 0.827E+00 -.234E+04   -.119E-01 -.300E-01 -.126E+01   0.284E-01 0.704E-02 -.336E-01
   -.291E+00 -.843E+00 0.234E+04   0.318E+00 0.906E+00 -.234E+04   -.471E-02 0.332E-02 -.105E+01   0.122E-01 -.670E-01 -.169E-01
   -.230E+01 -.693E+01 0.858E+03   0.224E+01 0.696E+01 -.858E+03   0.115E+00 0.846E-01 -.423E+00   -.402E-01 -.420E-01 -.251E-01
   -.731E+01 -.503E+01 0.863E+03   0.720E+01 0.505E+01 -.862E+03   0.238E+00 0.882E-01 -.235E+00   0.132E-02 0.300E-01 -.269E-02
   -.972E+00 -.669E+01 0.859E+03   0.107E+01 0.662E+01 -.858E+03   -.395E-01 0.121E+00 -.254E+00   0.270E-01 -.861E-02 -.799E-02
   0.405E+01 0.305E+01 0.862E+03   -.407E+01 -.316E+01 -.862E+03   -.186E-01 0.553E-01 -.333E+00   -.348E-01 0.278E-01 -.935E-02
   0.159E+01 0.509E+01 0.864E+03   -.172E+01 -.510E+01 -.864E+03   0.750E-01 -.787E-01 -.366E+00   0.644E-01 -.123E-02 -.117E-01
   0.192E+01 0.686E+01 0.860E+03   -.196E+01 -.695E+01 -.860E+03   -.196E-01 -.647E-01 -.214E+00   0.262E-01 0.701E-01 -.331E-01
   0.164E+01 0.392E+01 0.867E+03   -.154E+01 -.381E+01 -.867E+03   -.504E-01 -.170E+00 -.470E+00   -.944E-01 0.147E-01 -.170E-01
   -.131E+01 0.417E+00 0.870E+03   0.132E+01 -.345E+00 -.870E+03   0.655E-01 -.509E-01 -.582E+00   0.137E-01 -.293E-01 0.225E-01
   0.178E+01 0.765E+00 0.868E+03   -.173E+01 -.562E+00 -.868E+03   -.735E-01 -.104E+00 -.478E+00   0.365E-01 -.612E-01 -.221E-01
   -.277E+01 0.352E+01 -.645E+03   0.264E+01 -.362E+01 0.645E+03   0.204E+00 -.746E-02 0.288E+00   -.255E-01 0.416E-01 -.217E-01
   0.329E+01 0.106E+01 -.619E+03   -.322E+01 -.962E+00 0.618E+03   -.185E+00 -.166E+00 0.751E+00   -.136E-01 -.859E-03 0.167E-01
   -.414E+01 0.233E+01 -.674E+03   0.386E+01 -.198E+01 0.674E+03   0.234E+00 -.318E+00 -.280E+00   0.199E-02 0.278E-01 0.367E-01
   -.485E+01 0.102E+02 -.641E+03   0.437E+01 -.937E+01 0.642E+03   0.472E+00 -.758E+00 -.613E+00   -.493E-02 -.148E-01 0.240E-01
   0.119E+02 -.113E+01 -.638E+03   -.113E+02 0.970E+00 0.638E+03   -.686E+00 0.174E+00 -.297E+00   0.141E-01 0.583E-02 0.621E-01
   -.802E+01 -.116E+02 -.616E+03   0.795E+01 0.115E+02 0.615E+03   0.178E+00 0.241E+00 0.742E+00   -.459E-01 -.302E-01 -.376E-01
   -.248E+01 -.585E+01 -.630E+03   0.250E+01 0.595E+01 0.630E+03   -.833E-01 0.483E-01 0.511E+00   0.190E-01 -.481E-01 0.109E-01
   0.563E+01 0.124E+01 -.621E+03   -.563E+01 -.126E+01 0.620E+03   -.102E+00 -.549E-01 0.392E+00   0.264E-01 0.433E-03 0.328E-01
   0.990E+00 0.186E+01 -.631E+03   -.102E+01 -.217E+01 0.630E+03   -.227E-02 0.317E+00 0.243E+00   0.304E-01 0.166E-01 -.590E-02
   -.147E+02 -.993E+01 -.215E+04   0.152E+02 0.102E+02 0.215E+04   -.669E+00 -.238E+00 0.151E+01   0.241E-01 0.454E-02 -.392E-01
   0.190E+02 0.348E+02 -.217E+04   -.195E+02 -.354E+02 0.216E+04   0.593E+00 0.539E+00 0.132E+01   -.376E-02 0.235E-01 -.110E-01
   0.297E+02 -.382E+01 -.213E+04   -.302E+02 0.389E+01 0.213E+04   0.388E+00 -.680E-01 0.133E+01   0.322E-01 -.237E-01 -.408E-01
   -.131E+02 0.747E+01 -.217E+04   0.128E+02 -.773E+01 0.217E+04   0.389E+00 0.170E+00 0.109E+01   -.141E-01 -.479E-02 -.319E-01
   0.207E+02 0.103E+02 -.217E+04   -.208E+02 -.108E+02 0.216E+04   0.322E-01 0.574E+00 0.106E+01   0.327E-01 0.170E-01 -.197E-01
   0.689E+02 0.603E+02 -.199E+04   -.718E+02 -.586E+02 0.199E+04   0.262E+01 -.156E+01 -.347E+01   -.759E-02 -.148E-01 -.316E-01
   -.566E+02 -.399E+02 -.209E+04   0.579E+02 0.425E+02 0.208E+04   -.137E+01 -.289E+01 0.225E+01   -.277E-01 0.207E-01 -.503E-01
   -.693E+02 0.837E+02 -.206E+04   0.697E+02 -.843E+02 0.206E+04   -.374E+00 0.646E+00 -.122E+01   -.265E-01 -.188E-01 -.595E-01
   0.152E+02 -.669E+02 -.211E+04   -.151E+02 0.681E+02 0.211E+04   -.182E+00 -.943E+00 0.133E+01   0.832E-02 -.230E-01 -.436E-01
 -----------------------------------------------------------------------------------------------
   -.104E+02 0.260E+02 0.779E+02   0.924E-13 0.000E+00 0.182E-11   0.105E+02 -.259E+02 -.773E+02   -.166E-01 -.233E-01 -.587E+00
 
 
 POSITION                                       TOTAL-FORCE (eV/Angst)
 -----------------------------------------------------------------------------------
      5.03999      0.67296     10.34170        -0.527455     -0.323685      0.534719
      6.65321     -0.57187     10.15216         0.590652      0.243377      0.186822
      4.91336      1.06590     11.43069         0.308219     -0.044749     -0.231923
      7.20031     -1.38846      1.62732         0.010326     -0.040533      0.163881
      2.33567      1.42014      1.62732        -0.047023     -0.060363      0.162278
      4.76799      0.01584      1.62732        -0.047511     -0.015316      0.165010
      7.20031      1.42015      1.62732         0.022841      0.066161      0.114184
      2.33567      4.22875      1.62732        -0.024236      0.026679      0.140637
      4.76799      2.82445      1.62732         0.035820      0.014353      0.158975
      2.33567      7.03734      1.62732        -0.006464     -0.030738      0.019007
      4.76799      5.63304      1.62732         0.010050      0.022851      0.120563
      7.20031      4.22874      1.62732         0.032699     -0.003264      0.011498
      1.52490      0.01584      3.92052         0.012871      0.075920     -0.107193
      3.95722     -1.38846      3.92052         0.127735      0.131457     -0.062853
      6.38953     -2.79276      3.92052         0.083205      0.042060     -0.039334
      1.52490      2.82445      3.92052        -0.077059     -0.030128     -0.079590
      3.95722      1.42015      3.92052         0.002553     -0.088232     -0.068363
      6.38953      0.01585      3.92052        -0.026794     -0.095498      0.114525
      1.52490      5.63305      3.92052        -0.047181     -0.050680     -0.319619
      3.95722      4.22874      3.92052         0.088297     -0.011560     -0.276966
      6.38953      2.82445      3.92052         0.014441      0.035082     -0.363589
      0.70651      4.21107      6.20788         0.045303     -0.064047     -0.093605
      3.16912      5.63170      6.15010        -0.129682     -0.072269      0.182450
      5.58401     -1.39003      6.26740        -0.043845      0.050674     -0.242015
      0.69624      1.44297      6.21750        -0.013340      0.001389     -0.104552
      3.16984     -0.00727      6.21481        -0.032561      0.021214     -0.274561
      0.71163      7.02035      6.15023         0.061801      0.083087      0.238172
      5.58834      4.21669      6.17703        -0.039418      0.094231      0.013084
      3.16211      2.81492      6.16861        -0.082111     -0.078729      0.019871
      5.58462      1.39083      6.19769        -0.003282      0.020876     -0.096138
      2.38193      4.20769      8.41695        -0.090587      0.068515      0.166215
      4.74883      5.59623      8.48658         0.067147     -0.009788     -0.161661
      2.34164      1.38516      8.43543        -0.089838     -0.021223      0.091277
      7.19277      4.20192      8.46791         0.141743     -0.092400      0.109174
      2.33622      6.98896      8.45471        -0.042425      0.044923      0.088292
      4.69128      0.02139      8.61045        -0.284709      0.174870     -0.285202
      7.26038      1.47346      8.45343        -0.014172     -0.280524     -0.010850
      7.28070     -1.51194      8.61005         0.009362     -0.029137      0.066282
      4.79017      2.82064      8.45782         0.004629      0.225146     -0.048903
 -----------------------------------------------------------------------------------
    total drift:                                0.057522      0.118183      0.051554
  FORCES: max atom, RMS     0.817867    0.229592
  Number: max atom                 1
  FORCE total and by dimension    1.433804    0.590652


--------------------------------------------------------------------------------------------------------



  FREE ENERGIE OF THE ION-ELECTRON SYSTEM (eV)
  ---------------------------------------------------
  free  energy   TOTEN  =      -230.64243764 eV

  energy  without entropy=     -230.61598020  energy(sigma->0) =     -230.63361849
 
 d Force = 0.9203544E-01[ 0.235E-01, 0.161E+00]  d Energy = 0.8989531E-01 0.214E-02
 d Force = 0.4382197E+02[ 0.435E+02, 0.442E+02]  d Ewald  = 0.4381986E+02 0.211E-02


--------------------------------------------------------------------------------------------------------


    POTLOK:  cpu time    0.2090: real time    0.2404


--------------------------------------------------------------------------------------------------------


 stress matrix after NEB project (eV)
    -33.99035      0.48851      0.92370
      0.48851    -36.43337     -0.01572
      0.92370     -0.01572     -1.07215
  FORCES: max atom, RMS     0.817867    0.229592
  FORCE total and by dimension    1.433804    0.590652
  Stress total and by dimension   49.860485   36.433366
 Quasi-Newton relaxation of ions (Broydens 2nd method)
  g(Force)  = 0.397E-01   g(Stress)= 0.000E+00

 retain information from N=  3 steps
 eigenvalues of (default step * inverse Hessian matrix)
  average eigenvalue of G=   5.3042
 eigenvalue spectrum of G is  1.5437  7.1844  7.1844
  RESET_HESSIAN           0


--------------------------------------------------------------------------------------------------------


    WAVPRE:  cpu time    0.0762: real time    0.1454
    FEWALD:  cpu time    0.0011: real time    0.0011

 real space projection operators:
  total allocation   :      13554.42 KBytes
  max/ min on nodes  :       6785.27       6769.16

