metal                                   
           1
     7.296955   -4.212899    0.000000
     0.000000    8.425798    0.000000
     0.000000    0.000000   21.879635
   C    O    Pt
   1   2  36
Direct configuration=     1
   0.69737846  0.43337520  0.47255708
   0.90610161  0.38346827  0.46328039
   0.66924192  0.46023108  0.52244561
   0.98675500  0.32859100  0.07437600
   0.32008800  0.32859100  0.07437600
   0.65342200  0.32859100  0.07437600
   0.98675500  0.66192500  0.07437600
   0.32008800  0.66192500  0.07437600
   0.65342200  0.66192500  0.07437600
   0.32008800  0.99525800  0.07437600
   0.65342200  0.99525800  0.07437600
   0.98675500  0.99525800  0.07437600
   0.20897700  0.10636900  0.17918600
   0.54231100  0.10636900  0.17918600
   0.87564400  0.10636900  0.17918600
   0.20897700  0.43970300  0.17918600
   0.54231100  0.43970300  0.17918600
   0.87564400  0.43970300  0.17918600
   0.20897700  0.77303600  0.17918600
   0.54231100  0.77303600  0.17918600
   0.87564400  0.77303600  0.17918600
   0.09631941  0.54944098  0.28470766
   0.43556174  0.88710780  0.27973893
   0.76618229  0.21685430  0.28858119
   0.09806518  0.21894358  0.28718838
   0.43058382  0.21616382  0.28857138
   0.09387493  0.87867078  0.27853002
   0.76818393  0.88072907  0.28237010
   0.43362569  0.55122280  0.28441249
   0.76758559  0.55206427  0.28457692
   0.32803401  0.65932091  0.38331367
   0.65111958  0.99218689  0.38860862
   0.32172422  0.32502038  0.38234641
   0.98436030  0.99594921  0.38609295
   0.32505828  0.99510472  0.38575987
   0.64460662  0.32070689  0.39306404
   0.99253826  0.67240236  0.38643983
   0.99729613  0.31696154  0.39232172
   0.65449081  0.65842732  0.38567591
Direct configuration=     2
   0.69548490  0.43088701  0.47238097
   0.90764803  0.38464440  0.46342153
   0.67041287  0.46109004  0.52245569
   0.98675500  0.32859100  0.07437600
   0.32008800  0.32859100  0.07437600
   0.65342200  0.32859100  0.07437600
   0.98675500  0.66192500  0.07437600
   0.32008800  0.66192500  0.07437600
   0.65342200  0.66192500  0.07437600
   0.32008800  0.99525800  0.07437600
   0.65342200  0.99525800  0.07437600
   0.98675500  0.99525800  0.07437600
   0.20897700  0.10636900  0.17918600
   0.54231100  0.10636900  0.17918600
   0.87564400  0.10636900  0.17918600
   0.20897700  0.43970300  0.17918600
   0.54231100  0.43970300  0.17918600
   0.87564400  0.43970300  0.17918600
   0.20897700  0.77303600  0.17918600
   0.54231100  0.77303600  0.17918600
   0.87564400  0.77303600  0.17918600
   0.09643953  0.54899441  0.28436923
   0.43523343  0.88666777  0.28018410
   0.76585654  0.21710950  0.28782502
   0.09690244  0.21892717  0.28595061
   0.43223973  0.21614501  0.28679211
   0.09527543  0.87982357  0.27942185
   0.76728615  0.88170966  0.28233289
   0.43367911  0.55127381  0.28336008
   0.76669111  0.55029865  0.28408811
   0.32747762  0.66061080  0.38381566
   0.65090811  0.99114061  0.38839000
   0.32150399  0.32514201  0.38371969
   0.98464755  0.99406282  0.38644185
   0.32311202  0.99273199  0.38601901
   0.64447039  0.32219183  0.39347841
   0.99350514  0.67270131  0.38643107
   0.99736949  0.31810154  0.39284287
   0.65530896  0.65997068  0.38606991
Direct configuration=     3
   0.69176284  0.42728322  0.47330983
   0.91060239  0.38707171  0.46385544
   0.67285237  0.46213378  0.52172232
   0.98675500  0.32859100  0.07437600
   0.32008800  0.32859100  0.07437600
   0.65342200  0.32859100  0.07437600
   0.98675500  0.66192500  0.07437600
   0.32008800  0.66192500  0.07437600
   0.65342200  0.66192500  0.07437600
   0.32008800  0.99525800  0.07437600
   0.65342200  0.99525800  0.07437600
   0.98675500  0.99525800  0.07437600
   0.20897700  0.10636900  0.17918600
   0.54231100  0.10636900  0.17918600
   0.87564400  0.10636900  0.17918600
   0.20897700  0.43970300  0.17918600
   0.54231100  0.43970300  0.17918600
   0.87564400  0.43970300  0.17918600
   0.20897700  0.77303600  0.17918600
   0.54231100  0.77303600  0.17918600
   0.87564400  0.77303600  0.17918600
   0.09671202  0.54837228  0.28387837
   0.43456449  0.88584109  0.28086933
   0.76540065  0.21752905  0.28677433
   0.09572375  0.21895889  0.28454910
   0.43397953  0.21629494  0.28465465
   0.09702698  0.88145814  0.28070686
   0.76616003  0.88299695  0.28231720
   0.43345849  0.55092609  0.28222176
   0.76561605  0.54825100  0.28344874
   0.32669186  0.66217957  0.38448520
   0.65078372  0.98988899  0.38801062
   0.32107429  0.32494531  0.38515339
   0.98542528  0.99207617  0.38688537
   0.32079142  0.99019419  0.38632334
   0.64333488  0.32355051  0.39353041
   0.99468949  0.67257291  0.38637881
   0.99767526  0.31917883  0.39336842
   0.65622486  0.66226695  0.38647230
Direct configuration=     4
   0.69069824  0.42521795  0.47266314
   0.91177866  0.38801761  0.46400051
   0.67334424  0.46317654  0.52243512
   0.98675500  0.32859100  0.07437600
   0.32008800  0.32859100  0.07437600
   0.65342200  0.32859100  0.07437600
   0.98675500  0.66192500  0.07437600
   0.32008800  0.66192500  0.07437600
   0.65342200  0.66192500  0.07437600
   0.32008800  0.99525800  0.07437600
   0.65342200  0.99525800  0.07437600
   0.98675500  0.99525800  0.07437600
   0.20897700  0.10636900  0.17918600
   0.54231100  0.10636900  0.17918600
   0.87564400  0.10636900  0.17918600
   0.20897700  0.43970300  0.17918600
   0.54231100  0.43970300  0.17918600
   0.87564400  0.43970300  0.17918600
   0.20897700  0.77303600  0.17918600
   0.54231100  0.77303600  0.17918600
   0.87564400  0.77303600  0.17918600
   0.09682286  0.54819481  0.28372855
   0.43430656  0.88554150  0.28108794
   0.76525174  0.21765250  0.28644892
   0.09541452  0.21896392  0.28416854
   0.43440589  0.21634002  0.28404543
   0.09752376  0.88195898  0.28109393
   0.76584552  0.88337276  0.28231858
   0.43334623  0.55075652  0.28193398
   0.76533573  0.54773594  0.28326284
   0.32642746  0.66259580  0.38469312
   0.65079572  0.98957562  0.38787584
   0.32090654  0.32484847  0.38553804
   0.98572198  0.99155793  0.38702242
   0.32016398  0.98955305  0.38641901
   0.64290908  0.32399362  0.39353712
   0.99498784  0.67236930  0.38636070
   0.99777290  0.31944414  0.39351903
   0.65646194  0.66299347  0.38656116
