 vasp.5.4.4 16052018 (build Apr 24 2014 20:13:14) complex standard
 Contain Constrained Minimization Technique (TS), Periodic NBO, VASPsol, libbeef, VASP2WANNIER90, Constrained Cell Relaxation
 executed on Center for Computational Chemistry by phu@node09 date 2025.09.27 17:24:37
 running on    8 total cores
 distrk:  each k-point on    8 cores,    1 groups
 distr:  one band on NCORES_PER_BAND=   2 cores,    4 groups


--------------------------------------------------------------------------------------------------------


 INCAR:
 POTCAR:   PAW_PBE C 08Apr2002                    
 POTCAR:   PAW_PBE O 08Apr2002                    
 POTCAR:    PAW_PBE Pt 04Feb2005                  
 POTCAR:   PAW_PBE C 08Apr2002                    
   VRHFIN =C: s2p2                                                              
   LEXCH  = PE                                                                  
   EATOM  =   147.1560 eV,   10.8157 Ry                                         
                                                                                
   TITEL  = PAW_PBE C 08Apr2002                                                 
   LULTRA =        F    use ultrasoft PP ?                                      
   IUNSCR =        0    unscreen: 0-lin 1-nonlin 2-no                           
   RPACOR =     .000    partial core radius                                     
   POMASS =   12.011; ZVAL   =    4.000    mass and valenz                      
   RCORE  =    1.500    outmost cutoff radius                                   
   RWIGS  =    1.630; RWIGS  =     .863    wigner-seitz radius (au A)           
   ENMAX  =  400.000; ENMIN  =  300.000 eV                                      
   ICORE  =        2    local potential                                         
   LCOR   =        T    correct aug charges                                     
   LPAW   =        T    paw PP                                                  
   EAUG   =  644.873                                                            
   DEXC   =     .000                                                            
   RMAX   =    2.266    core radius for proj-oper                               
   RAUG   =    1.300    factor for augmentation sphere                          
   RDEP   =    1.501    radius for radial grids                                 
   RDEPT  =    1.300    core radius for aug-charge                              
   QCUT   =   -5.516; QGAM   =   11.032    optimization parameters              
                                                                                
   Description                                                                  
     l     E      TYP  RCUT    TYP  RCUT                                        
     0   .000     23  1.200                                                     
     0   .000     23  1.200                                                     
     1   .000     23  1.500                                                     
     1  2.500     23  1.500                                                     
     2   .000      7  1.500                                                     
  local pseudopotential read in
  atomic valenz-charges read in
  non local Contribution for L=           0  read in
    real space projection operators read in
  non local Contribution for L=           0  read in
    real space projection operators read in
  non local Contribution for L=           1  read in
    real space projection operators read in
  non local Contribution for L=           1  read in
    real space projection operators read in
    PAW grid and wavefunctions read in
 
   number of l-projection  operators is LMAX  =           4
   number of lm-projection operators is LMMAX =           8
 
 POTCAR:   PAW_PBE O 08Apr2002                    
   VRHFIN =O: s2p4                                                              
   LEXCH  = PE                                                                  
   EATOM  =   432.3788 eV,   31.7789 Ry                                         
                                                                                
   TITEL  = PAW_PBE O 08Apr2002                                                 
   LULTRA =        F    use ultrasoft PP ?                                      
   IUNSCR =        0    unscreen: 0-lin 1-nonlin 2-no                           
   RPACOR =     .000    partial core radius                                     
   POMASS =   16.000; ZVAL   =    6.000    mass and valenz                      
   RCORE  =    1.520    outmost cutoff radius                                   
   RWIGS  =    1.550; RWIGS  =     .820    wigner-seitz radius (au A)           
   ENMAX  =  400.000; ENMIN  =  300.000 eV                                      
   ICORE  =        2    local potential                                         
   LCOR   =        T    correct aug charges                                     
   LPAW   =        T    paw PP                                                  
   EAUG   =  605.392                                                            
   DEXC   =     .000                                                            
   RMAX   =    2.264    core radius for proj-oper                               
   RAUG   =    1.300    factor for augmentation sphere                          
   RDEP   =    1.550    radius for radial grids                                 
   QCUT   =   -5.520; QGAM   =   11.041    optimization parameters              
                                                                                
   Description                                                                  
     l     E      TYP  RCUT    TYP  RCUT                                        
     0   .000     23  1.200                                                     
     0  -.700     23  1.200                                                     
     1   .000     23  1.520                                                     
     1   .600     23  1.520                                                     
     2   .000      7  1.500                                                     
  local pseudopotential read in
  atomic valenz-charges read in
  non local Contribution for L=           0  read in
    real space projection operators read in
  non local Contribution for L=           0  read in
    real space projection operators read in
  non local Contribution for L=           1  read in
    real space projection operators read in
  non local Contribution for L=           1  read in
    real space projection operators read in
    PAW grid and wavefunctions read in
 
   number of l-projection  operators is LMAX  =           4
   number of lm-projection operators is LMMAX =           8
 
 POTCAR:    PAW_PBE Pt 04Feb2005                  
   VRHFIN =Pt: s1d9                                                             
   LEXCH  = PE                                                                  
   EATOM  =   729.1182 eV,   53.5887 Ry                                         
                                                                                
   TITEL  = PAW_PBE Pt 04Feb2005                                                
   LULTRA =        F    use ultrasoft PP ?                                      
   IUNSCR =        1    unscreen: 0-lin 1-nonlin 2-no                           
   RPACOR =    2.330    partial core radius                                     
   POMASS =  195.080; ZVAL   =   10.000    mass and valenz                      
   RCORE  =    2.600    outmost cutoff radius                                   
   RWIGS  =    2.750; RWIGS  =    1.455    wigner-seitz radius (au A)           
   ENMAX  =  230.283; ENMIN  =  172.712 eV                                      
   ICORE  =        3    local potential                                         
   LCOR   =        T    correct aug charges                                     
   LPAW   =        T    paw PP                                                  
   EAUG   =  358.966                                                            
   DEXC   =     .000                                                            
   RMAX   =    3.038    core radius for proj-oper                               
   RAUG   =    1.300    factor for augmentation sphere                          
   RDEP   =    2.761    radius for radial grids                                 
   QCUT   =   -4.114; QGAM   =    8.228    optimization parameters              
                                                                                
   Description                                                                  
     l     E      TYP  RCUT    TYP  RCUT                                        
     2   .000     23  2.500                                                     
     2   .000     23  2.500                                                     
     0   .000     23  2.500                                                     
     0   .000     23  2.500                                                     
     1  -.200     23  2.600                                                     
     1  1.500     23  2.600                                                     
     3   .000     23  2.500                                                     
  local pseudopotential read in
  partial core-charges read in
  atomic valenz-charges read in
  non local Contribution for L=           2  read in
    real space projection operators read in
  non local Contribution for L=           2  read in
    real space projection operators read in
  non local Contribution for L=           0  read in
    real space projection operators read in
  non local Contribution for L=           0  read in
    real space projection operators read in
  non local Contribution for L=           1  read in
    real space projection operators read in
  non local Contribution for L=           1  read in
    real space projection operators read in
    PAW grid and wavefunctions read in
 
   number of l-projection  operators is LMAX  =           6
   number of lm-projection operators is LMMAX =          18
 
 Optimization of the real space projectors (new method)

 maximal supplied QI-value         = 25.13
 optimisation between [QCUT,QGAM] = [ 10.81, 21.61] = [ 32.71,130.83] Ry 
 Optimized for a Real-space Cutoff    1.23 Angstroem

   l    n(q)    QCUT    max X(q) W(low)/X(q) W(high)/X(q)  e(spline) 
   0      8    10.807     5.582    0.53E-04    0.84E-04    0.44E-07
   0      8    10.807    69.432    0.35E-03    0.71E-03    0.24E-06
   1      7    10.807     2.780    0.44E-04    0.88E-04    0.89E-07
   1      7    10.807     4.549    0.14E-03    0.28E-03    0.13E-06
 Optimization of the real space projectors (new method)

 maximal supplied QI-value         = 24.76
 optimisation between [QCUT,QGAM] = [ 10.64, 21.54] = [ 31.73,129.89] Ry 
 Optimized for a Real-space Cutoff    1.23 Angstroem

   l    n(q)    QCUT    max X(q) W(low)/X(q) W(high)/X(q)  e(spline) 
   0      8    10.645     4.192    0.69E-04    0.93E-04    0.58E-07
   0      8    10.645     8.473    0.40E-03    0.65E-03    0.17E-06
   1      7    10.645     2.474    0.80E-04    0.12E-03    0.30E-07
   1      7    10.645     3.912    0.24E-03    0.53E-03    0.16E-06
 Optimization of the real space projectors (new method)

 maximal supplied QI-value         = 14.36
 optimisation between [QCUT,QGAM] = [ 10.77, 21.69] = [ 32.49,131.70] Ry 
 Optimized for a Real-space Cutoff    1.46 Angstroem

   l    n(q)    QCUT    max X(q) W(low)/X(q) W(high)/X(q)  e(spline) 
   2      9    10.771     3.903    0.38E-04    0.12E-03    0.82E-07
   2      9    10.771    18.372    0.13E-03    0.32E-03    0.28E-06
   0     10    10.771    13.697    0.11E-04    0.86E-05    0.85E-08
   0     10    10.771    65.529    0.40E-04    0.12E-03    0.14E-06
   1      9    10.771     7.604    0.48E-04    0.31E-04    0.38E-07
   1      9    10.771    12.136    0.35E-03    0.16E-03    0.23E-06
 PAW_PBE C 08Apr2002                    :
 energy of atom  1       EATOM= -147.1560
 kinetic energy error for atom=    0.0116 (will be added to EATOM!!)
 PAW_PBE O 08Apr2002                    :
 energy of atom  2       EATOM= -432.3788
 kinetic energy error for atom=    0.0389 (will be added to EATOM!!)
  PAW_PBE Pt 04Feb2005                  :
 energy of atom  3       EATOM= -729.1182
 kinetic energy error for atom=    0.0051 (will be added to EATOM!!)
 
 
 POSCAR: C    O    Pt                            
  positions in direct lattice
  No initial velocities read in
 exchange correlation table for  LEXCH =        8
   RHO(1)=    0.500       N(1)  =     2000
   RHO(2)=  100.500       N(2)  =     4000

 VTST: version 3.2, (02/03/18)

 CHAIN: initializing optimizer
 
 OPT: Using VASP QUASI-newton optimizer
 CHAIN: Read ICHAIN            0
 
 POSCAR: C    O    Pt                            
  positions in direct lattice
  No initial velocities read in
 


--------------------------------------------------------------------------------------------------------


 ion  position               nearest neighbor table
   1  0.700  0.432  0.477-   3 1.16   2 1.99  36 2.00
   2  0.906  0.384  0.462-  38 1.90   1 1.99  36 2.48  37 2.61
   3  0.672  0.459  0.526-   1 1.16
   4  0.987  0.329  0.074-  15 2.81  16 2.81  12 2.81   5 2.81  11 2.81   6 2.81  18 2.81   8 2.81
                             7 2.81
   5  0.320  0.329  0.074-  13 2.81  10 2.81   4 2.81  12 2.81  16 2.81  17 2.81   8 2.81   9 2.81
                             6 2.81
   6  0.653  0.329  0.074-  14 2.81  18 2.81  11 2.81   4 2.81  17 2.81   7 2.81  10 2.81   9 2.81
                             5 2.81
   7  0.987  0.662  0.074-  18 2.81  21 2.81  19 2.81  12 2.81   8 2.81  10 2.81   9 2.81   6 2.81
                             4 2.81
   8  0.320  0.662  0.074-  16 2.81  19 2.81  10 2.81   7 2.81  20 2.81   4 2.81  11 2.81   5 2.81
                             9 2.81
   9  0.653  0.662  0.074-  17 2.81  20 2.81  21 2.81  11 2.81  12 2.81   7 2.81   6 2.81   5 2.81
                             8 2.81
  10  0.320  0.995  0.074-  13 2.81  19 2.81   5 2.81   8 2.81  12 2.81   7 2.81  14 2.81   6 2.81
                            11 2.81
  11  0.653  0.995  0.074-  14 2.81  20 2.81  15 2.81   9 2.81   6 2.81  12 2.81   4 2.81   8 2.81
                            10 2.81
  12  0.987  0.995  0.074-  15 2.81  21 2.81  13 2.81   7 2.81   4 2.81  10 2.81   5 2.81  11 2.81
                             9 2.81
  13  0.209  0.106  0.179-  26 2.81  10 2.81   5 2.81  12 2.81  19 2.81  15 2.81  21 2.81  16 2.81
                            17 2.81  14 2.81  25 2.82  27 2.87
  14  0.542  0.106  0.179-  26 2.76  23 2.78  24 2.79  11 2.81   6 2.81  20 2.81  15 2.81  10 2.81
                            18 2.81  19 2.81  17 2.81  13 2.81
  15  0.876  0.106  0.179-  24 2.76  28 2.77  25 2.80  12 2.81   4 2.81  11 2.81  21 2.81  13 2.81
                            14 2.81  20 2.81  16 2.81  18 2.81
  16  0.209  0.440  0.179-  29 2.73  22 2.80   8 2.81   4 2.81  19 2.81  18 2.81   5 2.81  15 2.81
                            20 2.81  13 2.81  17 2.81  25 2.82
  17  0.542  0.440  0.179-  29 2.72  26 2.80   9 2.81  20 2.81  21 2.81  18 2.81   6 2.81   5 2.81
                            14 2.81  16 2.81  13 2.81  30 2.82
  18  0.876  0.440  0.179-  24 2.80   7 2.81   6 2.81  21 2.81  16 2.81  19 2.81  17 2.81   4 2.81
                            14 2.81  15 2.81  30 2.81  22 2.83
  19  0.209  0.773  0.179-  23 2.78  22 2.81   8 2.81  10 2.81   7 2.81  16 2.81  13 2.81  18 2.81
                            21 2.81  14 2.81  20 2.81  27 2.88
  20  0.542  0.773  0.179-  28 2.75  29 2.76   9 2.81  11 2.81  17 2.81  14 2.81  15 2.81  21 2.81
                             8 2.81  16 2.81  19 2.81  23 2.83
  21  0.876  0.773  0.179-  28 2.77  12 2.81   7 2.81   9 2.81  18 2.81  15 2.81  19 2.81  13 2.81
                            17 2.81  20 2.81  30 2.83  27 2.86
  22  0.102  0.552  0.284-  31 2.77  23 2.78  29 2.79  16 2.80  19 2.81  25 2.81  18 2.83  30 2.83
                            27 2.83  24 2.84  37 2.84  38 2.92
  23  0.427  0.888  0.283-  26 2.73  27 2.78  19 2.78  35 2.78  14 2.78  22 2.78  31 2.79  24 2.81
                            20 2.83  28 2.84  32 2.87  29 2.90
  24  0.767  0.214  0.282-  15 2.76  25 2.76  28 2.76  14 2.79  18 2.80  26 2.80  23 2.81  30 2.83
                            22 2.84  32 2.86  38 2.92  36 2.93
  25  0.095  0.216  0.284-  33 2.75  24 2.76  38 2.79  27 2.79  29 2.80  15 2.80  28 2.80  22 2.81
                            34 2.82  13 2.82  16 2.82  26 2.86
  26  0.435  0.216  0.283-  23 2.73  33 2.75  14 2.76  30 2.79  17 2.80  24 2.80  29 2.80  13 2.81
                            27 2.83  35 2.86  25 2.86  36 2.87
  27  0.096  0.885  0.287-  34 2.68  23 2.78  37 2.78  25 2.79  35 2.80  28 2.81  30 2.82  26 2.83
                            22 2.83  21 2.86  13 2.87  19 2.88
  28  0.762  0.884  0.281-  20 2.75  24 2.76  15 2.77  21 2.77  25 2.80  27 2.81  29 2.83  39 2.83
                            30 2.84  23 2.84  32 2.86  34 2.86
  29  0.429  0.546  0.280-  17 2.72  16 2.73  20 2.76  33 2.79  22 2.79  25 2.80  26 2.80  30 2.81
                            28 2.83  31 2.86  23 2.90  39 2.90
  30  0.764  0.548  0.285-  26 2.79  18 2.81  29 2.81  27 2.82  17 2.82  24 2.83  21 2.83  22 2.83
                            39 2.83  28 2.84  37 2.89  36 2.90
  31  0.324  0.665  0.387-  35 2.75  37 2.77  22 2.77  32 2.77  39 2.78  23 2.79  33 2.85  29 2.86
                            38 2.86
  32  0.655  0.993  0.390-  39 2.74  31 2.77  35 2.78  36 2.78  38 2.80  34 2.85  24 2.86  28 2.86
                            23 2.87
  33  0.324  0.327  0.384-  38 2.75  26 2.75  25 2.75  36 2.76  29 2.79  35 2.83  39 2.83  34 2.84
                            31 2.85
  34  0.990  0.987  0.388-  27 2.68  37 2.73  39 2.76  38 2.77  35 2.79  25 2.82  33 2.84  32 2.85
                            28 2.86
  35  0.323  0.991  0.390-  37 2.74  36 2.75  31 2.75  23 2.78  32 2.78  34 2.79  27 2.80  33 2.83
                            26 2.86
  36  0.647  0.320  0.393-   1 2.00   2 2.48  35 2.75  33 2.76  32 2.78  26 2.87  39 2.90  30 2.90
                            24 2.93  38 2.93  37 2.94
  37  0.997  0.667  0.391-   2 2.61  34 2.73  35 2.74  31 2.77  27 2.78  22 2.84  39 2.88  30 2.89
                            38 2.93  36 2.94
  38  0.994  0.318  0.392-   2 1.90  33 2.75  34 2.77  25 2.79  32 2.80  31 2.86  24 2.92  22 2.92
                            36 2.93  37 2.93
  39  0.655  0.668  0.389-  32 2.74  34 2.76  31 2.78  33 2.83  30 2.83  28 2.83  37 2.88  29 2.90
                            36 2.90
 

IMPORTANT INFORMATION: All symmetrisations will be switched off!
NOSYMM: (Re-)initialisation of all symmetry stuff for point group C_1.

 
 
 KPOINTS: mesh auto                               

Automatic generation of k-mesh.
Space group operators:
 irot       det(A)        alpha          n_x          n_y          n_z        tau_x        tau_y        tau_z
    1     1.000000     0.000000     1.000000     0.000000     0.000000     0.000000     0.000000     0.000000
 
 Subroutine IBZKPT returns following result:
 ===========================================
 
 Found      4 irreducible k-points:
 
 Following reciprocal coordinates:
            Coordinates               Weight
  0.000000  0.000000  0.000000      1.000000
  0.500000  0.000000  0.000000      1.000000
 -0.000000  0.500000  0.000000      1.000000
  0.500000  0.500000  0.000000      1.000000
 
 Following cartesian coordinates:
            Coordinates               Weight
  0.000000  0.000000  0.000000      1.000000
  0.068522  0.000000  0.000000      1.000000
  0.034261  0.059342  0.000000      1.000000
  0.102783  0.059342  0.000000      1.000000
 


--------------------------------------------------------------------------------------------------------




 Dimension of arrays:
   k-points           NKPTS =      4   k-points in BZ     NKDIM =      4   number of bands    NBANDS=    228
   number of dos      NEDOS =    301   number of ions     NIONS =     39
   non local maximal  LDIM  =      6   non local SUM 2l+1 LMDIM =     18
   total plane-waves  NPLWV = 276480
   max r-space proj   IRMAX =   2756   max aug-charges    IRDMAX=  12646
   dimension x,y,z NGX =    48 NGY =   48 NGZ =  120
   dimension x,y,z NGXF=    96 NGYF=   96 NGZF=  240
   support grid    NGXF=    96 NGYF=   96 NGZF=  240
   ions per type =               1   2  36
   NGX,Y,Z   is equivalent  to a cutoff of   9.47,  9.47,  9.12 a.u.
   NGXF,Y,Z  is equivalent  to a cutoff of  18.94, 18.94, 18.24 a.u.

 SYSTEM =  metal                                   
 POSCAR =  C    O    Pt                            

 Startparameter for this run:
   NWRITE =      2    write-flag & timer
   PREC   = normal    normal or accurate (medium, high low for compatibility)
   ISTART =      0    job   : 0-new  1-cont  2-samecut
   ICHARG =      2    charge: 1-file 2-atom 10-const
   ISPIN  =      1    spin polarized calculation?
   LNONCOLLINEAR =      F non collinear calculations
   LSORBIT =      F    spin-orbit coupling
   INIWAV =      1    electr: 0-lowe 1-rand  2-diag
   LASPH  =      F    aspherical Exc in radial PAW
   METAGGA=      F    non-selfconsistent MetaGGA calc.

 Electronic Relaxation 1
   ENCUT  =  450.0 eV  33.07 Ry    5.75 a.u.  14.57 14.57 37.84*2*pi/ulx,y,z
   ENINI  =  450.0     initial cutoff
   ENAUG  =  644.9 eV  augmentation charge cutoff
   NELM   =     60;   NELMIN=  8; NELMDL= -5     # of ELM steps 
   EDIFF  = 0.1E-03   stopping-criterion for ELM
   LREAL  =      T    real-space projection
   NLSPLINE    = F    spline interpolate recip. space projectors
   LCOMPAT=      F    compatible to vasp.4.4
   GGA_COMPAT  = T    GGA compatible to vasp.4.4-vasp.4.6
   LMAXPAW     = -100 max onsite density
   LMAXMIX     =    2 max onsite mixed and CHGCAR
   VOSKOWN=      0    Vosko Wilk Nusair interpolation
   ROPT   =   -0.00050  -0.00050  -0.00050
 Ionic relaxation
   EDIFFG = -.5E-01   stopping-criterion for IOM
   NSW    =   5000    number of steps for IOM
   NBLOCK =      1;   KBLOCK =   5000    inner block; outer block 
   IBRION =      1    ionic relax: 0-MD 1-quasi-New 2-CG
   NFREE  =      0    steps in history (QN), initial steepest desc. (CG)
   ISIF   =      2    stress and relaxation
   IWAVPR =     11    prediction:  0-non 1-charg 2-wave 3-comb
   ISYM   =      0    0-nonsym 1-usesym 2-fastsym
   LCORR  =      T    Harris-Foulkes like correction to forces

   POTIM  = 0.2000    time-step for ionic-motion
   TEIN   =    0.0    initial temperature
   TEBEG  =    0.0;   TEEND  =   0.0 temperature during run
   SMASS  =  -3.00    Nose mass-parameter (am)
   estimated Nose-frequenzy (Omega)   =  0.10E-29 period in steps =****** mass=  -0.162E-26a.u.
   SCALEE = 1.0000    scale energy and forces
   NPACO  =    256;   APACO  = 16.0  distance and # of slots for P.C.
   PSTRESS=    0.0 pullay stress

  Mass of Ions in am
   POMASS =  12.01 16.00195.08
  Ionic Valenz
   ZVAL   =   4.00  6.00 10.00
  Atomic Wigner-Seitz radii
   RWIGS  =  -1.00 -1.00 -1.00
  virtual crystal weights 
   VCA    =   1.00  1.00  1.00
   NELECT =     376.0000    total number of electrons
   NUPDOWN=      -1.0000    fix difference up-down

 DOS related values:
   EMIN   =  10.00;   EMAX   =-10.00  energy-range for DOS
   EFERMI =   0.00
   ISMEAR =     1;   SIGMA  =   0.20  broadening in eV -4-tet -1-fermi 0-gaus

 Electronic relaxation 2 (details)
   IALGO  =     68    algorithm
   LDIAG  =      T    sub-space diagonalisation (order eigenvalues)
   LSUBROT=      F    optimize rotation matrix (better conditioning)
   TURBO    =      0    0=normal 1=particle mesh
   IRESTART =      0    0=no restart 2=restart with 2 vectors
   NREBOOT  =      0    no. of reboots
   NMIN     =      0    reboot dimension
   EREF     =   0.00    reference energy to select bands
   IMIX   =      4    mixing-type and parameters
     AMIX     =   0.40;   BMIX     =  1.00
     AMIX_MAG =   1.60;   BMIX_MAG =  1.00
     AMIN     =   0.10
     WC   =   100.;   INIMIX=   1;  MIXPRE=   1;  MAXMIX= -45

 Intra band minimization:
   WEIMIN = 0.0010     energy-eigenvalue tresh-hold
   EBREAK =  0.11E-06  absolut break condition
   DEPER  =   0.30     relativ break condition  

   TIME   =   0.40     timestep for ELM

  volume/ion in A,a.u.               =      34.49       232.77
  Fermi-wavevector in a.u.,A,eV,Ry     =   1.070385  2.022734 15.588510  1.145723
  Thomas-Fermi vector in A             =   2.206093
 
 Write flags
   LWAVE        =      F    write WAVECAR
   LDOWNSAMPLE  =      F    k-point downsampling of WAVECAR
   LCHARG       =      F    write CHGCAR
   LVTOT        =      F    write LOCPOT, total local potential
   LVHAR        =      F    write LOCPOT, Hartree potential only
   LELF         =      F    write electronic localiz. function (ELF)
   LORBIT       =      0    0 simple, 1 ext, 2 COOP (PROOUT), +10 PAW based schemes


 Dipole corrections
   LMONO  =      F    monopole corrections only (constant potential shift)
   LDIPOL =      F    correct potential (dipole corrections)
   IDIPOL =      0    1-x, 2-y, 3-z, 4-all directions 
   EPSILON=  1.0000000 bulk dielectric constant

 Exchange correlation treatment:
   GGA     =    --    GGA type
   LEXCH   =     8    internal setting for exchange type
   VOSKOWN=      0    Vosko Wilk Nusair interpolation
   LHFCALC =     F    Hartree Fock is set to
   LHFONE  =     F    Hartree Fock one center treatment
   AEXX    =    0.0000 exact exchange contribution

 Linear response parameters
   LEPSILON=     F    determine dielectric tensor
   LRPA    =     F    only Hartree local field effects (RPA)
   LNABLA  =     F    use nabla operator in PAW spheres
   LVEL    =     F    velocity operator in full k-point grid
   LINTERFAST=   F  fast interpolation
   KINTER  =     0    interpolate to denser k-point grid
   CSHIFT  =0.1000    complex shift for real part using Kramers Kronig
   OMEGAMAX=  -1.0    maximum frequency
   DEG_THRESHOLD= 0.2000000E-02 threshold for treating states as degnerate
   RTIME   =   -0.100 relaxation time in fs
  (WPLASMAI=    0.000 imaginary part of plasma frequency in eV, 0.658/RTIME)
   DFIELD  = 0.0000000 0.0000000 0.0000000 field for delta impulse in time
 
 Orbital magnetization related:
   ORBITALMAG=     F  switch on orbital magnetization
   LCHIMAG   =     F  perturbation theory with respect to B field
   DQ        =  0.001000  dq finite difference perturbation B field
   LLRAUG    =     F  two centre corrections for induced B field



--------------------------------------------------------------------------------------------------------


 quasi-Newton-method for relaxation of ions
   using selective dynamics as specified on POSCAR
 charge density and potential will be updated during run
 non-spin polarized calculation
 RMM-DIIS sequential band-by-band and
  variant of blocked Davidson during initial phase
 perform sub-space diagonalisation
    before iterative eigenvector-optimisation
 modified Broyden-mixing scheme, WC =      100.0
 initial mixing is a Kerker type mixing with AMIX =  0.4000 and BMIX =      1.0000
 Hartree-type preconditioning will be used
 using additional bands           40
 real space projection scheme for non local part
 use partial core corrections
 calculate Harris-corrections to forces 
   (improved forces if not selfconsistent)
 use gradient corrections 
 use of overlap-Matrix (Vanderbilt PP)
 Methfessel and Paxton  Order N= 1 SIGMA  =   0.20


--------------------------------------------------------------------------------------------------------


  energy-cutoff  :      450.00
  volume of cell :     1345.22
      direct lattice vectors                 reciprocal lattice vectors
     7.296955120 -4.212899000  0.000000000     0.137043463  0.000000000  0.000000000
     0.000000000  8.425798000  0.000000000     0.068521732  0.118683121  0.000000000
     0.000000000  0.000000000 21.879635000     0.000000000  0.000000000  0.045704602

  length of vectors
     8.425798004  8.425798000 21.879635000     0.137043463  0.137043463  0.045704602


 
 k-points in units of 2pi/SCALE and weight: mesh auto                               
   0.00000000  0.00000000  0.00000000       0.250
   0.06852173  0.00000000  0.00000000       0.250
   0.03426087  0.05934156  0.00000000       0.250
   0.10278260  0.05934156  0.00000000       0.250
 
 k-points in reciprocal lattice and weights: mesh auto                               
   0.00000000  0.00000000  0.00000000       0.250
   0.50000000  0.00000000  0.00000000       0.250
  -0.00000000  0.50000000  0.00000000       0.250
   0.50000000  0.50000000  0.00000000       0.250
 
 position of ions in fractional coordinates (direct lattice) 
   0.70026032  0.43212078  0.47650588
   0.90609949  0.38429266  0.46191927
   0.67212378  0.45897667  0.52639441
   0.98675500  0.32859100  0.07437600
   0.32008800  0.32859100  0.07437600
   0.65342200  0.32859100  0.07437600
   0.98675500  0.66192500  0.07437600
   0.32008800  0.66192500  0.07437600
   0.65342200  0.66192500  0.07437600
   0.32008800  0.99525800  0.07437600
   0.65342200  0.99525800  0.07437600
   0.98675500  0.99525800  0.07437600
   0.20897700  0.10636900  0.17918600
   0.54231100  0.10636900  0.17918600
   0.87564400  0.10636900  0.17918600
   0.20897700  0.43970300  0.17918600
   0.54231100  0.43970300  0.17918600
   0.87564400  0.43970300  0.17918600
   0.20897700  0.77303600  0.17918600
   0.54231100  0.77303600  0.17918600
   0.87564400  0.77303600  0.17918600
   0.10219229  0.55225601  0.28413713
   0.42690516  0.88809895  0.28335952
   0.76680104  0.21405517  0.28246612
   0.09545020  0.21579818  0.28432503
   0.43530271  0.21588390  0.28288695
   0.09587842  0.88501455  0.28734561
   0.76200745  0.88371981  0.28145319
   0.42922607  0.54557473  0.27983097
   0.76442483  0.54847714  0.28455965
   0.32416548  0.66540292  0.38686371
   0.65470984  0.99310447  0.39017651
   0.32398580  0.32733905  0.38424955
   0.98984638  0.98711121  0.38801331
   0.32342314  0.99138815  0.39010706
   0.64721710  0.31967952  0.39314403
   0.99668829  0.66684911  0.39142409
   0.99397568  0.31771834  0.39214816
   0.65490451  0.66792864  0.38904456
 
 position of ions in cartesian coordinates  (Angst):
   5.10976815  0.69083643 10.42577479
   6.61176730 -0.57933333 10.10662513
   4.90445704  1.03565509 11.51731766
   7.20030695 -1.38845776  1.62731973
   2.33566777  1.42014298  1.62731973
   4.76799101  0.01584050  1.62731973
   7.20030695  1.42014719  1.62731973
   2.33566777  4.22874793  1.62731973
   4.76799101  2.82444545  1.62731973
   2.33566777  7.03734445  1.62731973
   4.76799101  5.63304198  1.62731973
   7.20030695  4.22874371  1.62731973
   1.52489579  0.01584471  3.92052428
   3.95721903 -1.38845776  3.92052428
   6.38953497 -2.79275602  3.92052428
   1.52489579  2.82444966  3.92052428
   3.95721903  1.42014719  3.92052428
   6.38953497  0.01584893  3.92052428
   1.52489579  5.63304619  3.92052428
   3.95721903  4.22874371  3.92052428
   6.38953497  2.82444545  3.92052428
   0.74569256  4.22267176  6.21681677
   3.11510780  5.68443407  6.19980277
   5.59531279 -1.42686969  6.18025561
   0.69649582  1.41614983  6.22092797
   3.17638437 -0.01489226  6.18946313
   0.69962055  7.05302768  6.28701709
   5.56033418  4.23578418  6.15809298
   3.13204339  2.78861638  6.12259946
   5.57797365  1.40091300  6.22606130
   2.36542097  4.24087420  8.46443677
   4.77738836  5.60947119  8.53691955
   2.36410985  1.39317325  8.40723998
   7.22286458  4.14707684  8.48958964
   2.36000413  6.99068731  8.53540016
   4.72271414 -0.03310524  8.60184781
   7.27278970  1.41978882  8.56421622
   7.25299596 -1.51048861  8.58005870
   4.77880883  2.86878522  8.51215307
 


--------------------------------------------------------------------------------------------------------


 k-point  1 :   0.0000 0.0000 0.0000  plane waves:   29241
 k-point  2 :   0.5000 0.0000 0.0000  plane waves:   29108
 k-point  3 :  -0.0000 0.5000 0.0000  plane waves:   29108
 k-point  4 :   0.5000 0.5000 0.0000  plane waves:   29108

 maximum and minimum number of plane-waves per node :     14624    14548

 maximum number of plane-waves:     29241
 maximum index in each direction: 
   IXMAX=   14   IYMAX=   14   IZMAX=   37
   IXMIN=  -15   IYMIN=  -15   IZMIN=  -37


 real space projection operators:
  total allocation   :      13554.50 KBytes
  max/ min on nodes  :       6785.64       6768.86


 parallel 3D FFT for wavefunctions:
    minimum data exchange during FFTs selected (reduces bandwidth)
 parallel 3D FFT for charge:
    minimum data exchange during FFTs selected (reduces bandwidth)


 total amount of memory used by VASP MPI-rank0   131956. kBytes
=======================================================================

   base      :      30000. kBytes
   nonlr-proj:      10148. kBytes
   fftplans  :      13556. kBytes
   grid      :      23353. kBytes
   one-center:        311. kBytes
   wavefun   :      54588. kBytes
 
     INWAV:  cpu time    0.0000: real time    0.0000
 Broyden mixing: mesh for mixing (old mesh)
   NGX = 29   NGY = 29   NGZ = 75
  (NGX  = 96   NGY  = 96   NGZ  =240)
  gives a total of  63075 points

 initial charge density was supplied:
 charge density of overlapping atoms calculated
 number of electron     376.0000000 magnetization 
 keeping initial charge density in first step


--------------------------------------------------------------------------------------------------------


 Maximum index for non-local projection operator         1324
 Maximum index for augmentation-charges         1558 (set IRDMAX)


--------------------------------------------------------------------------------------------------------


 First call to EWALD:  gamma=   0.161
 Maximum number of real-space cells 4x 4x 2
 Maximum number of reciprocal cells 2x 2x 5

    FEWALD:  cpu time    0.0088: real time    0.0089


--------------------------------------- Iteration      1(   1)  ---------------------------------------


    POTLOK:  cpu time    0.1752: real time    0.4270
    SETDIJ:  cpu time    0.0228: real time    0.0229
     EDDAV:  cpu time    9.4195: real time    9.5295
       DOS:  cpu time    0.0011: real time    0.0011
    --------------------------------------------
      LOOP:  cpu time    9.6187: real time    9.9806

 eigenvalue-minimisations  :  1824
 total energy-change (2. order) : 0.2419317E+04  (-0.1594907E+05)
 number of electron     376.0000000 magnetization 
 augmentation part      376.0000000 magnetization 

 Free energy of the ion-electron system (eV)
  ---------------------------------------------------
  alpha Z        PSCENC =       975.10247152
  Ewald energy   TEWEN  =     91018.64578904
  -Hartree energ DENC   =   -120110.69920518
  -exchange      EXHF   =         0.00000000
  -V(xc)+E(xc)   XCENC  =       189.44400443
  PAW double counting   =     24789.08602224   -23775.73976456
  entropy T*S    EENTRO =        -0.00927700
  eigenvalues    EBANDS =      2073.59299106
  atomic energy  EATOM  =     27259.89416086
  Solvation  Ediel_sol  =         0.00000000
  ---------------------------------------------------
  free energy    TOTEN  =      2419.31719243 eV

  energy without entropy =     2419.32646942  energy(sigma->0) =     2419.32028476


--------------------------------------------------------------------------------------------------------




--------------------------------------- Iteration      1(   2)  ---------------------------------------


     EDDAV:  cpu time   10.8021: real time   10.8836
       DOS:  cpu time    0.0009: real time    0.0010
    --------------------------------------------
      LOOP:  cpu time   10.8031: real time   10.8846

 eigenvalue-minimisations  :  2112
 total energy-change (2. order) :-0.2482416E+04  (-0.2302864E+04)
 number of electron     376.0000000 magnetization 
 augmentation part      376.0000000 magnetization 

 Free energy of the ion-electron system (eV)
  ---------------------------------------------------
  alpha Z        PSCENC =       975.10247152
  Ewald energy   TEWEN  =     91018.64578904
  -Hartree energ DENC   =   -120110.69920518
  -exchange      EXHF   =         0.00000000
  -V(xc)+E(xc)   XCENC  =       189.44400443
  PAW double counting   =     24789.08602224   -23775.73976456
  entropy T*S    EENTRO =        -0.00761277
  eigenvalues    EBANDS =      -408.82492389
  atomic energy  EATOM  =     27259.89416086
  Solvation  Ediel_sol  =         0.00000000
  ---------------------------------------------------
  free energy    TOTEN  =       -63.09905829 eV

  energy without entropy =      -63.09144553  energy(sigma->0) =      -63.09652070


--------------------------------------------------------------------------------------------------------




--------------------------------------- Iteration      1(   3)  ---------------------------------------


     EDDAV:  cpu time   11.1853: real time   11.3080
       DOS:  cpu time    0.0011: real time    0.0011
    --------------------------------------------
      LOOP:  cpu time   11.1864: real time   11.3091

 eigenvalue-minimisations  :  2168
 total energy-change (2. order) :-0.1771305E+03  (-0.1606877E+03)
 number of electron     376.0000000 magnetization 
 augmentation part      376.0000000 magnetization 

 Free energy of the ion-electron system (eV)
  ---------------------------------------------------
  alpha Z        PSCENC =       975.10247152
  Ewald energy   TEWEN  =     91018.64578904
  -Hartree energ DENC   =   -120110.69920518
  -exchange      EXHF   =         0.00000000
  -V(xc)+E(xc)   XCENC  =       189.44400443
  PAW double counting   =     24789.08602224   -23775.73976456
  entropy T*S    EENTRO =        -0.01244530
  eigenvalues    EBANDS =      -585.95059478
  atomic energy  EATOM  =     27259.89416086
  Solvation  Ediel_sol  =         0.00000000
  ---------------------------------------------------
  free energy    TOTEN  =      -240.22956172 eV

  energy without entropy =     -240.21711642  energy(sigma->0) =     -240.22541329


--------------------------------------------------------------------------------------------------------




--------------------------------------- Iteration      1(   4)  ---------------------------------------


     EDDAV:  cpu time   10.4806: real time   10.5556
       DOS:  cpu time    0.0010: real time    0.0010
    --------------------------------------------
      LOOP:  cpu time   10.4817: real time   10.5567

 eigenvalue-minimisations  :  2352
 total energy-change (2. order) :-0.7716561E+01  (-0.7414258E+01)
 number of electron     376.0000000 magnetization 
 augmentation part      376.0000000 magnetization 

 Free energy of the ion-electron system (eV)
  ---------------------------------------------------
  alpha Z        PSCENC =       975.10247152
  Ewald energy   TEWEN  =     91018.64578904
  -Hartree energ DENC   =   -120110.69920518
  -exchange      EXHF   =         0.00000000
  -V(xc)+E(xc)   XCENC  =       189.44400443
  PAW double counting   =     24789.08602224   -23775.73976456
  entropy T*S    EENTRO =        -0.00704756
  eigenvalues    EBANDS =      -593.67255347
  atomic energy  EATOM  =     27259.89416086
  Solvation  Ediel_sol  =         0.00000000
  ---------------------------------------------------
  free energy    TOTEN  =      -247.94612268 eV

  energy without entropy =     -247.93907511  energy(sigma->0) =     -247.94377349


--------------------------------------------------------------------------------------------------------




--------------------------------------- Iteration      1(   5)  ---------------------------------------


     EDDAV:  cpu time   10.5086: real time   10.5863
       DOS:  cpu time    0.0011: real time    0.0011
    CHARGE:  cpu time    0.4484: real time    0.4513
    MIXING:  cpu time    0.0089: real time    0.0090
    --------------------------------------------
      LOOP:  cpu time   10.9670: real time   11.0477

 eigenvalue-minimisations  :  2424
 total energy-change (2. order) :-0.2179672E+00  (-0.2158542E+00)
 number of electron     376.0000066 magnetization 
 augmentation part      105.8740159 magnetization 

 Broyden mixing:
  rms(total) = 0.27168E+01    rms(broyden)= 0.27164E+01
  rms(prec ) = 0.30203E+01
  weight for this iteration     100.00

 Free energy of the ion-electron system (eV)
  ---------------------------------------------------
  alpha Z        PSCENC =       975.10247152
  Ewald energy   TEWEN  =     91018.64578904
  -Hartree energ DENC   =   -120110.69920518
  -exchange      EXHF   =         0.00000000
  -V(xc)+E(xc)   XCENC  =       189.44400443
  PAW double counting   =     24789.08602224   -23775.73976456
  entropy T*S    EENTRO =        -0.00707022
  eigenvalues    EBANDS =      -593.89049796
  atomic energy  EATOM  =     27259.89416086
  Solvation  Ediel_sol  =         0.00000000
  ---------------------------------------------------
  free energy    TOTEN  =      -248.16408983 eV

  energy without entropy =     -248.15701961  energy(sigma->0) =     -248.16173309


--------------------------------------------------------------------------------------------------------




--------------------------------------- Iteration      1(   6)  ---------------------------------------


    POTLOK:  cpu time    0.1549: real time    0.1559
    SETDIJ:  cpu time    0.0151: real time    0.0152
    EDDIAG:  cpu time    1.1508: real time    1.1587
  RMM-DIIS:  cpu time    4.2724: real time    4.3055
    ORTHCH:  cpu time    0.2061: real time    0.2075
       DOS:  cpu time    0.0011: real time    0.0011
    CHARGE:  cpu time    0.3190: real time    0.3211
    MIXING:  cpu time    0.0058: real time    0.0058
    --------------------------------------------
      LOOP:  cpu time    6.1252: real time    6.1707

 eigenvalue-minimisations  :  1832
 total energy-change (2. order) : 0.3603390E+01  (-0.5419825E+01)
 number of electron     376.0000067 magnetization 
 augmentation part      112.8120662 magnetization 

 Broyden mixing:
  rms(total) = 0.27253E+01    rms(broyden)= 0.27243E+01
  rms(prec ) = 0.35959E+01
  weight for this iteration     100.00

 eigenvalues of (default mixing * dielectric matrix)
  average eigenvalue GAMMA=   0.5160
  0.5160

 Free energy of the ion-electron system (eV)
  ---------------------------------------------------
  alpha Z        PSCENC =       975.10247152
  Ewald energy   TEWEN  =     91018.64578904
  -Hartree energ DENC   =   -119656.91710566
  -exchange      EXHF   =         0.00000000
  -V(xc)+E(xc)   XCENC  =       182.26011049
  PAW double counting   =     26711.72029439   -25751.72719272
  entropy T*S    EENTRO =        -0.18130817
  eigenvalues    EBANDS =      -983.35792008
  atomic energy  EATOM  =     27259.89416086
  Solvation  Ediel_sol  =         0.00000000
  ---------------------------------------------------
  free energy    TOTEN  =      -244.56070032 eV

  energy without entropy =     -244.37939215  energy(sigma->0) =     -244.50026426


--------------------------------------------------------------------------------------------------------




--------------------------------------- Iteration      1(   7)  ---------------------------------------


    POTLOK:  cpu time    0.1135: real time    0.1144
    SETDIJ:  cpu time    0.0099: real time    0.0100
    EDDIAG:  cpu time    1.1288: real time    1.1368
  RMM-DIIS:  cpu time    3.9239: real time    3.9574
    ORTHCH:  cpu time    0.2581: real time    0.2602
       DOS:  cpu time    0.0011: real time    0.0011
    CHARGE:  cpu time    0.3343: real time    0.3373
    MIXING:  cpu time    0.0046: real time    0.0046
    --------------------------------------------
      LOOP:  cpu time    5.7743: real time    5.8218

 eigenvalue-minimisations  :  1831
 total energy-change (2. order) : 0.5920504E+01  (-0.3090164E+01)
 number of electron     376.0000075 magnetization 
 augmentation part      111.4409330 magnetization 

 Broyden mixing:
  rms(total) = 0.18627E+01    rms(broyden)= 0.18618E+01
  rms(prec ) = 0.26464E+01
  weight for this iteration     100.00

 eigenvalues of (default mixing * dielectric matrix)
  average eigenvalue GAMMA=   0.6538
  1.0392  0.2684

 Free energy of the ion-electron system (eV)
  ---------------------------------------------------
  alpha Z        PSCENC =       975.10247152
  Ewald energy   TEWEN  =     91018.64578904
  -Hartree energ DENC   =   -119848.78155805
  -exchange      EXHF   =         0.00000000
  -V(xc)+E(xc)   XCENC  =       179.89288516
  PAW double counting   =     27386.68632724   -26434.59068163
  entropy T*S    EENTRO =        -0.15345613
  eigenvalues    EBANDS =      -775.33613470
  atomic energy  EATOM  =     27259.89416086
  Solvation  Ediel_sol  =         0.00000000
  ---------------------------------------------------
  free energy    TOTEN  =      -238.64019668 eV

  energy without entropy =     -238.48674055  energy(sigma->0) =     -238.58904463


--------------------------------------------------------------------------------------------------------




--------------------------------------- Iteration      1(   8)  ---------------------------------------


    POTLOK:  cpu time    0.1433: real time    0.1447
    SETDIJ:  cpu time    0.0171: real time    0.0172
    EDDIAG:  cpu time    1.0742: real time    1.0833
  RMM-DIIS:  cpu time    4.0339: real time    4.0719
    ORTHCH:  cpu time    0.2275: real time    0.2292
       DOS:  cpu time    0.0013: real time    0.0013
    CHARGE:  cpu time    0.3805: real time    0.3839
    MIXING:  cpu time    0.0038: real time    0.0039
    --------------------------------------------
      LOOP:  cpu time    5.8817: real time    5.9353

 eigenvalue-minimisations  :  1829
 total energy-change (2. order) :-0.2153013E+01  (-0.8227706E+00)
 number of electron     376.0000070 magnetization 
 augmentation part      112.5397039 magnetization 

 Broyden mixing:
  rms(total) = 0.23069E+01    rms(broyden)= 0.23067E+01
  rms(prec ) = 0.43345E+01
  weight for this iteration     100.00

 eigenvalues of (default mixing * dielectric matrix)
  average eigenvalue GAMMA=   0.5509
  1.1930  0.2973  0.1625

 Free energy of the ion-electron system (eV)
  ---------------------------------------------------
  alpha Z        PSCENC =       975.10247152
  Ewald energy   TEWEN  =     91018.64578904
  -Hartree energ DENC   =   -119740.47863046
  -exchange      EXHF   =         0.00000000
  -V(xc)+E(xc)   XCENC  =       178.63308725
  PAW double counting   =     28269.24592221   -27331.13046618
  entropy T*S    EENTRO =         0.01112725
  eigenvalues    EBANDS =      -870.71667135
  atomic energy  EATOM  =     27259.89416086
  Solvation  Ediel_sol  =         0.00000000
  ---------------------------------------------------
  free energy    TOTEN  =      -240.79320984 eV

  energy without entropy =     -240.80433710  energy(sigma->0) =     -240.79691893


--------------------------------------------------------------------------------------------------------




--------------------------------------- Iteration      1(   9)  ---------------------------------------


    POTLOK:  cpu time    0.1120: real time    0.1130
    SETDIJ:  cpu time    0.0103: real time    0.0104
    EDDIAG:  cpu time    1.0725: real time    1.0825
  RMM-DIIS:  cpu time    3.6801: real time    3.7139
    ORTHCH:  cpu time    0.2027: real time    0.2043
       DOS:  cpu time    0.0011: real time    0.0011
    CHARGE:  cpu time    0.3112: real time    0.3139
    MIXING:  cpu time    0.0041: real time    0.0042
    --------------------------------------------
      LOOP:  cpu time    5.3941: real time    5.4434

 eigenvalue-minimisations  :  1830
 total energy-change (2. order) : 0.8041460E+01  (-0.2944165E+00)
 number of electron     376.0000071 magnetization 
 augmentation part      112.8092730 magnetization 

 Broyden mixing:
  rms(total) = 0.11355E+01    rms(broyden)= 0.11352E+01
  rms(prec ) = 0.19082E+01
  weight for this iteration     100.00

 eigenvalues of (default mixing * dielectric matrix)
  average eigenvalue GAMMA=   0.5179
  1.3129  0.3871  0.2715  0.1000

 Free energy of the ion-electron system (eV)
  ---------------------------------------------------
  alpha Z        PSCENC =       975.10247152
  Ewald energy   TEWEN  =     91018.64578904
  -Hartree energ DENC   =   -119734.51573340
  -exchange      EXHF   =         0.00000000
  -V(xc)+E(xc)   XCENC  =       178.36470766
  PAW double counting   =     28638.34717887   -27705.78985396
  entropy T*S    EENTRO =        -0.07229126
  eigenvalues    EBANDS =      -862.72817942
  atomic energy  EATOM  =     27259.89416086
  Solvation  Ediel_sol  =         0.00000000
  ---------------------------------------------------
  free energy    TOTEN  =      -232.75175008 eV

  energy without entropy =     -232.67945881  energy(sigma->0) =     -232.72765299


--------------------------------------------------------------------------------------------------------




--------------------------------------- Iteration      1(  10)  ---------------------------------------


    POTLOK:  cpu time    0.1115: real time    0.1127
    SETDIJ:  cpu time    0.0100: real time    0.0101
    EDDIAG:  cpu time    0.9481: real time    0.9551
  RMM-DIIS:  cpu time    3.7522: real time    3.7808
    ORTHCH:  cpu time    0.2030: real time    0.2043
       DOS:  cpu time    0.0011: real time    0.0011
    CHARGE:  cpu time    0.3266: real time    0.3291
    MIXING:  cpu time    0.0051: real time    0.0051
    --------------------------------------------
      LOOP:  cpu time    5.3576: real time    5.3984

 eigenvalue-minimisations  :  1831
 total energy-change (2. order) : 0.1989303E+01  (-0.1555718E+00)
 number of electron     376.0000071 magnetization 
 augmentation part      112.8453348 magnetization 

 Broyden mixing:
  rms(total) = 0.44831E+00    rms(broyden)= 0.44815E+00
  rms(prec ) = 0.59213E+00
  weight for this iteration     100.00

 eigenvalues of (default mixing * dielectric matrix)
  average eigenvalue GAMMA=   0.5347
  1.3938  0.5289  0.4192  0.2293  0.1022

 Free energy of the ion-electron system (eV)
  ---------------------------------------------------
  alpha Z        PSCENC =       975.10247152
  Ewald energy   TEWEN  =     91018.64578904
  -Hartree energ DENC   =   -119745.67180473
  -exchange      EXHF   =         0.00000000
  -V(xc)+E(xc)   XCENC  =       178.21713274
  PAW double counting   =     28993.66636758   -28066.11864750
  entropy T*S    EENTRO =        -0.03748046
  eigenvalues    EBANDS =      -844.46043571
  atomic energy  EATOM  =     27259.89416086
  Solvation  Ediel_sol  =         0.00000000
  ---------------------------------------------------
  free energy    TOTEN  =      -230.76244665 eV

  energy without entropy =     -230.72496618  energy(sigma->0) =     -230.74995316


--------------------------------------------------------------------------------------------------------




--------------------------------------- Iteration      1(  11)  ---------------------------------------


    POTLOK:  cpu time    0.1095: real time    0.1103
    SETDIJ:  cpu time    0.0108: real time    0.0108
    EDDIAG:  cpu time    1.0035: real time    1.0107
  RMM-DIIS:  cpu time    3.7291: real time    3.7571
    ORTHCH:  cpu time    0.1864: real time    0.1876
       DOS:  cpu time    0.0011: real time    0.0011
    CHARGE:  cpu time    0.3166: real time    0.3186
    MIXING:  cpu time    0.0047: real time    0.0047
    --------------------------------------------
      LOOP:  cpu time    5.3616: real time    5.4010

 eigenvalue-minimisations  :  1831
 total energy-change (2. order) : 0.3363996E+00  (-0.3539828E-01)
 number of electron     376.0000070 magnetization 
 augmentation part      112.9239878 magnetization 

 Broyden mixing:
  rms(total) = 0.30507E+00    rms(broyden)= 0.30506E+00
  rms(prec ) = 0.43423E+00
  weight for this iteration     100.00

 eigenvalues of (default mixing * dielectric matrix)
  average eigenvalue GAMMA=   0.6008
  1.5631  0.8373  0.4337  0.4337  0.2358  0.1011

 Free energy of the ion-electron system (eV)
  ---------------------------------------------------
  alpha Z        PSCENC =       975.10247152
  Ewald energy   TEWEN  =     91018.64578904
  -Hartree energ DENC   =   -119733.80311993
  -exchange      EXHF   =         0.00000000
  -V(xc)+E(xc)   XCENC  =       178.16552808
  PAW double counting   =     29273.03702120   -28349.04162843
  entropy T*S    EENTRO =        -0.03436383
  eigenvalues    EBANDS =      -852.39190557
  atomic energy  EATOM  =     27259.89416086
  Solvation  Ediel_sol  =         0.00000000
  ---------------------------------------------------
  free energy    TOTEN  =      -230.42604704 eV

  energy without entropy =     -230.39168322  energy(sigma->0) =     -230.41459244


--------------------------------------------------------------------------------------------------------




--------------------------------------- Iteration      1(  12)  ---------------------------------------


    POTLOK:  cpu time    0.1439: real time    0.1449
    SETDIJ:  cpu time    0.0151: real time    0.0152
    EDDIAG:  cpu time    1.0005: real time    1.0070
  RMM-DIIS:  cpu time    3.5453: real time    3.5715
    ORTHCH:  cpu time    0.2661: real time    0.2678
       DOS:  cpu time    0.0011: real time    0.0011
    CHARGE:  cpu time    0.3781: real time    0.3807
    MIXING:  cpu time    0.0059: real time    0.0060
    --------------------------------------------
      LOOP:  cpu time    5.3561: real time    5.3942

 eigenvalue-minimisations  :  1831
 total energy-change (2. order) : 0.1073962E+00  (-0.1876558E-01)
 number of electron     376.0000069 magnetization 
 augmentation part      112.9886056 magnetization 

 Broyden mixing:
  rms(total) = 0.24437E+00    rms(broyden)= 0.24431E+00
  rms(prec ) = 0.30423E+00
  weight for this iteration     100.00

 eigenvalues of (default mixing * dielectric matrix)
  average eigenvalue GAMMA=   0.6769
  1.9059  1.0732  0.6848  0.4657  0.1012  0.2395  0.2678

 Free energy of the ion-electron system (eV)
  ---------------------------------------------------
  alpha Z        PSCENC =       975.10247152
  Ewald energy   TEWEN  =     91018.64578904
  -Hartree energ DENC   =   -119729.50663573
  -exchange      EXHF   =         0.00000000
  -V(xc)+E(xc)   XCENC  =       178.11585309
  PAW double counting   =     29589.52794149   -28669.45469739
  entropy T*S    EENTRO =        -0.04291130
  eigenvalues    EBANDS =      -852.60062245
  atomic energy  EATOM  =     27259.89416086
  Solvation  Ediel_sol  =         0.00000000
  ---------------------------------------------------
  free energy    TOTEN  =      -230.31865086 eV

  energy without entropy =     -230.27573955  energy(sigma->0) =     -230.30434709


--------------------------------------------------------------------------------------------------------




--------------------------------------- Iteration      1(  13)  ---------------------------------------


    POTLOK:  cpu time    0.1292: real time    0.1302
    SETDIJ:  cpu time    0.0096: real time    0.0097
    EDDIAG:  cpu time    1.3641: real time    1.3752
  RMM-DIIS:  cpu time    4.6484: real time    4.6906
    ORTHCH:  cpu time    0.2573: real time    0.2594
       DOS:  cpu time    0.0012: real time    0.0012
    CHARGE:  cpu time    0.4883: real time    0.4922
    MIXING:  cpu time    0.0075: real time    0.0075
    --------------------------------------------
      LOOP:  cpu time    6.9056: real time    6.9659

 eigenvalue-minimisations  :  1831
 total energy-change (2. order) : 0.4652557E-01  (-0.1495414E-01)
 number of electron     376.0000070 magnetization 
 augmentation part      112.9945644 magnetization 

 Broyden mixing:
  rms(total) = 0.17006E+00    rms(broyden)= 0.17005E+00
  rms(prec ) = 0.20408E+00
  weight for this iteration     100.00

 eigenvalues of (default mixing * dielectric matrix)
  average eigenvalue GAMMA=   0.7127
  2.2638  1.2001  0.8418  0.4542  0.1012  0.3536  0.2339  0.2533

 Free energy of the ion-electron system (eV)
  ---------------------------------------------------
  alpha Z        PSCENC =       975.10247152
  Ewald energy   TEWEN  =     91018.64578904
  -Hartree energ DENC   =   -119728.47886305
  -exchange      EXHF   =         0.00000000
  -V(xc)+E(xc)   XCENC  =       178.03047407
  PAW double counting   =     29840.03710205   -28922.96035142
  entropy T*S    EENTRO =        -0.02330786
  eigenvalues    EBANDS =      -850.51960051
  atomic energy  EATOM  =     27259.89416086
  Solvation  Ediel_sol  =         0.00000000
  ---------------------------------------------------
  free energy    TOTEN  =      -230.27212529 eV

  energy without entropy =     -230.24881743  energy(sigma->0) =     -230.26435600


--------------------------------------------------------------------------------------------------------




--------------------------------------- Iteration      1(  14)  ---------------------------------------


    POTLOK:  cpu time    0.1812: real time    0.1826
    SETDIJ:  cpu time    0.0179: real time    0.0180
    EDDIAG:  cpu time    1.5776: real time    1.5889
  RMM-DIIS:  cpu time    4.8711: real time    4.9203
    ORTHCH:  cpu time    0.2327: real time    0.2343
       DOS:  cpu time    0.0012: real time    0.0012
    CHARGE:  cpu time    0.4342: real time    0.4373
    MIXING:  cpu time    0.0065: real time    0.0066
    --------------------------------------------
      LOOP:  cpu time    7.3224: real time    7.3892

 eigenvalue-minimisations  :  1831
 total energy-change (2. order) : 0.3868948E-01  (-0.7754680E-02)
 number of electron     376.0000069 magnetization 
 augmentation part      112.9861924 magnetization 

 Broyden mixing:
  rms(total) = 0.87013E-01    rms(broyden)= 0.86983E-01
  rms(prec ) = 0.11335E+00
  weight for this iteration     100.00

 eigenvalues of (default mixing * dielectric matrix)
  average eigenvalue GAMMA=   0.7095
  2.3629  1.2188  0.9366  0.4890  0.4890  0.1012  0.3150  0.2367  0.2367

 Free energy of the ion-electron system (eV)
  ---------------------------------------------------
  alpha Z        PSCENC =       975.10247152
  Ewald energy   TEWEN  =     91018.64578904
  -Hartree energ DENC   =   -119730.09282004
  -exchange      EXHF   =         0.00000000
  -V(xc)+E(xc)   XCENC  =       177.97056685
  PAW double counting   =     30014.68745648   -29099.64404002
  entropy T*S    EENTRO =        -0.02417286
  eigenvalues    EBANDS =      -846.77284765
  atomic energy  EATOM  =     27259.89416086
  Solvation  Ediel_sol  =         0.00000000
  ---------------------------------------------------
  free energy    TOTEN  =      -230.23343581 eV

  energy without entropy =     -230.20926295  energy(sigma->0) =     -230.22537819


--------------------------------------------------------------------------------------------------------




--------------------------------------- Iteration      1(  15)  ---------------------------------------


    POTLOK:  cpu time    0.1209: real time    0.1218
    SETDIJ:  cpu time    0.0093: real time    0.0094
    EDDIAG:  cpu time    1.0944: real time    1.1020
  RMM-DIIS:  cpu time    4.8445: real time    4.8823
    ORTHCH:  cpu time    0.2276: real time    0.2291
       DOS:  cpu time    0.0011: real time    0.0011
    CHARGE:  cpu time    0.4046: real time    0.4078
    MIXING:  cpu time    0.0136: real time    0.0138
    --------------------------------------------
      LOOP:  cpu time    6.7160: real time    6.7674

 eigenvalue-minimisations  :  1832
 total energy-change (2. order) : 0.8611106E-02  (-0.2221251E-02)
 number of electron     376.0000069 magnetization 
 augmentation part      112.9852942 magnetization 

 Broyden mixing:
  rms(total) = 0.48092E-01    rms(broyden)= 0.48084E-01
  rms(prec ) = 0.62941E-01
  weight for this iteration     100.00

 eigenvalues of (default mixing * dielectric matrix)
  average eigenvalue GAMMA=   0.7208
  2.4433  1.1625  1.1625  0.7309  0.1012  0.4562  0.3913  0.2924  0.2337  0.2337

 Free energy of the ion-electron system (eV)
  ---------------------------------------------------
  alpha Z        PSCENC =       975.10247152
  Ewald energy   TEWEN  =     91018.64578904
  -Hartree energ DENC   =   -119731.79503629
  -exchange      EXHF   =         0.00000000
  -V(xc)+E(xc)   XCENC  =       177.97109267
  PAW double counting   =     30055.68770092   -29141.08494323
  entropy T*S    EENTRO =        -0.02233108
  eigenvalues    EBANDS =      -844.62372912
  atomic energy  EATOM  =     27259.89416086
  Solvation  Ediel_sol  =         0.00000000
  ---------------------------------------------------
  free energy    TOTEN  =      -230.22482470 eV

  energy without entropy =     -230.20249363  energy(sigma->0) =     -230.21738101


--------------------------------------------------------------------------------------------------------




--------------------------------------- Iteration      1(  16)  ---------------------------------------


    POTLOK:  cpu time    0.1864: real time    0.1881
    SETDIJ:  cpu time    0.0167: real time    0.0168
    EDDIAG:  cpu time    1.5997: real time    1.6118
  RMM-DIIS:  cpu time    5.1915: real time    5.2339
    ORTHCH:  cpu time    0.2263: real time    0.2280
       DOS:  cpu time    0.0012: real time    0.0012
    CHARGE:  cpu time    0.3981: real time    0.4011
    MIXING:  cpu time    0.0083: real time    0.0083
    --------------------------------------------
      LOOP:  cpu time    7.6282: real time    7.6892

 eigenvalue-minimisations  :  1830
 total energy-change (2. order) : 0.2589478E-02  (-0.5887200E-03)
 number of electron     376.0000069 magnetization 
 augmentation part      112.9850043 magnetization 

 Broyden mixing:
  rms(total) = 0.26700E-01    rms(broyden)= 0.26698E-01
  rms(prec ) = 0.33004E-01
  weight for this iteration     100.00

 eigenvalues of (default mixing * dielectric matrix)
  average eigenvalue GAMMA=   0.7189
  2.4869  1.1840  1.1840  0.8397  0.5102  0.5102  0.1012  0.3469  0.2779  0.2368
  0.2297

 Free energy of the ion-electron system (eV)
  ---------------------------------------------------
  alpha Z        PSCENC =       975.10247152
  Ewald energy   TEWEN  =     91018.64578904
  -Hartree energ DENC   =   -119733.46652264
  -exchange      EXHF   =         0.00000000
  -V(xc)+E(xc)   XCENC  =       177.98112980
  PAW double counting   =     30075.37460786   -29160.94991044
  entropy T*S    EENTRO =        -0.02329186
  eigenvalues    EBANDS =      -842.78066938
  atomic energy  EATOM  =     27259.89416086
  Solvation  Ediel_sol  =         0.00000000
  ---------------------------------------------------
  free energy    TOTEN  =      -230.22223523 eV

  energy without entropy =     -230.19894337  energy(sigma->0) =     -230.21447127


--------------------------------------------------------------------------------------------------------




--------------------------------------- Iteration      1(  17)  ---------------------------------------


    POTLOK:  cpu time    0.1487: real time    0.1499
    SETDIJ:  cpu time    0.0111: real time    0.0111
    EDDIAG:  cpu time    1.5913: real time    1.6031
  RMM-DIIS:  cpu time    5.1483: real time    5.1888
    ORTHCH:  cpu time    0.2251: real time    0.2266
       DOS:  cpu time    0.0012: real time    0.0012
    CHARGE:  cpu time    0.4041: real time    0.4072
    MIXING:  cpu time    0.0066: real time    0.0066
    --------------------------------------------
      LOOP:  cpu time    7.5363: real time    7.5947

 eigenvalue-minimisations  :  1817
 total energy-change (2. order) : 0.4345995E-03  (-0.2747806E-03)
 number of electron     376.0000069 magnetization 
 augmentation part      112.9834716 magnetization 

 Broyden mixing:
  rms(total) = 0.20433E-01    rms(broyden)= 0.20432E-01
  rms(prec ) = 0.25117E-01
  weight for this iteration     100.00

 eigenvalues of (default mixing * dielectric matrix)
  average eigenvalue GAMMA=   0.7333
  2.5240  1.2279  1.2279  1.1081  0.7325  0.4732  0.1012  0.3799  0.3018  0.2589
  0.2359  0.2286

 Free energy of the ion-electron system (eV)
  ---------------------------------------------------
  alpha Z        PSCENC =       975.10247152
  Ewald energy   TEWEN  =     91018.64578904
  -Hartree energ DENC   =   -119734.52646781
  -exchange      EXHF   =         0.00000000
  -V(xc)+E(xc)   XCENC  =       177.98743315
  PAW double counting   =     30079.20620244   -29164.79266582
  entropy T*S    EENTRO =        -0.02325144
  eigenvalues    EBANDS =      -841.71547258
  atomic energy  EATOM  =     27259.89416086
  Solvation  Ediel_sol  =         0.00000000
  ---------------------------------------------------
  free energy    TOTEN  =      -230.22180063 eV

  energy without entropy =     -230.19854918  energy(sigma->0) =     -230.21405015


--------------------------------------------------------------------------------------------------------




--------------------------------------- Iteration      1(  18)  ---------------------------------------


    POTLOK:  cpu time    0.1318: real time    0.1328
    SETDIJ:  cpu time    0.0103: real time    0.0103
    EDDIAG:  cpu time    1.3248: real time    1.3347
  RMM-DIIS:  cpu time    4.6411: real time    4.6780
    ORTHCH:  cpu time    0.2156: real time    0.2171
       DOS:  cpu time    0.0011: real time    0.0011
    CHARGE:  cpu time    0.3856: real time    0.3884
    MIXING:  cpu time    0.0180: real time    0.0182
    --------------------------------------------
      LOOP:  cpu time    6.7283: real time    6.7806

 eigenvalue-minimisations  :  1787
 total energy-change (2. order) : 0.2478731E-03  (-0.1080060E-03)
 number of electron     376.0000069 magnetization 
 augmentation part      112.9820946 magnetization 

 Broyden mixing:
  rms(total) = 0.13371E-01    rms(broyden)= 0.13370E-01
  rms(prec ) = 0.16417E-01
  weight for this iteration     100.00

 eigenvalues of (default mixing * dielectric matrix)
  average eigenvalue GAMMA=   0.7257
  2.5417  1.3061  1.3061  1.1566  0.7915  0.1012  0.4435  0.4435  0.3516  0.2873
  0.2426  0.2367  0.2263

 Free energy of the ion-electron system (eV)
  ---------------------------------------------------
  alpha Z        PSCENC =       975.10247152
  Ewald energy   TEWEN  =     91018.64578904
  -Hartree energ DENC   =   -119735.79802537
  -exchange      EXHF   =         0.00000000
  -V(xc)+E(xc)   XCENC  =       177.99264317
  PAW double counting   =     30079.22973694   -29164.78043615
  entropy T*S    EENTRO =        -0.02341244
  eigenvalues    EBANDS =      -840.48448034
  atomic energy  EATOM  =     27259.89416086
  Solvation  Ediel_sol  =         0.00000000
  ---------------------------------------------------
  free energy    TOTEN  =      -230.22155275 eV

  energy without entropy =     -230.19814031  energy(sigma->0) =     -230.21374861


--------------------------------------------------------------------------------------------------------




--------------------------------------- Iteration      1(  19)  ---------------------------------------


    POTLOK:  cpu time    0.1807: real time    0.1821
    SETDIJ:  cpu time    0.0162: real time    0.0163
    EDDIAG:  cpu time    1.3003: real time    1.3098
  RMM-DIIS:  cpu time    3.7157: real time    3.7450
    ORTHCH:  cpu time    0.2230: real time    0.2245
       DOS:  cpu time    0.0012: real time    0.0012
    CHARGE:  cpu time    0.4322: real time    0.4351
    MIXING:  cpu time    0.0140: real time    0.0141
    --------------------------------------------
      LOOP:  cpu time    5.8833: real time    5.9282

 eigenvalue-minimisations  :  1332
 total energy-change (2. order) : 0.1907230E-03  (-0.3944439E-04)
 number of electron     376.0000069 magnetization 
 augmentation part      112.9810470 magnetization 

 Broyden mixing:
  rms(total) = 0.57971E-02    rms(broyden)= 0.57951E-02
  rms(prec ) = 0.72418E-02
  weight for this iteration     100.00

 eigenvalues of (default mixing * dielectric matrix)
  average eigenvalue GAMMA=   0.7568
  2.5664  1.7611  1.2061  1.2061  0.9304  0.6350  0.4926  0.1012  0.3889  0.3266
  0.2815  0.2390  0.2345  0.2254

 Free energy of the ion-electron system (eV)
  ---------------------------------------------------
  alpha Z        PSCENC =       975.10247152
  Ewald energy   TEWEN  =     91018.64578904
  -Hartree energ DENC   =   -119736.52272511
  -exchange      EXHF   =         0.00000000
  -V(xc)+E(xc)   XCENC  =       177.99648143
  PAW double counting   =     30078.13867149   -29163.65561709
  entropy T*S    EENTRO =        -0.02305893
  eigenvalues    EBANDS =      -839.79753526
  atomic energy  EATOM  =     27259.89416086
  Solvation  Ediel_sol  =         0.00000000
  ---------------------------------------------------
  free energy    TOTEN  =      -230.22136203 eV

  energy without entropy =     -230.19830310  energy(sigma->0) =     -230.21367572


--------------------------------------------------------------------------------------------------------




--------------------------------------- Iteration      1(  20)  ---------------------------------------


    POTLOK:  cpu time    0.1221: real time    0.1231
    SETDIJ:  cpu time    0.0098: real time    0.0099
    EDDIAG:  cpu time    1.2217: real time    1.2310
  RMM-DIIS:  cpu time    2.8661: real time    2.8884
    ORTHCH:  cpu time    0.2377: real time    0.2393
       DOS:  cpu time    0.0011: real time    0.0011
    CHARGE:  cpu time    0.3694: real time    0.3719
    MIXING:  cpu time    0.0074: real time    0.0075
    --------------------------------------------
      LOOP:  cpu time    4.8354: real time    4.8721

 eigenvalue-minimisations  :  1017
 total energy-change (2. order) :-0.1134540E-03  (-0.1410662E-04)
 number of electron     376.0000069 magnetization 
 augmentation part      112.9813662 magnetization 

 Broyden mixing:
  rms(total) = 0.54258E-02    rms(broyden)= 0.54251E-02
  rms(prec ) = 0.68473E-02
  weight for this iteration     100.00

 eigenvalues of (default mixing * dielectric matrix)
  average eigenvalue GAMMA=   0.7633
  2.6182  2.1345  1.1839  1.1839  1.0499  0.6889  0.4852  0.1012  0.3980  0.3447
  0.2969  0.2678  0.2395  0.2325  0.2249

 Free energy of the ion-electron system (eV)
  ---------------------------------------------------
  alpha Z        PSCENC =       975.10247152
  Ewald energy   TEWEN  =     91018.64578904
  -Hartree energ DENC   =   -119737.50194130
  -exchange      EXHF   =         0.00000000
  -V(xc)+E(xc)   XCENC  =       178.00387017
  PAW double counting   =     30076.55229381   -29162.02983048
  entropy T*S    EENTRO =        -0.02345031
  eigenvalues    EBANDS =      -838.86483882
  atomic energy  EATOM  =     27259.89416086
  Solvation  Ediel_sol  =         0.00000000
  ---------------------------------------------------
  free energy    TOTEN  =      -230.22147548 eV

  energy without entropy =     -230.19802518  energy(sigma->0) =     -230.21365872


--------------------------------------------------------------------------------------------------------




--------------------------------------- Iteration      1(  21)  ---------------------------------------


    POTLOK:  cpu time    0.1422: real time    0.1432
    SETDIJ:  cpu time    0.0209: real time    0.0211
    EDDIAG:  cpu time    1.5112: real time    1.5223
  RMM-DIIS:  cpu time    3.5449: real time    3.5738
    ORTHCH:  cpu time    0.2560: real time    0.2578
       DOS:  cpu time    0.0012: real time    0.0012
    --------------------------------------------
      LOOP:  cpu time    5.4764: real time    5.5195

 eigenvalue-minimisations  :   994
 total energy-change (2. order) :-0.4981506E-04  (-0.6616614E-05)
 number of electron     376.0000069 magnetization 
 augmentation part      112.9813662 magnetization 

 Free energy of the ion-electron system (eV)
  ---------------------------------------------------
  alpha Z        PSCENC =       975.10247152
  Ewald energy   TEWEN  =     91018.64578904
  -Hartree energ DENC   =   -119738.28973901
  -exchange      EXHF   =         0.00000000
  -V(xc)+E(xc)   XCENC  =       178.00898934
  PAW double counting   =     30075.32818170   -29160.77802905
  entropy T*S    EENTRO =        -0.02331399
  eigenvalues    EBANDS =      -838.11003572
  atomic energy  EATOM  =     27259.89416086
  Solvation  Ediel_sol  =         0.00000000
  ---------------------------------------------------
  free energy    TOTEN  =      -230.22152530 eV

  energy without entropy =     -230.19821131  energy(sigma->0) =     -230.21375397


--------------------------------------------------------------------------------------------------------




 average (electrostatic) potential at core
  the test charge radii are     0.6991  0.7215  1.2059
  (the norm of the test charge is              1.0000)
       1 -56.3807       2 -74.9769       3 -76.4302       4 -72.3012       5 -72.2755
       6 -72.2803       7 -72.2860       8 -72.2887       9 -72.2777      10 -72.2681
      11 -72.3008      12 -72.2826      13 -72.8076      14 -72.9942      15 -72.9743
      16 -72.9723      17 -72.9734      18 -72.9307      19 -72.9258      20 -72.9886
      21 -72.8988      22 -72.8697      23 -72.9207      24 -72.8795      25 -72.9984
      26 -72.9907      27 -72.9809      28 -72.9174      29 -72.9415      30 -72.7904
      31 -72.3188      32 -72.2752      33 -72.4622      34 -72.4217      35 -72.3368
      36 -73.2268      37 -72.4254      38 -73.2048      39 -72.2856
 
 
 
 E-fermi :   1.1339     XC(G=0):  -6.6299     alpha+bet : -6.8913


 k-point     1 :       0.0000    0.0000    0.0000
  band No.  band energies     occupation 
      1     -22.2698      2.00000
      2     -17.2998      2.00000
      3      -8.6343      2.00000
      4      -8.0736      2.00000
      5      -6.7707      2.00000
      6      -6.0733      2.00000
      7      -5.8820      2.00000
      8      -5.7272      2.00000
      9      -5.6396      2.00000
     10      -5.6297      2.00000
     11      -5.5897      2.00000
     12      -5.5608      2.00000
     13      -5.5384      2.00000
     14      -5.5278      2.00000
     15      -5.4543      2.00000
     16      -5.2855      2.00000
     17      -5.0451      2.00000
     18      -5.0175      2.00000
     19      -5.0131      2.00000
     20      -4.9993      2.00000
     21      -4.9869      2.00000
     22      -4.9447      2.00000
     23      -4.6681      2.00000
     24      -4.6236      2.00000
     25      -4.5188      2.00000
     26      -4.5024      2.00000
     27      -4.4648      2.00000
     28      -4.4344      2.00000
     29      -4.3651      2.00000
     30      -4.3362      2.00000
     31      -4.3081      2.00000
     32      -4.3001      2.00000
     33      -4.2700      2.00000
     34      -4.2106      2.00000
     35      -4.1173      2.00000
     36      -4.0855      2.00000
     37      -4.0731      2.00000
     38      -4.0640      2.00000
     39      -4.0403      2.00000
     40      -4.0099      2.00000
     41      -3.9979      2.00000
     42      -3.9765      2.00000
     43      -3.9690      2.00000
     44      -3.9671      2.00000
     45      -3.9541      2.00000
     46      -3.9077      2.00000
     47      -3.6329      2.00000
     48      -3.4796      2.00000
     49      -3.4575      2.00000
     50      -3.3926      2.00000
     51      -3.3790      2.00000
     52      -3.3658      2.00000
     53      -3.3423      2.00000
     54      -3.3187      2.00000
     55      -3.2723      2.00000
     56      -3.2442      2.00000
     57      -3.2022      2.00000
     58      -3.1707      2.00000
     59      -3.1462      2.00000
     60      -3.0847      2.00000
     61      -3.0535      2.00000
     62      -2.9984      2.00000
     63      -2.9015      2.00000
     64      -2.5887      2.00000
     65      -2.5726      2.00000
     66      -2.5457      2.00000
     67      -2.4976      2.00000
     68      -2.4718      2.00000
     69      -2.4561      2.00000
     70      -2.4161      2.00000
     71      -2.3978      2.00000
     72      -2.3757      2.00000
     73      -2.3575      2.00000
     74      -2.3528      2.00000
     75      -2.3327      2.00000
     76      -2.3217      2.00000
     77      -2.3198      2.00000
     78      -2.2980      2.00000
     79      -2.2798      2.00000
     80      -2.2721      2.00000
     81      -2.2518      2.00000
     82      -2.2464      2.00000
     83      -2.2423      2.00000
     84      -2.2011      2.00000
     85      -2.1893      2.00000
     86      -2.1130      2.00000
     87      -2.1031      2.00000
     88      -2.0767      2.00000
     89      -2.0489      2.00000
     90      -2.0461      2.00000
     91      -1.9506      2.00000
     92      -1.9264      2.00000
     93      -1.9158      2.00000
     94      -1.8861      2.00000
     95      -1.8523      2.00000
     96      -1.8291      2.00000
     97      -1.8160      2.00000
     98      -1.7844      2.00000
     99      -1.7591      2.00000
    100      -1.7374      2.00000
    101      -1.6554      2.00000
    102      -1.5945      2.00000
    103      -1.5893      2.00000
    104      -1.5543      2.00000
    105      -1.5280      2.00000
    106      -1.5249      2.00000
    107      -1.5073      2.00000
    108      -1.4992      2.00000
    109      -1.4583      2.00000
    110      -1.4568      2.00000
    111      -1.4525      2.00000
    112      -1.4341      2.00000
    113      -1.4274      2.00000
    114      -1.3094      2.00000
    115      -1.2577      2.00000
    116      -1.1407      2.00000
    117      -1.0605      2.00000
    118      -0.9732      2.00000
    119      -0.9394      2.00000
    120      -0.9177      2.00000
    121      -0.8988      2.00000
    122      -0.8622      2.00000
    123      -0.8605      2.00000
    124      -0.8286      2.00000
    125      -0.7968      2.00000
    126      -0.7640      2.00000
    127      -0.7563      2.00000
    128      -0.7314      2.00000
    129      -0.6613      2.00000
    130      -0.6524      2.00000
    131      -0.6361      2.00000
    132      -0.6241      2.00000
    133      -0.5617      2.00000
    134      -0.5421      2.00000
    135      -0.4858      2.00000
    136      -0.4328      2.00000
    137      -0.3768      2.00000
    138      -0.3511      2.00000
    139      -0.3318      2.00000
    140      -0.3278      2.00000
    141      -0.2070      2.00000
    142      -0.1825      2.00000
    143      -0.1622      2.00000
    144      -0.1196      2.00000
    145      -0.1132      2.00000
    146      -0.0847      2.00000
    147      -0.0369      2.00000
    148      -0.0077      2.00000
    149       0.0405      2.00000
    150       0.0820      2.00000
    151       0.1029      2.00000
    152       0.1054      2.00000
    153       0.1547      2.00000
    154       0.1701      2.00000
    155       0.1963      2.00000
    156       0.2270      2.00000
    157       0.2835      2.00000
    158       0.3073      2.00000
    159       0.3135      2.00000
    160       0.3259      2.00000
    161       0.3365      2.00000
    162       0.3497      2.00000
    163       0.3646      2.00000
    164       0.3805      2.00000
    165       0.3939      2.00000
    166       0.4017      2.00000
    167       0.4406      2.00001
    168       0.4578      2.00002
    169       0.4995      2.00007
    170       0.5280      2.00016
    171       0.5385      2.00021
    172       0.5665      2.00045
    173       0.6084      2.00129
    174       0.6341      2.00232
    175       0.6679      2.00478
    176       0.6896      2.00733
    177       0.6945      2.00804
    178       0.7081      2.01030
    179       0.7466      2.01951
    180       0.7750      2.02928
[...]
     89      -2.1099      2.00000
     90      -2.0994      2.00000
     91      -2.0682      2.00000
     92      -2.0623      2.00000
     93      -2.0336      2.00000
     94      -1.9686      2.00000
     95      -1.9606      2.00000
     96      -1.9110      2.00000
     97      -1.8488      2.00000
     98      -1.8395      2.00000
     99      -1.7998      2.00000
    100      -1.7738      2.00000
    101      -1.7523      2.00000
    102      -1.7182      2.00000
    103      -1.6965      2.00000
    104      -1.6805      2.00000
    105      -1.6539      2.00000
    106      -1.6362      2.00000
    107      -1.6188      2.00000
    108      -1.6095      2.00000
    109      -1.5632      2.00000
    110      -1.4998      2.00000
    111      -1.4927      2.00000
    112      -1.4435      2.00000
    113      -1.3878      2.00000
    114      -1.3180      2.00000
    115      -1.2691      2.00000
    116      -1.2582      2.00000
    117      -1.1708      2.00000
    118      -1.1394      2.00000
    119      -1.0801      2.00000
    120      -1.0473      2.00000
    121      -1.0387      2.00000
    122      -1.0174      2.00000
    123      -0.9818      2.00000
    124      -0.9768      2.00000
    125      -0.9340      2.00000
    126      -0.9242      2.00000
    127      -0.9084      2.00000
    128      -0.8947      2.00000
    129      -0.8676      2.00000
    130      -0.8583      2.00000
    131      -0.8097      2.00000
    132      -0.7760      2.00000
    133      -0.7409      2.00000
    134      -0.7059      2.00000
    135      -0.6756      2.00000
    136      -0.6599      2.00000
    137      -0.6546      2.00000
    138      -0.6218      2.00000
    139      -0.5620      2.00000
    140      -0.5207      2.00000
    141      -0.4560      2.00000
    142      -0.4277      2.00000
    143      -0.3429      2.00000
    144      -0.2867      2.00000
    145      -0.2524      2.00000
    146      -0.1375      2.00000
    147      -0.1293      2.00000
    148      -0.0996      2.00000
    149      -0.0669      2.00000
    150      -0.0198      2.00000
    151      -0.0030      2.00000
    152       0.0775      2.00000
    153       0.0947      2.00000
    154       0.1099      2.00000
    155       0.1244      2.00000
    156       0.1453      2.00000
    157       0.1497      2.00000
    158       0.1974      2.00000
    159       0.2385      2.00000
    160       0.2489      2.00000
    161       0.2703      2.00000
    162       0.3453      2.00000
    163       0.3591      2.00000
    164       0.3905      2.00000
    165       0.4034      2.00000
    166       0.4315      2.00001
    167       0.5549      2.00035
    168       0.6154      2.00160
    169       0.6332      2.00240
    170       0.6473      2.00326
    171       0.6761      2.00590
    172       0.7116      2.01141
    173       0.7371      2.01745
    174       0.8170      2.04858
    175       0.8239      2.05177
    176       0.8454      2.06115
    177       0.8773      2.07028
    178       0.8909      2.07078
    179       0.9463      2.03148
    180       0.9627      2.00122
    181       0.9693      1.98606
    182       1.0446      1.66484
    183       1.0882      1.35864
    184       1.1213      1.08795
    185       1.1274      1.03582
    186       1.1417      0.91518
    187       1.1610      0.75466
    188       1.1863      0.55603
    189       1.1948      0.49384
    190       1.2075      0.40654
    191       1.3261     -0.04397
    192       1.3650     -0.06979
    193       1.4012     -0.06700
    194       1.4192     -0.06063
    195       1.4485     -0.04762
    196       1.5061     -0.02364
    197       1.6265     -0.00260
    198       1.7414     -0.00014
    199       1.8539     -0.00000
    200       2.0068     -0.00000
    201       2.2840     -0.00000
    202       2.3585     -0.00000
    203       2.8050     -0.00000
    204       2.9747     -0.00000
    205       2.9871     -0.00000
    206       3.0216     -0.00000
    207       3.0560     -0.00000
    208       3.2041     -0.00000
    209       3.4023     -0.00000
    210       3.5567     -0.00000
    211       3.6064     -0.00000
    212       3.6366     -0.00000
    213       3.7677     -0.00000
    214       3.8425     -0.00000
    215       3.9556     -0.00000
    216       4.1871     -0.00000
    217       4.2717     -0.00000
    218       4.4244     -0.00000
    219       4.4444     -0.00000
    220       4.6311     -0.00000
    221       4.6904     -0.00000
    222       4.8126     -0.00000
    223       5.1269     -0.00000
    224       5.5044     -0.00000
    225       5.8705     -0.00000
    226       6.5630     -0.00000
    227       6.5704     -0.00000
    228       6.6294      0.00000


--------------------------------------------------------------------------------------------------------


 soft charge-density along one line, spin component           1
         0         1         2         3         4         5         6         7         8         9
 total charge-density along one line
 
 pseudopotential strength for first ion, spin component:           1
 10.103   0.016   0.004   0.012   0.000  -0.004  -0.011   0.000
  0.016  -0.002  -0.000  -0.000  -0.000  -0.000  -0.000   0.000
  0.004  -0.000  -4.250  -0.007   0.001  -0.010  -0.002   0.000
  0.012  -0.000  -0.007  -4.267   0.004  -0.002  -0.017   0.001
  0.000  -0.000   0.001   0.004  -4.248   0.000   0.001  -0.010
 -0.004  -0.000  -0.010  -0.002   0.000  -0.770  -0.000   0.000
 -0.011  -0.000  -0.002  -0.017   0.001  -0.000  -0.770   0.000
  0.000   0.000   0.000   0.001  -0.010   0.000   0.000  -0.770
 total augmentation occupancy for first ion, spin component:           1
  1.644  -0.877   0.011   0.018  -0.055   0.031   0.092  -0.025
 -0.877   1.268  -0.197  -0.600   0.102  -0.079  -0.244   0.037
  0.011  -0.197   0.839   0.185   0.003   0.113   0.051  -0.005
  0.018  -0.600   0.185   1.346  -0.024   0.051   0.251  -0.013
 -0.055   0.102   0.003  -0.024   0.784  -0.005  -0.014   0.099
  0.031  -0.079   0.113   0.051  -0.005   0.019   0.020  -0.003
  0.092  -0.244   0.051   0.251  -0.014   0.020   0.073  -0.008
 -0.025   0.037  -0.005  -0.013   0.099  -0.003  -0.008   0.014


------------------------ aborting loop because EDIFF is reached ----------------------------------------


    CHARGE:  cpu time    0.7626: real time    0.7680
    FORLOC:  cpu time    0.0536: real time    0.0539
    FORNL :  cpu time    2.3236: real time    2.3410
    STRESS:  cpu time    6.6520: real time    6.7061
    FORCOR:  cpu time    0.1805: real time    0.1817
    FORHAR:  cpu time    0.0826: real time    0.0831
    MIXING:  cpu time    0.0053: real time    0.0054
    OFIELD:  cpu time    0.0001: real time    0.0001

  FORCE on cell =-STRESS in cart. coord.  units (eV):
  Direction    XX          YY          ZZ          XY          YZ          ZX
  --------------------------------------------------------------------------------------
  Alpha Z   975.10247   975.10247   975.10247
  Ewald  110824.83010110855.35217************  -175.20280   252.93591  -112.60316
  Hartree117602.64242117597.15988************  -110.24726   110.16300   -63.41741
  E(xc)   -1665.72369 -1665.41426 -1673.04027    -0.45781     0.68543    -0.25633
  Local  ************************239133.81737   274.23646  -339.69705   168.16292
  n-local   121.92572   121.57965    85.28154    -1.24228     1.52458    -0.21152
  augment  1895.48487  1892.93671  1933.95791     2.90095    -4.41444     1.24650
  Kinetic  5523.32232  5513.24187  5601.84445    10.11681   -20.51347     7.50705
  Fock        0.00000     0.00000     0.00000     0.00000     0.00000     0.00000
  -------------------------------------------------------------------------------------
  Total     -36.61402   -38.95163    -5.02665     0.10405     0.68396     0.42805
  in kB     -43.60790   -46.39204    -5.98682     0.12393     0.81461     0.50982
  external pressure =      -32.00 kB  Pullay stress =        0.00 kB


 VOLUME and BASIS-vectors are now :
 -----------------------------------------------------------------------------
  energy-cutoff  :      450.00
  volume of cell :     1345.22
      direct lattice vectors                 reciprocal lattice vectors
     7.296955120 -4.212899000  0.000000000     0.137043463  0.000000000  0.000000000
     0.000000000  8.425798000  0.000000000     0.068521732  0.118683121  0.000000000
     0.000000000  0.000000000 21.879635000     0.000000000  0.000000000  0.045704602

  length of vectors
     8.425798004  8.425798000 21.879635000     0.137043463  0.137043463  0.045704602


 FORCES acting on ions
    electron-ion (+dipol)            ewald-force                    non-local-force                 convergence-correction
 -----------------------------------------------------------------------------------------------
   0.125E+02 0.662E+01 -.870E+03   -.132E+02 -.113E+02 0.856E+03   0.233E+00 0.343E+01 0.115E+02   -.322E-01 0.996E-02 0.237E-01
   -.810E+02 0.520E+02 -.160E+04   0.818E+02 -.489E+02 0.162E+04   0.654E-02 -.263E+01 -.237E+02   -.333E-01 0.187E-03 0.212E-01
   0.623E+02 -.988E+02 -.155E+04   -.714E+02 0.119E+03 0.161E+04   0.922E+01 -.193E+02 -.591E+02   -.104E-01 -.181E-01 -.528E-01
   0.307E-01 -.157E+00 0.234E+04   0.554E-01 0.285E+00 -.234E+04   0.892E-02 -.351E-01 -.118E+01   -.610E-01 -.130E+00 -.277E-01
   0.509E+00 0.552E+00 0.234E+04   -.506E+00 -.602E+00 -.234E+04   -.223E-01 -.358E-01 -.111E+01   -.126E-01 0.580E-01 -.155E-01
   -.438E+00 -.734E-01 0.234E+04   0.393E+00 0.212E+00 -.234E+04   0.403E-01 -.236E-01 -.113E+01   -.312E-01 -.109E+00 -.424E-01
   -.187E+00 -.369E+00 0.234E+04   0.188E+00 0.381E+00 -.234E+04   -.313E-02 0.122E-01 -.116E+01   0.651E-02 0.310E-01 -.892E-01
   0.602E+00 -.560E+00 0.234E+04   -.749E+00 0.532E+00 -.234E+04   -.102E-01 0.314E-01 -.129E+01   0.174E+00 0.923E-02 -.331E-01
   -.850E+00 0.142E+00 0.234E+04   0.887E+00 -.367E+00 -.234E+04   0.206E-01 0.129E-01 -.121E+01   -.446E-01 0.195E+00 -.831E-02
   0.947E+00 -.142E+00 0.234E+04   -.963E+00 0.679E-01 -.234E+04   -.864E-01 0.105E+00 -.109E+01   0.108E+00 -.673E-01 -.232E-01
   -.146E+00 -.248E-01 0.234E+04   0.139E+00 0.152E+00 -.234E+04   -.512E-02 -.195E-01 -.127E+01   0.636E-02 -.856E-01 0.485E-01
   -.365E+00 0.591E+00 0.234E+04   0.555E+00 -.663E+00 -.234E+04   -.158E-01 -.129E-01 -.106E+01   -.146E+00 0.992E-01 0.152E-01
   0.409E+01 0.356E+01 0.851E+03   -.418E+01 -.365E+01 -.851E+03   0.568E-01 -.583E-01 -.226E+00   -.378E-01 0.770E-01 0.843E-01
   0.153E+00 -.279E+00 0.863E+03   -.380E+00 0.467E+00 -.863E+03   0.160E+00 -.170E-02 -.333E+00   0.638E-01 -.145E+00 0.155E-01
   -.394E+01 0.750E+00 0.862E+03   0.419E+01 -.780E+00 -.862E+03   0.200E-01 0.243E-01 -.436E+00   -.115E+00 -.828E-01 0.202E-01
   0.601E+01 0.311E+00 0.861E+03   -.608E+01 -.270E+00 -.861E+03   -.122E+00 0.282E-01 -.354E+00   0.471E-01 -.946E-01 0.178E-01
   -.454E+01 0.363E+01 0.862E+03   0.456E+01 -.367E+01 -.862E+03   0.146E+00 -.107E+00 -.361E+00   -.691E-01 0.623E-01 0.556E-01
   -.206E+01 -.372E+01 0.855E+03   0.218E+01 0.393E+01 -.854E+03   0.880E-02 0.987E-02 -.189E+00   -.869E-01 -.158E+00 -.192E-02
   0.618E+01 -.393E+01 0.854E+03   -.641E+01 0.407E+01 -.854E+03   -.958E-01 -.325E-01 -.175E+00   0.188E+00 0.174E-01 -.384E-01
   0.696E+00 -.314E+01 0.862E+03   -.815E+00 0.305E+01 -.862E+03   -.468E-01 0.105E+00 -.466E+00   0.123E+00 0.826E-01 -.550E-01
   -.650E+01 0.401E+01 0.853E+03   0.672E+01 -.414E+01 -.853E+03   0.279E-01 -.997E-01 -.160E+00   -.113E+00 0.241E+00 -.478E-03
   0.768E+01 -.194E+01 -.641E+03   -.775E+01 0.213E+01 0.640E+03   -.262E+00 -.100E+00 0.395E+00   0.533E-01 -.131E+00 0.124E+00
   -.342E+01 0.895E+01 -.637E+03   0.317E+01 -.884E+01 0.636E+03   0.326E+00 -.545E+00 0.407E+00   0.167E+00 0.478E-01 0.418E-01
   -.190E+01 -.724E+01 -.639E+03   0.173E+01 0.771E+01 0.638E+03   0.795E-01 0.190E-01 0.604E+00   -.575E-01 -.176E+00 0.520E-01
   -.313E+01 0.100E+02 -.637E+03   0.266E+01 -.925E+01 0.638E+03   0.419E+00 -.595E+00 -.673E+00   -.930E-02 -.717E-01 0.848E-01
   0.802E+01 -.707E+00 -.628E+03   -.737E+01 0.554E+00 0.628E+03   -.664E+00 0.164E+00 0.221E+00   -.364E-01 0.304E-01 0.123E+00
   -.755E+00 -.264E+01 -.656E+03   0.512E+00 0.223E+01 0.655E+03   0.238E+00 -.596E-01 -.419E+00   0.277E-01 0.208E+00 0.127E+00
   -.142E+00 0.374E+01 -.627E+03   0.924E-01 -.387E+01 0.626E+03   0.100E+00 -.106E+00 0.819E+00   -.351E-02 0.125E+00 -.837E-02
   -.476E+01 -.717E+01 -.611E+03   0.477E+01 0.720E+01 0.611E+03   0.133E+00 0.283E+00 0.858E+00   0.152E-01 -.713E-01 0.683E-01
   -.514E+01 -.276E+00 -.647E+03   0.530E+01 0.822E-01 0.647E+03   0.943E-01 0.159E+00 0.295E+00   -.155E+00 0.413E-01 0.135E+00
   -.242E+02 0.735E+01 -.214E+04   0.246E+02 -.681E+01 0.214E+04   -.391E+00 -.642E+00 0.132E+01   0.833E-01 -.579E-01 0.104E+00
   0.168E+02 0.391E+02 -.215E+04   -.173E+02 -.397E+02 0.215E+04   0.445E+00 0.583E+00 0.978E+00   0.256E-01 0.125E-01 0.556E-01
   0.266E+02 -.888E+01 -.210E+04   -.269E+02 0.898E+01 0.210E+04   0.183E+00 -.120E+00 0.143E+01   0.825E-02 -.239E-01 0.223E-01
   -.681E+01 -.668E+01 -.217E+04   0.660E+01 0.611E+01 0.217E+04   0.114E+00 0.726E+00 0.118E+01   0.108E-01 0.757E-01 0.949E-02
   0.172E+02 0.290E+01 -.218E+04   -.173E+02 -.352E+01 0.218E+04   -.979E-01 0.610E+00 0.931E+00   0.765E-01 0.868E-01 0.577E-01
   0.748E+02 0.429E+02 -.197E+04   -.779E+02 -.413E+02 0.197E+04   0.287E+01 -.816E+00 -.220E+01   -.780E-01 -.354E-01 0.501E-01
   -.504E+02 -.544E+02 -.210E+04   0.519E+02 0.570E+02 0.209E+04   -.160E+01 -.261E+01 0.203E+01   -.307E-01 0.318E-01 0.143E+00
   -.726E+02 0.893E+02 -.203E+04   0.730E+02 -.902E+02 0.203E+04   -.337E+00 0.924E+00 -.700E+00   -.605E-03 -.110E+00 0.199E-01
   0.170E+02 -.528E+02 -.211E+04   -.169E+02 0.541E+02 0.211E+04   -.319E-01 -.149E+01 0.116E+01   -.593E-01 0.212E-01 0.851E-01
 -----------------------------------------------------------------------------------------------
   -.111E+02 0.224E+02 0.747E+02   -.142E-12 0.639E-13 -.909E-12   0.112E+02 -.222E+02 -.759E+02   -.389E-01 -.471E-02 0.121E+01
 
 
 POSITION                                       TOTAL-FORCE (eV/Angst)
 -----------------------------------------------------------------------------------
      5.07775      0.67348     10.41305        -0.522019     -1.245925     -2.280817
      6.63206     -0.56139     10.13113         0.714121      0.371874      0.199229
      4.92254      1.02793     11.49125         0.124367      0.556745      1.511135
      7.20031     -1.38846      1.62732         0.032542     -0.041468      0.152606
      2.33567      1.42014      1.62732        -0.032837     -0.031904      0.113131
      4.76799      0.01584      1.62732        -0.038162      0.002136      0.135713
      7.20031      1.42015      1.62732         0.003106      0.051608      0.149036
      2.33567      4.22875      1.62732         0.014889      0.008370      0.109636
      4.76799      2.82445      1.62732         0.010744     -0.021976      0.112647
      2.33567      7.03734      1.62732         0.003353     -0.039979      0.065467
      4.76799      5.63304      1.62732        -0.007119      0.018459      0.142141
      7.20031      4.22874      1.62732         0.027339      0.010053      0.073575
      1.52490      0.01584      3.92052        -0.073580     -0.076216      0.068555
      3.95722     -1.38846      3.92052        -0.005007      0.037290     -0.121933
      6.38953     -2.79276      3.92052         0.150036     -0.091702     -0.193691
      1.52490      2.82445      3.92052        -0.146325     -0.029319     -0.189179
      3.95722      1.42015      3.92052         0.097329     -0.089451     -0.189614
      6.38953      0.01585      3.92052         0.041504      0.052716      0.122037
      1.52490      5.63305      3.92052        -0.136667      0.122005      0.015472
      3.95722      4.22874      3.92052        -0.043972      0.095879     -0.179059
      6.38953      2.82445      3.92052         0.125124      0.001963     -0.049848
      0.73240      4.22150      6.21459        -0.277183     -0.050326     -0.052811
      3.12683      5.66541      6.19794         0.244534     -0.394704     -0.047871
      5.58939     -1.41309      6.19632        -0.152710      0.303859      0.394680
      0.69354      1.42277      6.21904        -0.055656      0.117475     -0.047734
      3.17582     -0.01243      6.19384        -0.049621      0.036949      0.100642
      0.69930      7.03901      6.25952         0.020679     -0.270077     -0.545834
      5.55838      4.22918      6.17219         0.045463     -0.114089      0.271714
      3.14087      2.80100      6.14464         0.160053      0.235857      0.434890
      5.58364      1.40117      6.22542         0.098515      0.002282     -0.046418
      2.37172      4.23251      8.46170         0.096808     -0.169417     -0.048303
      4.77561      5.60387      8.51929        -0.034994     -0.051266     -0.422766
      2.36382      1.39205      8.41371        -0.049114     -0.055403      0.174512
      7.21722      4.15969      8.50036        -0.083694      0.221121      0.182748
      2.35741      6.99450      8.53632        -0.095014      0.072853     -0.059911
      4.70990     -0.00030      8.62105        -0.315266      0.714649      0.374962
      7.26801      1.41987      8.55452        -0.066780     -0.019920     -0.262002
      7.26495     -1.52409      8.57122         0.120456     -0.100554      0.116468
      4.77964      2.86186      8.50001         0.054758     -0.140448     -0.283206
 -----------------------------------------------------------------------------------
    total drift:                                0.057126      0.155330      0.023204
  FORCES: max atom, RMS     2.650841    0.577403
  Number: max atom                 1
  FORCE total and by dimension    3.605883    2.280817


--------------------------------------------------------------------------------------------------------



  FREE ENERGIE OF THE ION-ELECTRON SYSTEM (eV)
  ---------------------------------------------------
  free  energy   TOTEN  =      -230.47966995 eV

  energy  without entropy=     -230.45879056  energy(sigma->0) =     -230.47271015
 
 d Force = 0.6809131E-01[ 0.895E-02, 0.127E+00]  d Energy = 0.7075494E-01-0.266E-02
 d Force =-0.2393773E+02[-0.243E+02,-0.236E+02]  d Ewald  =-0.2393576E+02-0.197E-02


--------------------------------------------------------------------------------------------------------


    POTLOK:  cpu time    0.1602: real time    0.2906


--------------------------------------------------------------------------------------------------------


 stress matrix after NEB project (eV)
    -36.61402      0.10405      0.42805
      0.10405    -38.95163      0.68396
      0.42805      0.68396     -5.02665
  FORCES: max atom, RMS     2.650841    0.577403
  FORCE total and by dimension    3.605883    2.280817
  Stress total and by dimension   53.706675   38.951632
 Quasi-Newton relaxation of ions (Broydens 2nd method)
  g(Force)  = 0.251E+00   g(Stress)= 0.000E+00

 retain information from N=  2 steps
 eigenvalues of (default step * inverse Hessian matrix)
  average eigenvalue of G=   0.8069
 eigenvalue spectrum of G is  0.8069  0.8069
  RESET_HESSIAN           0


--------------------------------------------------------------------------------------------------------


    WAVPRE:  cpu time    0.0803: real time    0.1737
    FEWALD:  cpu time    0.0164: real time    0.0168

 real space projection operators:
  total allocation   :      13556.27 KBytes
  max/ min on nodes  :       6786.92       6769.34

    ORTHCH:  cpu time    1.1502: real time    1.1673
     LOOP+:  cpu time   63.4921: real time   64.3048


--------------------------------------- Iteration      4(   1)  ---------------------------------------


    POTLOK:  cpu time    0.1817: real time    0.3254
    SETDIJ:  cpu time    0.0183: real time    0.0184
