 running on    8 total cores
 distrk:  each k-point on    8 cores,    1 groups
 distr:  one band on    2 cores,    4 groups
 using from now: INCAR     
 vasp.5.4.4 16052018 (build Apr 24 2014 20:13:14) complex standard
 Contain Constrained Minimization Technique (TS), Periodic NBO, VASPsol, libbeef, VASP2WANNIER90, Constrained Cell Relaxation
 POSCAR found type information on POSCAR  C  O  Pt
 POSCAR found :  3 types and      39 ions
 scaLAPACK will be used
 LDA part: xc-table for Pade appr. of Perdew
 POSCAR found type information on POSCAR  C  O  Pt
 POSCAR found :  3 types and      39 ions
 POSCAR, INCAR and KPOINTS ok, starting setup
 FFT: planning ...
 WAVECAR not read
 entering main loop
       N       E                     dE             d eps       ncg     rms          rms(c)
DAV:   1     0.241931719243E+04    0.24193E+04   -0.15949E+05  1824   0.129E+03
DAV:   2    -0.630990582916E+02   -0.24824E+04   -0.23029E+04  2112   0.286E+02
DAV:   3    -0.240229561723E+03   -0.17713E+03   -0.16069E+03  2168   0.690E+01
DAV:   4    -0.247946122676E+03   -0.77166E+01   -0.74143E+01  2352   0.137E+01
DAV:   5    -0.248164089828E+03   -0.21797E+00   -0.21585E+00  2424   0.236E+00    0.272E+01
RMM:   6    -0.244560700318E+03    0.36034E+01   -0.54198E+01  1832   0.148E+01    0.273E+01
RMM:   7    -0.238640196676E+03    0.59205E+01   -0.30902E+01  1831   0.872E+00    0.186E+01
RMM:   8    -0.240793209842E+03   -0.21530E+01   -0.82277E+00  1829   0.479E+00    0.231E+01
RMM:   9    -0.232751750076E+03    0.80415E+01   -0.29442E+00  1830   0.268E+00    0.114E+01
RMM:  10    -0.230762446646E+03    0.19893E+01   -0.15557E+00  1831   0.202E+00    0.448E+00
RMM:  11    -0.230426047045E+03    0.33640E+00   -0.35398E-01  1831   0.952E-01    0.305E+00
RMM:  12    -0.230318650858E+03    0.10740E+00   -0.18766E-01  1831   0.685E-01    0.244E+00
RMM:  13    -0.230272125287E+03    0.46526E-01   -0.14954E-01  1831   0.637E-01    0.170E+00
RMM:  14    -0.230233435810E+03    0.38689E-01   -0.77547E-02  1831   0.475E-01    0.870E-01
RMM:  15    -0.230224824704E+03    0.86111E-02   -0.22213E-02  1832   0.249E-01    0.481E-01
RMM:  16    -0.230222235226E+03    0.25895E-02   -0.58872E-03  1830   0.131E-01    0.267E-01
RMM:  17    -0.230221800627E+03    0.43460E-03   -0.27478E-03  1817   0.880E-02    0.204E-01
RMM:  18    -0.230221552754E+03    0.24787E-03   -0.10801E-03  1787   0.553E-02    0.134E-01
RMM:  19    -0.230221362030E+03    0.19072E-03   -0.39444E-04  1332   0.355E-02    0.580E-02
RMM:  20    -0.230221475484E+03   -0.11345E-03   -0.14107E-04  1017   0.214E-02    0.543E-02
RMM:  21    -0.230221525300E+03   -0.49815E-04   -0.66166E-05   994   0.154E-02
   1 F= -.23022153E+03 E0= -.23021375E+03  d E =-.230222E+03
 BRION: g(F)=  0.235E+00 g(S)=  0.000E+00
 bond charge predicted
       N       E                     dE             d eps       ncg     rms          rms(c)
DAV:   1    -0.230376962098E+03   -0.15549E+00   -0.21196E+01  1856   0.876E+00    0.738E-01
RMM:   2    -0.230432097475E+03   -0.55135E-01   -0.45657E-01  1832   0.135E+00    0.134E+00
RMM:   3    -0.230424559888E+03    0.75376E-02   -0.33749E-02  1861   0.317E-01    0.965E-01
RMM:   4    -0.230416557682E+03    0.80022E-02   -0.96402E-03  1849   0.163E-01    0.668E-01
RMM:   5    -0.230410261795E+03    0.62959E-02   -0.50107E-03  1836   0.117E-01    0.352E-01
RMM:   6    -0.230409626691E+03    0.63510E-03   -0.46036E-03  1826   0.117E-01    0.232E-01
RMM:   7    -0.230409432585E+03    0.19411E-03   -0.27532E-03  1828   0.899E-02    0.195E-01
RMM:   8    -0.230408962147E+03    0.47044E-03   -0.10026E-03  1813   0.544E-02    0.917E-02
RMM:   9    -0.230408915012E+03    0.47135E-04   -0.21312E-04  1021   0.267E-02
   2 F= -.23040892E+03 E0= -.23040168E+03  d E =-.187390E+00
 BRION: g(F)=  0.173E+00 g(S)=  0.000E+00 retain N=  1 mean eig= 1.38
 eig:   1.379
 bond charge predicted
       N       E                     dE             d eps       ncg     rms          rms(c)
DAV:   1    -0.230456373212E+03   -0.47411E-01   -0.92508E+00  1840   0.585E+00    0.508E-01
RMM:   2    -0.230486979158E+03   -0.30606E-01   -0.31914E-01  1845   0.932E-01    0.557E-01
RMM:   3    -0.230483101245E+03    0.38779E-02   -0.12791E-02  1838   0.189E-01    0.424E-01
RMM:   4    -0.230482720644E+03    0.38060E-03   -0.35504E-03  1841   0.984E-02    0.425E-01
RMM:   5    -0.230483216057E+03   -0.49541E-03   -0.21548E-03  1833   0.729E-02    0.498E-01
RMM:   6    -0.230480665824E+03    0.25502E-02   -0.35333E-03  1825   0.956E-02    0.229E-01
RMM:   7    -0.230479751510E+03    0.91431E-03   -0.16290E-03  1821   0.686E-02    0.102E-01
RMM:   8    -0.230479669949E+03    0.81561E-04   -0.31692E-04  1143   0.320E-02
   3 F= -.23047967E+03 E0= -.23047271E+03  d E =-.707549E-01
 BRION: g(F)=  0.251E+00 g(S)=  0.000E+00 retain N=  2 mean eig= 0.81
 eig:   0.807  0.807
 bond charge predicted
       N       E                     dE             d eps       ncg     rms          rms(c)
[mpiexec@node09] Sending Ctrl-C to processes as requested
[mpiexec@node09] Press Ctrl-C again to force abort
