<?xml version="1.0" encoding="ISO-8859-1"?>
<modeling>
 <generator>
  <i name="program" type="string"> vasp </i>
  <i name="version" type="string">5.4.4  </i>
  <i name="subversion" type="string">16052018 (build Apr 24 2014 20:13:14) complex standard parallel Constrained Minimization Technique (TS), Periodic NBO, VASPsol, libbeef, VASP2WANNIER90, Constrained Cell Relaxation </i>
  <i name="platform" type="string">Center for Computational Chemistry </i>
  <i name="user" type="string">phu </i>
  <i name="host" type="string">node09 </i>
  <i name="date" type="string">2025 09 27 </i>
  <i name="time" type="string">17:24:37 </i>
 </generator>
 <incar>
  <i type="string" name="SYSTEM"> metal</i>
  <i type="int" name="ISTART">     0</i>
  <i type="string" name="PREC">normal</i>
  <i type="string" name="ALGO">Fast</i>
  <i type="int" name="NSIM">     4</i>
  <i type="int" name="ISPIN">     1</i>
  <i type="int" name="NELMIN">     8</i>
  <i type="int" name="IBRION">     1</i>
  <i name="EDIFFG">     -0.05000000</i>
  <i type="int" name="NSW">  5000</i>
  <i type="int" name="ISIF">     2</i>
  <i type="int" name="ISYM">     0</i>
  <i name="ENCUT">    450.00000000</i>
  <i name="POTIM">      0.20000000</i>
  <i type="string" name="LREAL">A</i>
  <i type="int" name="ISMEAR">     1</i>
  <i name="SIGMA">      0.20000000</i>
  <i type="logical" name="LWAVE"> F  </i>
  <i type="logical" name="LCHARG"> F  </i>
  <v type="int" name="KPOINT_BSE">    -1     0     0     0</v>
  <i type="int" name="VOSKOWN">     0</i>
 </incar>
 <structure name="primitive_cell" >
  <crystal>
   <varray name="basis" >
    <v>       7.29695512      -4.21289900       0.00000000 </v>
    <v>       0.00000000       8.42579800       0.00000000 </v>
    <v>       0.00000000       0.00000000      21.87963500 </v>
   </varray>
   <i name="volume">   1345.21837528 </i>
   <varray name="rec_basis" >
    <v>       0.13704346       0.00000000       0.00000000 </v>
    <v>       0.06852173       0.11868312       0.00000000 </v>
    <v>       0.00000000       0.00000000       0.04570460 </v>
   </varray>
  </crystal>
  <varray name="positions" >
   <v>      -0.29973968       0.43212078       0.47650588 </v>
   <v>      -0.32787622       0.45897667      -0.47360559 </v>
   <v>      -0.09390051       0.38429266       0.46191927 </v>
   <v>      -0.35278290       0.31967952       0.39314403 </v>
   <v>      -0.34509549      -0.33207136       0.38904456 </v>
   <v>      -0.00331171      -0.33315089       0.39142409 </v>
   <v>       0.32398580       0.32733905       0.38424955 </v>
   <v>      -0.00602432       0.31771834       0.39214816 </v>
   <v>       0.32342314      -0.00861185       0.39010706 </v>
   <v>      -0.34529016      -0.00689553       0.39017651 </v>
   <v>      -0.23557517      -0.45152286       0.28455965 </v>
   <v>      -0.01015362      -0.01288879       0.38801331 </v>
   <v>       0.43530271       0.21588390       0.28288695 </v>
   <v>      -0.23319896       0.21405517       0.28246612 </v>
   <v>       0.32416548      -0.33459708       0.38686371 </v>
   <v>       0.10219229      -0.44774399       0.28413713 </v>
   <v>       0.42922607      -0.45442527       0.27983097 </v>
   <v>       0.09587842      -0.11498545       0.28734561 </v>
   <v>      -0.23799255      -0.11628019       0.28145319 </v>
   <v>       0.42690516      -0.11190105       0.28335952 </v>
   <v>       0.09545020       0.21579818       0.28432503 </v>
   <v>      -0.45768900       0.43970300       0.17918600 </v>
   <v>      -0.12435600       0.43970300       0.17918600 </v>
   <v>      -0.45768900       0.10636900       0.17918600 </v>
   <v>      -0.12435600      -0.22696400       0.17918600 </v>
   <v>       0.20897700       0.10636900       0.17918600 </v>
   <v>      -0.12435600       0.10636900       0.17918600 </v>
   <v>      -0.45768900      -0.22696400       0.17918600 </v>
   <v>       0.20897700      -0.22696400       0.17918600 </v>
   <v>       0.20897700       0.43970300       0.17918600 </v>
   <v>      -0.34657800       0.32859100       0.07437600 </v>
   <v>      -0.34657800      -0.33807500       0.07437600 </v>
   <v>      -0.01324500      -0.33807500       0.07437600 </v>
   <v>       0.32008800       0.32859100       0.07437600 </v>
   <v>      -0.01324500       0.32859100       0.07437600 </v>
   <v>       0.32008800      -0.00474200       0.07437600 </v>
   <v>      -0.34657800      -0.00474200       0.07437600 </v>
   <v>      -0.01324500      -0.00474200       0.07437600 </v>
   <v>       0.32008800      -0.33807500       0.07437600 </v>
  </varray>
 </structure>
 <varray name="primitive_index" >
  <v type="int" >        1 </v>
  <v type="int" >        3 </v>
  <v type="int" >        2 </v>
  <v type="int" >       36 </v>
  <v type="int" >       39 </v>
  <v type="int" >       37 </v>
  <v type="int" >       33 </v>
  <v type="int" >       38 </v>
  <v type="int" >       35 </v>
  <v type="int" >       32 </v>
  <v type="int" >       30 </v>
  <v type="int" >       34 </v>
  <v type="int" >       26 </v>
  <v type="int" >       24 </v>
  <v type="int" >       31 </v>
  <v type="int" >       22 </v>
  <v type="int" >       29 </v>
  <v type="int" >       27 </v>
  <v type="int" >       28 </v>
  <v type="int" >       23 </v>
  <v type="int" >       25 </v>
  <v type="int" >       17 </v>
  <v type="int" >       18 </v>
  <v type="int" >       14 </v>
  <v type="int" >       21 </v>
  <v type="int" >       13 </v>
  <v type="int" >       15 </v>
  <v type="int" >       20 </v>
  <v type="int" >       19 </v>
  <v type="int" >       16 </v>
  <v type="int" >        6 </v>
  <v type="int" >        9 </v>
  <v type="int" >        7 </v>
  <v type="int" >        5 </v>
  <v type="int" >        4 </v>
  <v type="int" >       10 </v>
  <v type="int" >       11 </v>
  <v type="int" >       12 </v>
  <v type="int" >        8 </v>
 </varray>
 <kpoints>
  <generation param="Gamma">
   <v type="int" name="divisions">       2        2        1 </v>
   <v name="usershift">      0.00000000       0.00000000       0.00000000 </v>
   <v name="genvec1">      0.50000000       0.00000000       0.00000000 </v>
   <v name="genvec2">     -0.00000000       0.50000000       0.00000000 </v>
   <v name="genvec3">      0.00000000       0.00000000       1.00000000 </v>
   <v name="shift">      0.00000000       0.00000000       0.00000000 </v>
  </generation>
  <varray name="kpointlist" >
   <v>       0.00000000       0.00000000       0.00000000 </v>
   <v>       0.50000000       0.00000000       0.00000000 </v>
   <v>      -0.00000000       0.50000000       0.00000000 </v>
   <v>       0.50000000       0.50000000       0.00000000 </v>
  </varray>
  <varray name="weights" >
   <v>       0.25000000 </v>
   <v>       0.25000000 </v>
   <v>       0.25000000 </v>
   <v>       0.25000000 </v>
  </varray>
 </kpoints>
 <parameters>
  <separator name="general" >
   <i type="string" name="SYSTEM">metal</i>
   <i type="logical" name="LCOMPAT"> F  </i>
  </separator>
  <separator name="electronic" >
   <i type="string" name="PREC">normal</i>
   <i name="ENMAX">    450.00000000</i>
   <i name="ENAUG">    644.87300000</i>
   <i name="EDIFF">      0.00010000</i>
   <i type="int" name="IALGO">    68</i>
   <i type="int" name="IWAVPR">    11</i>
   <i type="int" name="NBANDS">   228</i>
   <i name="NELECT">    376.00000000</i>
   <i type="int" name="TURBO">     0</i>
   <i type="int" name="IRESTART">     0</i>
   <i type="int" name="NREBOOT">     0</i>
   <i type="int" name="NMIN">     0</i>
   <i name="EREF">      0.00000000</i>
   <separator name="electronic smearing" >
    <i type="int" name="ISMEAR">     1</i>
    <i name="SIGMA">      0.20000000</i>
    <i name="KSPACING">      0.50000000</i>
    <i type="logical" name="KGAMMA"> T  </i>
   </separator>
   <separator name="electronic projectors" >
    <i type="logical" name="LREAL"> T  </i>
    <v name="ROPT">     -0.00050000     -0.00050000     -0.00050000</v>
    <i type="int" name="LMAXPAW">  -100</i>
    <i type="int" name="LMAXMIX">     2</i>
    <i type="logical" name="NLSPLINE"> F  </i>
   </separator>
   <separator name="electronic startup" >
    <i type="int" name="ISTART">     0</i>
    <i type="int" name="ICHARG">     2</i>
    <i type="int" name="INIWAV">     1</i>
   </separator>
   <separator name="electronic spin" >
    <i type="int" name="ISPIN">     1</i>
    <i type="logical" name="LNONCOLLINEAR"> F  </i>
    <v name="MAGMOM">      1.00000000      1.00000000      1.00000000      1.00000000      1.00000000      1.00000000      1.00000000      1.00000000      1.00000000      1.00000000      1.00000000      1.00000000      1.00000000      1.00000000      1.00000000      1.00000000      1.00000000      1.00000000      1.00000000      1.00000000
      1.00000000      1.00000000      1.00000000      1.00000000      1.00000000      1.00000000      1.00000000      1.00000000      1.00000000      1.00000000      1.00000000      1.00000000      1.00000000      1.00000000      1.00000000      1.00000000      1.00000000      1.00000000      1.00000000</v>
    <i name="NUPDOWN">     -1.00000000</i>
    <i type="logical" name="LSORBIT"> F  </i>
    <v name="SAXIS">      0.00000000      0.00000000      1.00000000</v>
    <i type="logical" name="LSPIRAL"> F  </i>
    <v name="QSPIRAL">      0.00000000      0.00000000      0.00000000</v>
    <i type="logical" name="LZEROZ"> F  </i>
   </separator>
   <separator name="electronic exchange-correlation" >
    <i type="logical" name="LASPH"> F  </i>
    <i type="logical" name="LMETAGGA"> F  </i>
   </separator>
   <separator name="electronic convergence" >
    <i type="int" name="NELM">    60</i>
    <i type="int" name="NELMDL">    -5</i>
    <i type="int" name="NELMIN">     8</i>
    <i name="ENINI">    450.00000000</i>
    <separator name="electronic convergence detail" >
     <i type="logical" name="LDIAG"> T  </i>
     <i type="logical" name="LSUBROT"> F  </i>
     <i name="WEIMIN">      0.00100000</i>
     <i name="EBREAK">      0.00000011</i>
     <i name="DEPER">      0.30000000</i>
     <i type="int" name="NRMM">     4</i>
     <i name="TIME">      0.40000000</i>
    </separator>
   </separator>
   <separator name="electronic mixer" >
    <i name="AMIX">      0.40000000</i>
    <i name="BMIX">      1.00000000</i>
    <i name="AMIN">      0.10000000</i>
    <i name="AMIX_MAG">      1.60000000</i>
    <i name="BMIX_MAG">      1.00000000</i>
    <separator name="electronic mixer details" >
     <i type="int" name="IMIX">     4</i>
     <i type="logical" name="MIXFIRST"> F  </i>
     <i type="int" name="MAXMIX">   -45</i>
     <i name="WC">    100.00000000</i>
     <i type="int" name="INIMIX">     1</i>
     <i type="int" name="MIXPRE">     1</i>
     <i type="int" name="MREMOVE">     5</i>
    </separator>
   </separator>
   <separator name="electronic dipolcorrection" >
    <i type="logical" name="LDIPOL"> F  </i>
    <i type="logical" name="LMONO"> F  </i>
    <i type="int" name="IDIPOL">     0</i>
    <i name="EPSILON">      1.00000000</i>
    <v name="DIPOL">   -100.00000000   -100.00000000   -100.00000000</v>
    <i name="EFIELD">      0.00000000</i>
   </separator>
  </separator>
  <separator name="grids" >
   <i type="int" name="NGX">    48</i>
   <i type="int" name="NGY">    48</i>
   <i type="int" name="NGZ">   120</i>
   <i type="int" name="NGXF">    96</i>
   <i type="int" name="NGYF">    96</i>
   <i type="int" name="NGZF">   240</i>
   <i type="logical" name="ADDGRID"> F  </i>
  </separator>
  <separator name="ionic" >
   <i type="int" name="NSW">  5000</i>
   <i type="int" name="IBRION">     1</i>
   <i type="int" name="MDALGO">     0</i>
   <i type="int" name="ISIF">     2</i>
   <i name="PSTRESS">      0.00000000</i>
   <i name="EDIFFG">     -0.05000000</i>
   <i type="int" name="NFREE">     0</i>
   <i name="POTIM">      0.20000000</i>
   <i name="SMASS">     -3.00000000</i>
   <i name="SCALEE">      1.00000000</i>
  </separator>
  <separator name="ionic md" >
   <i name="TEBEG">      0.00010000</i>
   <i name="TEEND">      0.00010000</i>
   <i type="int" name="NBLOCK">     1</i>
   <i type="int" name="KBLOCK">  5000</i>
   <i type="int" name="NPACO">   256</i>
   <i name="APACO">     16.00000000</i>
  </separator>
  <separator name="symmetry" >
   <i type="int" name="ISYM">     0</i>
   <i name="SYMPREC">      0.00001000</i>
  </separator>
  <separator name="dos" >
   <i type="int" name="LORBIT">     0</i>
   <v name="RWIGS">     -1.00000000     -1.00000000     -1.00000000</v>
   <i type="int" name="NEDOS">   301</i>
   <i name="EMIN">     10.00000000</i>
   <i name="EMAX">    -10.00000000</i>
   <i name="EFERMI">      0.00000000</i>
  </separator>
  <separator name="writing" >
   <i type="int" name="NWRITE">     2</i>
   <i type="logical" name="LWAVE"> F  </i>
   <i type="logical" name="LDOWNSAMPLE"> F  </i>
   <i type="logical" name="LCHARG"> F  </i>
   <i type="logical" name="LPARD"> F  </i>
   <i type="logical" name="LVTOT"> F  </i>
   <i type="logical" name="LVHAR"> F  </i>
   <i type="logical" name="LELF"> F  </i>
   <i type="logical" name="LOPTICS"> F  </i>
   <v name="STM">      0.00000000      0.00000000      0.00000000      0.00000000      0.00000000      0.00000000      0.00000000</v>
  </separator>
  <separator name="performance" >
   <i type="int" name="NPAR">     4</i>
   <i type="int" name="NSIM">     4</i>
   <i type="int" name="NBLK">    -1</i>
   <i type="logical" name="LPLANE"> T  </i>
   <i type="logical" name="LSCALAPACK"> T  </i>
   <i type="logical" name="LSCAAWARE"> F  </i>
   <i type="logical" name="LSCALU"> F  </i>
   <i type="logical" name="LASYNC"> F  </i>
   <i type="logical" name="LORBITALREAL"> F  </i>
  </separator>
  <separator name="miscellaneous" >
   <i type="int" name="IDIOT">     3</i>
   <i type="int" name="ISPECIAL">     0</i>
   <i type="logical" name="LMUSIC"> F  </i>
   <v name="POMASS">     12.01100000     16.00000000    195.08000000</v>
   <v name="DARWINR">      0.00000000      0.00000000      0.00000000</v>
   <v name="DARWINV">      1.00000000      1.00000000      1.00000000</v>
   <i type="logical" name="LCORR"> T  </i>
  </separator>
  <i type="logical" name="GGA_COMPAT"> T  </i>
  <i type="logical" name="LBERRY"> F  </i>
  <i type="int" name="ICORELEVEL">     0</i>
  <i type="logical" name="LDAU"> F  </i>
  <i type="int" name="I_CONSTRAINED_M">     0</i>
  <separator name="electronic exchange-correlation" >
   <i type="string" name="GGA">--</i>
   <i type="int" name="VOSKOWN">     0</i>
   <i type="logical" name="LHFCALC"> F  </i>
   <i type="string" name="PRECFOCK"></i>
   <i type="logical" name="LSYMGRAD"> F  </i>
   <i type="logical" name="LHFONE"> F  </i>
   <i type="logical" name="LRHFCALC"> F  </i>
   <i type="logical" name="LTHOMAS"> F  </i>
   <i type="logical" name="LMODELHF"> F  </i>
   <i name="ENCUT4O">     -1.00000000</i>
   <i type="int" name="EXXOEP">     0</i>
   <i type="int" name="FOURORBIT">     0</i>
   <i name="AEXX">      0.00000000</i>
   <i name="HFALPHA">      0.00000000</i>
   <i name="MCALPHA">      0.00000000</i>
   <i name="ALDAX">      1.00000000</i>
   <i name="AGGAX">      1.00000000</i>
   <i name="ALDAC">      1.00000000</i>
   <i name="AGGAC">      1.00000000</i>
   <i type="int" name="NKREDX">     1</i>
   <i type="int" name="NKREDY">     1</i>
   <i type="int" name="NKREDZ">     1</i>
   <i type="logical" name="SHIFTRED"> F  </i>
   <i type="logical" name="ODDONLY"> F  </i>
   <i type="logical" name="EVENONLY"> F  </i>
   <i type="int" name="LMAXFOCK">     0</i>
   <i type="int" name="NMAXFOCKAE">     0</i>
   <i type="logical" name="LFOCKAEDFT"> F  </i>
   <i name="HFSCREEN">      0.00000000</i>
   <i name="HFSCREENC">      0.00000000</i>
   <i type="int" name="NBANDSGWLOW">     0</i>
  </separator>
  <separator name="vdW DFT" >
   <i type="logical" name="LUSE_VDW"> F  </i>
   <i name="Zab_VDW">     -0.84910000</i>
   <i name="PARAM1">      0.12340000</i>
   <i name="PARAM2">      1.00000000</i>
   <i name="PARAM3">      0.00000000</i>
  </separator>
  <separator name="model GW" >
   <i type="int" name="MODEL_GW">     0</i>
   <i name="MODEL_EPS0">     20.69566731</i>
   <i name="MODEL_ALPHA">      1.00000000</i>
  </separator>
  <separator name="linear response parameters" >
   <i type="logical" name="LEPSILON"> F  </i>
   <i type="logical" name="LRPA"> F  </i>
   <i type="logical" name="LNABLA"> F  </i>
   <i type="logical" name="LVEL"> F  </i>
   <i type="int" name="KINTER">     0</i>
   <i name="CSHIFT">      0.10000000</i>
   <i name="OMEGAMAX">     -1.00000000</i>
   <i name="DEG_THRESHOLD">      0.00200000</i>
   <i name="RTIME">     -0.10000000</i>
   <i name="WPLASMAI">      0.00000000</i>
   <v name="DFIELD">      0.00000000      0.00000000      0.00000000</v>
   <v name="WPLASMA">      0.00000000      0.00000000      0.00000000      0.00000000      0.00000000      0.00000000      0.00000000      0.00000000      0.00000000</v>
  </separator>
  <separator name="orbital magnetization" >
   <i type="logical" name="NUCIND"> F  </i>
   <v name="MAGPOS">      0.00000000      0.00000000      0.00000000</v>
   <i type="logical" name="LNICSALL"> T  </i>
   <i type="logical" name="ORBITALMAG"> F  </i>
   <i type="logical" name="LMAGBLOCH"> F  </i>
   <i type="logical" name="LCHIMAG"> F  </i>
   <i type="logical" name="LGAUGE"> T  </i>
   <i type="int" name="MAGATOM">     0</i>
   <v name="MAGDIPOL">      0.00000000      0.00000000      0.00000000</v>
   <v name="AVECCONST">      0.00000000      0.00000000      0.00000000</v>
  </separator>
  <separator name="response functions" >
   <i type="logical" name="LADDER"> F  </i>
   <i type="logical" name="LRPAFORCE"> F  </i>
   <i type="logical" name="LFXC"> F  </i>
   <i type="logical" name="LHARTREE"> T  </i>
   <i type="int" name="IBSE">     0</i>
   <v type="int" name="KPOINT">    -1     0     0     0</v>
   <i type="logical" name="LTCTE"> F  </i>
   <i type="logical" name="LTETE"> F  </i>
   <i type="logical" name="LTRIPLET"> F  </i>
   <i type="logical" name="LFXCEPS"> F  </i>
   <i type="logical" name="LFXHEG"> F  </i>
   <i type="int" name="NATURALO">     2</i>
   <i type="logical" name="L2ORDER"> F  </i>
   <i type="logical" name="LMP2LT"> F  </i>
   <i type="logical" name="LUSEW"> F  </i>
   <i name="ENCUTGW">     -2.00000000</i>
   <i name="ENCUTGWSOFT">     -2.00000000</i>
   <i name="ENCUTLF">     -1.00000000</i>
   <i type="int" name="LMAXMP2">    -1</i>
   <i name="SCISSOR">      0.00000000</i>
   <i type="int" name="NOMEGA">     0</i>
   <i type="int" name="NOMEGAR">     0</i>
   <i type="int" name="NBANDSGW">    -1</i>
   <i type="int" name="NBANDSO">    -1</i>
   <i type="int" name="NBANDSV">    -1</i>
   <i type="int" name="NELM">     1</i>
   <i type="int" name="NELMHF">     1</i>
   <i type="int" name="DIM">     3</i>
   <i type="int" name="ANTIRES">     0</i>
   <i name="OMEGAMAX">    -30.00000000</i>
   <i name="OMEGAMIN">    -30.00000000</i>
   <i name="OMEGATL">   -200.00000000</i>
   <i type="int" name="OMEGAGRID">   140</i>
   <i name="CSHIFT">     -0.10000000</i>
   <i type="logical" name="SELFENERGY"> F  </i>
   <i type="logical" name="LSPECTRAL"> F  </i>
   <i type="logical" name="LSPECTRALGW"> F  </i>
   <i type="logical" name="LSINGLES"> F  </i>
   <i type="logical" name="LFERMIGW"> F  </i>
   <i type="logical" name="ODDONLYGW"> F  </i>
   <i type="logical" name="EVENONLYGW"> F  </i>
   <i type="int" name="NKREDLFX">     1</i>
   <i type="int" name="NKREDLFY">     1</i>
   <i type="int" name="NKREDLFZ">     1</i>
   <i type="int" name="MAXMEM">  2800</i>
   <i type="int" name="TELESCOPE">     0</i>
   <i type="int" name="TAUPAR">     1</i>
   <i type="int" name="OMEGAPAR">    -1</i>
   <i name="LAMBDA">      1.00000000</i>
  </separator>
  <separator name="External order field" >
   <i name="OFIELD_KAPPA">      0.00000000</i>
   <v name="OFIELD_K">      0.00000000      0.00000000      0.00000000</v>
   <i name="OFIELD_Q6_NEAR">      0.00000000</i>
   <i name="OFIELD_Q6_FAR">      0.00000000</i>
   <i name="OFIELD_A">      0.00000000</i>
  </separator>
  <separator name="solvation model" >
   <i type="logical" name="LSOL"> F  </i>
  </separator>
 </parameters>
 <atominfo>
  <atoms>      39 </atoms>
  <types>       3 </types>
  <array name="atoms" >
   <dimension dim="1">ion</dimension>
   <field type="string">element</field>
   <field type="int">atomtype</field>
   <set>
    <rc><c>C </c><c>   1</c></rc>
    <rc><c>O </c><c>   2</c></rc>
    <rc><c>O </c><c>   2</c></rc>
    <rc><c>Pt</c><c>   3</c></rc>
    <rc><c>Pt</c><c>   3</c></rc>
    <rc><c>Pt</c><c>   3</c></rc>
    <rc><c>Pt</c><c>   3</c></rc>
    <rc><c>Pt</c><c>   3</c></rc>
    <rc><c>Pt</c><c>   3</c></rc>
    <rc><c>Pt</c><c>   3</c></rc>
    <rc><c>Pt</c><c>   3</c></rc>
    <rc><c>Pt</c><c>   3</c></rc>
    <rc><c>Pt</c><c>   3</c></rc>
    <rc><c>Pt</c><c>   3</c></rc>
    <rc><c>Pt</c><c>   3</c></rc>
    <rc><c>Pt</c><c>   3</c></rc>
    <rc><c>Pt</c><c>   3</c></rc>
    <rc><c>Pt</c><c>   3</c></rc>
    <rc><c>Pt</c><c>   3</c></rc>
    <rc><c>Pt</c><c>   3</c></rc>
    <rc><c>Pt</c><c>   3</c></rc>
    <rc><c>Pt</c><c>   3</c></rc>
    <rc><c>Pt</c><c>   3</c></rc>
    <rc><c>Pt</c><c>   3</c></rc>
    <rc><c>Pt</c><c>   3</c></rc>
    <rc><c>Pt</c><c>   3</c></rc>
    <rc><c>Pt</c><c>   3</c></rc>
    <rc><c>Pt</c><c>   3</c></rc>
    <rc><c>Pt</c><c>   3</c></rc>
    <rc><c>Pt</c><c>   3</c></rc>
    <rc><c>Pt</c><c>   3</c></rc>
    <rc><c>Pt</c><c>   3</c></rc>
    <rc><c>Pt</c><c>   3</c></rc>
    <rc><c>Pt</c><c>   3</c></rc>
    <rc><c>Pt</c><c>   3</c></rc>
    <rc><c>Pt</c><c>   3</c></rc>
    <rc><c>Pt</c><c>   3</c></rc>
    <rc><c>Pt</c><c>   3</c></rc>
    <rc><c>Pt</c><c>   3</c></rc>
   </set>
  </array>
  <array name="atomtypes" >
   <dimension dim="1">type</dimension>
   <field type="int">atomspertype</field>
   <field type="string">element</field>
   <field>mass</field>
   <field>valence</field>
   <field type="string">pseudopotential</field>
   <set>
    <rc><c>   1</c><c>C </c><c>     12.01100000</c><c>      4.00000000</c><c> PAW_PBE C 08Apr2002                    </c></rc>
    <rc><c>   2</c><c>O </c><c>     16.00000000</c><c>      6.00000000</c><c> PAW_PBE O 08Apr2002                    </c></rc>
    <rc><c>  36</c><c>Pt</c><c>    195.08000000</c><c>     10.00000000</c><c>  PAW_PBE Pt 04Feb2005                  </c></rc>
   </set>
  </array>
 </atominfo>
 <structure name="initialpos" >
  <crystal>
   <varray name="basis" >
    <v>       7.29695512      -4.21289900       0.00000000 </v>
    <v>       0.00000000       8.42579800       0.00000000 </v>
    <v>       0.00000000       0.00000000      21.87963500 </v>
   </varray>
   <i name="volume">   1345.21837528 </i>
   <varray name="rec_basis" >
    <v>       0.13704346       0.00000000       0.00000000 </v>
    <v>       0.06852173       0.11868312       0.00000000 </v>
    <v>       0.00000000       0.00000000       0.04570460 </v>
   </varray>
  </crystal>
  <varray name="positions" >
   <v>       0.70026032       0.43212078       0.47650588 </v>
   <v>       0.90609949       0.38429266       0.46191927 </v>
   <v>       0.67212378       0.45897667       0.52639441 </v>
   <v>       0.98675500       0.32859100       0.07437600 </v>
   <v>       0.32008800       0.32859100       0.07437600 </v>
   <v>       0.65342200       0.32859100       0.07437600 </v>
   <v>       0.98675500       0.66192500       0.07437600 </v>
   <v>       0.32008800       0.66192500       0.07437600 </v>
   <v>       0.65342200       0.66192500       0.07437600 </v>
   <v>       0.32008800       0.99525800       0.07437600 </v>
   <v>       0.65342200       0.99525800       0.07437600 </v>
   <v>       0.98675500       0.99525800       0.07437600 </v>
   <v>       0.20897700       0.10636900       0.17918600 </v>
   <v>       0.54231100       0.10636900       0.17918600 </v>
   <v>       0.87564400       0.10636900       0.17918600 </v>
   <v>       0.20897700       0.43970300       0.17918600 </v>
   <v>       0.54231100       0.43970300       0.17918600 </v>
   <v>       0.87564400       0.43970300       0.17918600 </v>
   <v>       0.20897700       0.77303600       0.17918600 </v>
   <v>       0.54231100       0.77303600       0.17918600 </v>
   <v>       0.87564400       0.77303600       0.17918600 </v>
   <v>       0.10219229       0.55225601       0.28413713 </v>
   <v>       0.42690516       0.88809895       0.28335952 </v>
   <v>       0.76680104       0.21405517       0.28246612 </v>
   <v>       0.09545020       0.21579818       0.28432503 </v>
   <v>       0.43530271       0.21588390       0.28288695 </v>
   <v>       0.09587842       0.88501455       0.28734561 </v>
   <v>       0.76200745       0.88371981       0.28145319 </v>
   <v>       0.42922607       0.54557473       0.27983097 </v>
   <v>       0.76442483       0.54847714       0.28455965 </v>
   <v>       0.32416548       0.66540292       0.38686371 </v>
   <v>       0.65470984       0.99310447       0.39017651 </v>
   <v>       0.32398580       0.32733905       0.38424955 </v>
   <v>       0.98984638       0.98711121       0.38801331 </v>
   <v>       0.32342314       0.99138815       0.39010706 </v>
   <v>       0.64721710       0.31967952       0.39314403 </v>
   <v>       0.99668829       0.66684911       0.39142409 </v>
   <v>       0.99397568       0.31771834       0.39214816 </v>
   <v>       0.65490451       0.66792864       0.38904456 </v>
  </varray>
  <varray name="selective"  type="logical" >
   <v type="logical" >  T  T  T </v>
   <v type="logical" >  T  T  T </v>
   <v type="logical" >  T  T  T </v>
   <v type="logical" >  F  F  F </v>
   <v type="logical" >  F  F  F </v>
   <v type="logical" >  F  F  F </v>
   <v type="logical" >  F  F  F </v>
   <v type="logical" >  F  F  F </v>
   <v type="logical" >  F  F  F </v>
   <v type="logical" >  F  F  F </v>
   <v type="logical" >  F  F  F </v>
   <v type="logical" >  F  F  F </v>
   <v type="logical" >  F  F  F </v>
   <v type="logical" >  F  F  F </v>
   <v type="logical" >  F  F  F </v>
   <v type="logical" >  F  F  F </v>
   <v type="logical" >  F  F  F </v>
   <v type="logical" >  F  F  F </v>
   <v type="logical" >  F  F  F </v>
   <v type="logical" >  F  F  F </v>
   <v type="logical" >  F  F  F </v>
   <v type="logical" >  T  T  T </v>
   <v type="logical" >  T  T  T </v>
   <v type="logical" >  T  T  T </v>
   <v type="logical" >  T  T  T </v>
   <v type="logical" >  T  T  T </v>
   <v type="logical" >  T  T  T </v>
   <v type="logical" >  T  T  T </v>
   <v type="logical" >  T  T  T </v>
   <v type="logical" >  T  T  T </v>
   <v type="logical" >  T  T  T </v>
   <v type="logical" >  T  T  T </v>
   <v type="logical" >  T  T  T </v>
   <v type="logical" >  T  T  T </v>
   <v type="logical" >  T  T  T </v>
   <v type="logical" >  T  T  T </v>
   <v type="logical" >  T  T  T </v>
   <v type="logical" >  T  T  T </v>
   <v type="logical" >  T  T  T </v>
  </varray>
  <nose>
   <v>      -3.00000000       0.00000000       0.00010000       0.00010000 </v>
  </nose>
 </structure>
 <calculation>
  <scstep>
   <time name="dav">    9.42    9.53</time>
   <time name="total">    9.62    9.98</time>
   <energy>
    <i name="alphaZ">    975.10247152 </i>
    <i name="ewald">  91018.64578904 </i>
    <i name="hartreedc">-120110.69920518 </i>
    <i name="XCdc">    189.44400443 </i>
    <i name="pawpsdc">  24789.08602224 </i>
    <i name="pawaedc"> -23775.73976456 </i>
    <i name="eentropy">     -0.00927700 </i>
    <i name="bandstr">   2073.59299106 </i>
    <i name="atom">  27259.89416086 </i>
    <i name="e_fr_energy">   2419.31719243 </i>
    <i name="e_wo_entrp">   2419.32646942 </i>
    <i name="e_0_energy">   2419.32028476 </i>
   </energy>
  </scstep>
  <scstep>
   <time name="dav">   10.80   10.88</time>
   <time name="total">   10.80   10.88</time>
   <energy>
    <i name="e_fr_energy">    -63.09905829 </i>
    <i name="e_wo_entrp">    -63.09144553 </i>
    <i name="e_0_energy">    -63.09652070 </i>
   </energy>
  </scstep>
  <scstep>
   <time name="dav">   11.19   11.31</time>
   <time name="total">   11.19   11.31</time>
   <energy>
    <i name="e_fr_energy">   -240.22956172 </i>
    <i name="e_wo_entrp">   -240.21711642 </i>
    <i name="e_0_energy">   -240.22541329 </i>
   </energy>
  </scstep>
  <scstep>
   <time name="dav">   10.48   10.56</time>
   <time name="total">   10.48   10.56</time>
   <energy>
    <i name="e_fr_energy">   -247.94612268 </i>
    <i name="e_wo_entrp">   -247.93907511 </i>
    <i name="e_0_energy">   -247.94377349 </i>
   </energy>
  </scstep>
  <scstep>
   <time name="dav">   10.51   10.59</time>
   <time name="total">   10.97   11.05</time>
   <energy>
    <i name="e_fr_energy">   -248.16408983 </i>
    <i name="e_wo_entrp">   -248.15701961 </i>
    <i name="e_0_energy">   -248.16173309 </i>
   </energy>
  </scstep>
  <scstep>
   <time name="diag">    1.15    1.16</time>
   <time name="diis">    4.27    4.31</time>
   <time name="orth">    0.21    0.21</time>
   <time name="total">    6.13    6.17</time>
   <energy>
    <i name="e_fr_energy">   -244.56070032 </i>
    <i name="e_wo_entrp">   -244.37939215 </i>
    <i name="e_0_energy">   -244.50026426 </i>
   </energy>
  </scstep>
  <scstep>
   <time name="diag">    1.13    1.14</time>
   <time name="diis">    3.92    3.96</time>
   <time name="orth">    0.26    0.26</time>
   <time name="total">    5.77    5.82</time>
   <energy>
    <i name="e_fr_energy">   -238.64019668 </i>
    <i name="e_wo_entrp">   -238.48674055 </i>
    <i name="e_0_energy">   -238.58904463 </i>
   </energy>
  </scstep>
  <scstep>
   <time name="diag">    1.07    1.08</time>
   <time name="diis">    4.03    4.07</time>
   <time name="orth">    0.23    0.23</time>
   <time name="total">    5.88    5.94</time>
   <energy>
    <i name="e_fr_energy">   -240.79320984 </i>
    <i name="e_wo_entrp">   -240.80433710 </i>
    <i name="e_0_energy">   -240.79691893 </i>
   </energy>
  </scstep>
  <scstep>
   <time name="diag">    1.07    1.08</time>
   <time name="diis">    3.68    3.71</time>
   <time name="orth">    0.20    0.20</time>
   <time name="total">    5.39    5.44</time>
   <energy>
    <i name="e_fr_energy">   -232.75175008 </i>
    <i name="e_wo_entrp">   -232.67945881 </i>
    <i name="e_0_energy">   -232.72765299 </i>
   </energy>
  </scstep>
  <scstep>
   <time name="diag">    0.95    0.96</time>
   <time name="diis">    3.75    3.78</time>
   <time name="orth">    0.20    0.20</time>
   <time name="total">    5.36    5.40</time>
   <energy>
    <i name="e_fr_energy">   -230.76244665 </i>
    <i name="e_wo_entrp">   -230.72496618 </i>
    <i name="e_0_energy">   -230.74995316 </i>
   </energy>
  </scstep>
  <scstep>
   <time name="diag">    1.00    1.01</time>
   <time name="diis">    3.73    3.76</time>
   <time name="orth">    0.19    0.19</time>
   <time name="total">    5.36    5.40</time>
   <energy>
    <i name="e_fr_energy">   -230.42604704 </i>
    <i name="e_wo_entrp">   -230.39168322 </i>
    <i name="e_0_energy">   -230.41459244 </i>
   </energy>
  </scstep>
  <scstep>
   <time name="diag">    1.00    1.01</time>
   <time name="diis">    3.55    3.57</time>
   <time name="orth">    0.27    0.27</time>
   <time name="total">    5.36    5.39</time>
   <energy>
    <i name="e_fr_energy">   -230.31865086 </i>
    <i name="e_wo_entrp">   -230.27573955 </i>
    <i name="e_0_energy">   -230.30434709 </i>
   </energy>
  </scstep>
  <scstep>
   <time name="diag">    1.36    1.38</time>
   <time name="diis">    4.65    4.69</time>
   <time name="orth">    0.26    0.26</time>
   <time name="total">    6.91    6.97</time>
   <energy>
    <i name="e_fr_energy">   -230.27212529 </i>
    <i name="e_wo_entrp">   -230.24881743 </i>
    <i name="e_0_energy">   -230.26435600 </i>
   </energy>
  </scstep>
  <scstep>
   <time name="diag">    1.58    1.59</time>
   <time name="diis">    4.87    4.92</time>
   <time name="orth">    0.23    0.23</time>
   <time name="total">    7.32    7.39</time>
   <energy>
    <i name="e_fr_energy">   -230.23343581 </i>
    <i name="e_wo_entrp">   -230.20926295 </i>
    <i name="e_0_energy">   -230.22537819 </i>
   </energy>
  </scstep>
  <scstep>
   <time name="diag">    1.09    1.10</time>
   <time name="diis">    4.84    4.88</time>
   <time name="orth">    0.23    0.23</time>
   <time name="total">    6.72    6.77</time>
   <energy>
    <i name="e_fr_energy">   -230.22482470 </i>
    <i name="e_wo_entrp">   -230.20249363 </i>
    <i name="e_0_energy">   -230.21738101 </i>
   </energy>
  </scstep>
  <scstep>
   <time name="diag">    1.60    1.61</time>
   <time name="diis">    5.19    5.23</time>
   <time name="orth">    0.23    0.23</time>
   <time name="total">    7.63    7.69</time>
   <energy>
    <i name="e_fr_energy">   -230.22223523 </i>
    <i name="e_wo_entrp">   -230.19894337 </i>
    <i name="e_0_energy">   -230.21447127 </i>
   </energy>
  </scstep>
  <scstep>
   <time name="diag">    1.59    1.60</time>
   <time name="diis">    5.15    5.19</time>
   <time name="orth">    0.23    0.23</time>
   <time name="total">    7.54    7.59</time>
   <energy>
    <i name="e_fr_energy">   -230.22180063 </i>
    <i name="e_wo_entrp">   -230.19854918 </i>
    <i name="e_0_energy">   -230.21405015 </i>
   </energy>
  </scstep>
  <scstep>
   <time name="diag">    1.32    1.33</time>
   <time name="diis">    4.64    4.68</time>
   <time name="orth">    0.22    0.22</time>
   <time name="total">    6.73    6.78</time>
   <energy>
    <i name="e_fr_energy">   -230.22155275 </i>
    <i name="e_wo_entrp">   -230.19814031 </i>
    <i name="e_0_energy">   -230.21374861 </i>
   </energy>
  </scstep>
  <scstep>
   <time name="diag">    1.30    1.31</time>
   <time name="diis">    3.72    3.74</time>
   <time name="orth">    0.22    0.22</time>
   <time name="total">    5.88    5.93</time>
   <energy>
    <i name="e_fr_energy">   -230.22136203 </i>
    <i name="e_wo_entrp">   -230.19830310 </i>
    <i name="e_0_energy">   -230.21367572 </i>
   </energy>
  </scstep>
  <scstep>
   <time name="diag">    1.22    1.23</time>
   <time name="diis">    2.87    2.89</time>
   <time name="orth">    0.24    0.24</time>
   <time name="total">    4.84    4.87</time>
   <energy>
    <i name="e_fr_energy">   -230.22147548 </i>
    <i name="e_wo_entrp">   -230.19802518 </i>
    <i name="e_0_energy">   -230.21365872 </i>
   </energy>
  </scstep>
  <scstep>
   <time name="diag">    1.51    1.52</time>
   <time name="diis">    3.54    3.57</time>
   <time name="orth">    0.26    0.26</time>
   <time name="total">    5.48    5.52</time>
   <energy>
    <i name="alphaZ">    975.10247152 </i>
    <i name="ewald">  91018.64578904 </i>
    <i name="hartreedc">-119738.28973901 </i>
    <i name="XCdc">    178.00898934 </i>
    <i name="pawpsdc">  30075.32818170 </i>
    <i name="pawaedc"> -29160.77802905 </i>
    <i name="eentropy">     -0.02331399 </i>
    <i name="bandstr">   -838.11003572 </i>
    <i name="atom">  27259.89416086 </i>
    <i name="e_fr_energy">   -230.22152530 </i>
    <i name="e_wo_entrp">   -230.19821131 </i>
    <i name="e_0_energy">   -230.21375397 </i>
   </energy>
  </scstep>
  <structure>
   <crystal>
    <varray name="basis" >
     <v>       7.29695512      -4.21289900       0.00000000 </v>
     <v>       0.00000000       8.42579800       0.00000000 </v>
     <v>       0.00000000       0.00000000      21.87963500 </v>
    </varray>
    <i name="volume">   1345.21837528 </i>
    <varray name="rec_basis" >
     <v>       0.13704346       0.00000000       0.00000000 </v>
     <v>       0.06852173       0.11868312       0.00000000 </v>
     <v>       0.00000000       0.00000000       0.04570460 </v>
    </varray>
   </crystal>
   <varray name="positions" >
    <v>       0.70026032       0.43212078       0.47650588 </v>
    <v>       0.90609949       0.38429266       0.46191927 </v>
    <v>       0.67212378       0.45897667       0.52639441 </v>
    <v>       0.98675500       0.32859100       0.07437600 </v>
    <v>       0.32008800       0.32859100       0.07437600 </v>
    <v>       0.65342200       0.32859100       0.07437600 </v>
    <v>       0.98675500       0.66192500       0.07437600 </v>
    <v>       0.32008800       0.66192500       0.07437600 </v>
    <v>       0.65342200       0.66192500       0.07437600 </v>
    <v>       0.32008800       0.99525800       0.07437600 </v>
    <v>       0.65342200       0.99525800       0.07437600 </v>
    <v>       0.98675500       0.99525800       0.07437600 </v>
    <v>       0.20897700       0.10636900       0.17918600 </v>
    <v>       0.54231100       0.10636900       0.17918600 </v>
    <v>       0.87564400       0.10636900       0.17918600 </v>
    <v>       0.20897700       0.43970300       0.17918600 </v>
    <v>       0.54231100       0.43970300       0.17918600 </v>
    <v>       0.87564400       0.43970300       0.17918600 </v>
    <v>       0.20897700       0.77303600       0.17918600 </v>
    <v>       0.54231100       0.77303600       0.17918600 </v>
    <v>       0.87564400       0.77303600       0.17918600 </v>
    <v>       0.10219229       0.55225601       0.28413713 </v>
    <v>       0.42690516       0.88809895       0.28335952 </v>
    <v>       0.76680104       0.21405517       0.28246612 </v>
    <v>       0.09545020       0.21579818       0.28432503 </v>
    <v>       0.43530271       0.21588390       0.28288695 </v>
    <v>       0.09587842       0.88501455       0.28734561 </v>
    <v>       0.76200745       0.88371981       0.28145319 </v>
    <v>       0.42922607       0.54557473       0.27983097 </v>
    <v>       0.76442483       0.54847714       0.28455965 </v>
    <v>       0.32416548       0.66540292       0.38686371 </v>
    <v>       0.65470984       0.99310447       0.39017651 </v>
    <v>       0.32398580       0.32733905       0.38424955 </v>
    <v>       0.98984638       0.98711121       0.38801331 </v>
    <v>       0.32342314       0.99138815       0.39010706 </v>
    <v>       0.64721710       0.31967952       0.39314403 </v>
    <v>       0.99668829       0.66684911       0.39142409 </v>
    <v>       0.99397568       0.31771834       0.39214816 </v>
    <v>       0.65490451       0.66792864       0.38904456 </v>
   </varray>
  </structure>
  <varray name="forces" >
   <v>      -0.97684450      -0.69044312      -1.14897603 </v>
   <v>       0.57596403       0.59361182       0.95531816 </v>
   <v>       0.49407241      -0.07086985      -0.19848150 </v>
   <v>       0.03970005      -0.04177961       0.16252442 </v>
   <v>      -0.02561578      -0.03008983       0.10971195 </v>
   <v>      -0.03946207       0.00998687       0.13821812 </v>
   <v>       0.00156389       0.04912192       0.16947250 </v>
   <v>       0.02581058       0.00825742       0.09206081 </v>
   <v>       0.00658497      -0.02598228       0.09132128 </v>
   <v>       0.00341449      -0.04485084       0.06902882 </v>
   <v>      -0.01409354       0.01214384       0.13554945 </v>
   <v>       0.03106527       0.00707346       0.08248022 </v>
   <v>      -0.07839221      -0.10369683       0.08507842 </v>
   <v>      -0.02145577       0.04172879      -0.17981741 </v>
   <v>       0.20341304      -0.10132331      -0.27761054 </v>
   <v>      -0.21271336      -0.03384782      -0.26237835 </v>
   <v>       0.13379178      -0.13470277      -0.29436997 </v>
   <v>       0.07747104       0.08244142       0.12947688 </v>
   <v>      -0.17774355       0.16121969       0.05760352 </v>
   <v>      -0.07733603       0.13400130      -0.18989722 </v>
   <v>       0.16572595      -0.03479557      -0.01450064 </v>
   <v>      -0.44320898      -0.03146685      -0.06929596 </v>
   <v>       0.39484749      -0.63528190      -0.06043798 </v>
   <v>      -0.18230348       0.44728421       0.50871257 </v>
   <v>      -0.10349791       0.23186407      -0.05715302 </v>
   <v>      -0.00026166       0.09029473       0.14336741 </v>
   <v>      -0.02242916      -0.47731604      -0.93147562 </v>
   <v>      -0.10442767      -0.22825300       0.47661532 </v>
   <v>       0.30357776       0.41942005       0.74514388 </v>
   <v>       0.19447616       0.01201269      -0.00672265 </v>
   <v>       0.22661228      -0.28322281      -0.09248989 </v>
   <v>      -0.05889185      -0.21579157      -0.56552547 </v>
   <v>      -0.00135387      -0.01832108       0.19259122 </v>
   <v>      -0.20542826       0.44472274       0.38222520 </v>
   <v>      -0.07060372       0.12690737       0.06455982 </v>
   <v>      -0.38325938       1.10689509       0.71343236 </v>
   <v>      -0.17275657       0.01138450      -0.30234857 </v>
   <v>       0.48107375      -0.56230891      -0.45053480 </v>
   <v>       0.01291438      -0.22602799      -0.40247672 </v>
  </varray>
  <varray name="stress" >
   <v>     -43.27724916       0.05734055       0.32660145 </v>
   <v>       0.05734053     -45.72575868       0.39085604 </v>
   <v>       0.32660142       0.39085605      -7.59526016 </v>
  </varray>
  <energy>
   <i name="e_fr_energy">   -230.22152530 </i>
   <i name="e_wo_entrp">   -230.21375397 </i>
   <i name="e_0_energy">     -0.02331399 </i>
  </energy>
  <time name="totalsc">  162.79  164.82</time>
 </calculation>
 <calculation>
  <scstep>
   <time name="dav">   10.83   11.04</time>
   <time name="total">   11.67   11.93</time>
   <energy>
    <i name="alphaZ">    975.10247152 </i>
    <i name="ewald">  91023.38257824 </i>
    <i name="hartreedc">-119745.23221998 </i>
    <i name="XCdc">    177.96327270 </i>
    <i name="pawpsdc">  30074.58561840 </i>
    <i name="pawaedc"> -29160.02486259 </i>
    <i name="eentropy">     -0.01805470 </i>
    <i name="bandstr">   -836.02992655 </i>
    <i name="atom">  27259.89416086 </i>
    <i name="e_fr_energy">   -230.37696210 </i>
    <i name="e_wo_entrp">   -230.35890739 </i>
    <i name="e_0_energy">   -230.37094386 </i>
   </energy>
  </scstep>
  <scstep>
   <time name="diag">    1.34    1.35</time>
   <time name="diis">    4.46    4.50</time>
   <time name="orth">    0.21    0.21</time>
   <time name="total">    6.54    6.59</time>
   <energy>
    <i name="e_fr_energy">   -230.43209748 </i>
    <i name="e_wo_entrp">   -230.40073981 </i>
    <i name="e_0_energy">   -230.42164492 </i>
   </energy>
  </scstep>
  <scstep>
   <time name="diag">    1.19    1.20</time>
   <time name="diis">    5.22    5.26</time>
   <time name="orth">    0.24    0.24</time>
   <time name="total">    7.30    7.35</time>
   <energy>
    <i name="e_fr_energy">   -230.42455989 </i>
    <i name="e_wo_entrp">   -230.40814036 </i>
    <i name="e_0_energy">   -230.41908671 </i>
   </energy>
  </scstep>
  <scstep>
   <time name="diag">    1.65    1.67</time>
   <time name="diis">    6.29    6.34</time>
   <time name="orth">    0.28    0.28</time>
   <time name="total">    8.85    8.93</time>
   <energy>
    <i name="e_fr_energy">   -230.41655768 </i>
    <i name="e_wo_entrp">   -230.39470127 </i>
    <i name="e_0_energy">   -230.40927221 </i>
   </energy>
  </scstep>
  <scstep>
   <time name="diag">    1.56    1.57</time>
   <time name="diis">    4.50    4.54</time>
   <time name="orth">    0.23    0.23</time>
   <time name="total">    6.90    6.95</time>
   <energy>
    <i name="e_fr_energy">   -230.41026180 </i>
    <i name="e_wo_entrp">   -230.38790452 </i>
    <i name="e_0_energy">   -230.40280937 </i>
   </energy>
  </scstep>
  <scstep>
   <time name="diag">    1.24    1.25</time>
   <time name="diis">    4.69    4.73</time>
   <time name="orth">    0.24    0.31</time>
   <time name="total">    6.74    6.86</time>
   <energy>
    <i name="e_fr_energy">   -230.40962669 </i>
    <i name="e_wo_entrp">   -230.38804178 </i>
    <i name="e_0_energy">   -230.40243172 </i>
   </energy>
  </scstep>
  <scstep>
   <time name="diag">    1.23    1.24</time>
   <time name="diis">    4.71    4.75</time>
   <time name="orth">    0.24    0.24</time>
   <time name="total">    6.73    6.79</time>
   <energy>
    <i name="e_fr_energy">   -230.40943258 </i>
    <i name="e_wo_entrp">   -230.38750404 </i>
    <i name="e_0_energy">   -230.40212307 </i>
   </energy>
  </scstep>
  <scstep>
   <time name="diag">    1.08    1.09</time>
   <time name="diis">    4.60    4.64</time>
   <time name="orth">    0.25    0.25</time>
   <time name="total">    6.49    6.54</time>
   <energy>
    <i name="e_fr_energy">   -230.40896215 </i>
    <i name="e_wo_entrp">   -230.38772398 </i>
    <i name="e_0_energy">   -230.40188276 </i>
   </energy>
  </scstep>
  <scstep>
   <time name="diag">    1.56    1.57</time>
   <time name="diis">    2.92    2.94</time>
   <time name="orth">    0.25    0.25</time>
   <time name="total">    4.88    4.92</time>
   <energy>
    <i name="alphaZ">    975.10247152 </i>
    <i name="ewald">  91023.38257824 </i>
    <i name="hartreedc">-119740.04552846 </i>
    <i name="XCdc">    177.91087689 </i>
    <i name="pawpsdc">  30060.92449411 </i>
    <i name="pawaedc"> -29146.37419001 </i>
    <i name="eentropy">     -0.02170176 </i>
    <i name="bandstr">   -841.18207641 </i>
    <i name="atom">  27259.89416086 </i>
    <i name="e_fr_energy">   -230.40891501 </i>
    <i name="e_wo_entrp">   -230.38721326 </i>
    <i name="e_0_energy">   -230.40168109 </i>
   </energy>
  </scstep>
  <structure>
   <crystal>
    <varray name="basis" >
     <v>       7.29695512      -4.21289900       0.00000000 </v>
     <v>       0.00000000       8.42579800       0.00000000 </v>
     <v>       0.00000000       0.00000000      21.87963500 </v>
    </varray>
    <i name="volume">   1345.21837528 </i>
    <varray name="rec_basis" >
     <v>       0.13704346       0.00000000       0.00000000 </v>
     <v>       0.06852173       0.11868312       0.00000000 </v>
     <v>       0.00000000       0.00000000       0.04570460 </v>
    </varray>
   </crystal>
   <varray name="positions" >
    <v>       0.69767702       0.42924786       0.47549253 </v>
    <v>       0.90762265       0.38641375       0.46276183 </v>
    <v>       0.67343037       0.45946765       0.52621936 </v>
    <v>       0.98675500       0.32859100       0.07437600 </v>
    <v>       0.32008800       0.32859100       0.07437600 </v>
    <v>       0.65342200       0.32859100       0.07437600 </v>
    <v>       0.98675500       0.66192500       0.07437600 </v>
    <v>       0.32008800       0.66192500       0.07437600 </v>
    <v>       0.65342200       0.66192500       0.07437600 </v>
    <v>       0.32008800       0.99525800       0.07437600 </v>
    <v>       0.65342200       0.99525800       0.07437600 </v>
    <v>       0.98675500       0.99525800       0.07437600 </v>
    <v>       0.20897700       0.10636900       0.17918600 </v>
    <v>       0.54231100       0.10636900       0.17918600 </v>
    <v>       0.87564400       0.10636900       0.17918600 </v>
    <v>       0.20897700       0.43970300       0.17918600 </v>
    <v>       0.54231100       0.43970300       0.17918600 </v>
    <v>       0.87564400       0.43970300       0.17918600 </v>
    <v>       0.20897700       0.77303600       0.17918600 </v>
    <v>       0.54231100       0.77303600       0.17918600 </v>
    <v>       0.87564400       0.77303600       0.17918600 </v>
    <v>       0.10102021       0.55159790       0.28407602 </v>
    <v>       0.42794935       0.88716610       0.28330621 </v>
    <v>       0.76631893       0.21483851       0.28291479 </v>
    <v>       0.09517650       0.21619235       0.28427463 </v>
    <v>       0.43530202       0.21609035       0.28301339 </v>
    <v>       0.09581911       0.88389172       0.28652408 </v>
    <v>       0.76173129       0.88305898       0.28187354 </v>
    <v>       0.43002890       0.54693671       0.28048816 </v>
    <v>       0.76493913       0.54876180       0.28455372 </v>
    <v>       0.32476477       0.66505392       0.38678214 </v>
    <v>       0.65455410       0.99253238       0.38967773 </v>
    <v>       0.32398222       0.32729530       0.38441941 </v>
    <v>       0.98930311       0.98785810       0.38835042 </v>
    <v>       0.32323643       0.99158545       0.39016400 </v>
    <v>       0.64620356       0.32170780       0.39377325 </v>
    <v>       0.99623143       0.66664675       0.39115743 </v>
    <v>       0.99524790       0.31706663       0.39175081 </v>
    <v>       0.65493866       0.66742806       0.38868959 </v>
   </varray>
  </structure>
  <varray name="forces" >
   <v>      -0.93023889      -0.28514220       0.66726448 </v>
   <v>       0.64865308       0.45841458       0.42903941 </v>
   <v>       0.60366439      -0.44903380      -1.57146255 </v>
   <v>       0.03643797      -0.03804190       0.15593554 </v>
   <v>      -0.03017892      -0.03130574       0.11527187 </v>
   <v>      -0.03714899       0.00588474       0.14282717 </v>
   <v>       0.00337362       0.04920978       0.16128080 </v>
   <v>       0.01578322       0.00948116       0.09849586 </v>
   <v>       0.01014256      -0.02589781       0.10408168 </v>
   <v>       0.00168534      -0.04154976       0.06852276 </v>
   <v>      -0.01075894       0.01808223       0.13118037 </v>
   <v>       0.03055432       0.00708006       0.07428520 </v>
   <v>      -0.07638697      -0.08584581       0.07450183 </v>
   <v>      -0.01066203       0.03942921      -0.14196721 </v>
   <v>       0.16969109      -0.09827306      -0.22938666 </v>
   <v>      -0.16843894      -0.03050665      -0.21343629 </v>
   <v>       0.11061272      -0.10486619      -0.22694463 </v>
   <v>       0.05515607       0.06474842       0.12097572 </v>
   <v>      -0.15295423       0.13684439       0.03284996 </v>
   <v>      -0.05662847       0.10930702      -0.18245746 </v>
   <v>       0.14091893      -0.01148033      -0.03806932 </v>
   <v>      -0.33518546      -0.03966793      -0.06287230 </v>
   <v>       0.29015957      -0.47799826      -0.04898684 </v>
   <v>      -0.16974694       0.36399468       0.44109982 </v>
   <v>      -0.06743507       0.15139595      -0.05531688 </v>
   <v>      -0.03938434       0.05094189       0.11353432 </v>
   <v>       0.00821164      -0.33966932      -0.67253345 </v>
   <v>       0.00414228      -0.15552037       0.34616892 </v>
   <v>       0.20969519       0.30337390       0.54164091 </v>
   <v>       0.13499752       0.00181006      -0.03588385 </v>
   <v>       0.13594462      -0.20470728      -0.06755473 </v>
   <v>      -0.04501560      -0.10122594      -0.47453670 </v>
   <v>      -0.01889338      -0.05437650       0.19436754 </v>
   <v>      -0.11879781       0.28514900       0.23971296 </v>
   <v>      -0.08684656       0.09632606      -0.02305395 </v>
   <v>      -0.38285775       0.80869142       0.38371136 </v>
   <v>      -0.10185460      -0.00956009      -0.27263476 </v>
   <v>       0.18860121      -0.19417401      -0.01032689 </v>
   <v>       0.04098851      -0.18132161      -0.30932401 </v>
  </varray>
  <varray name="stress" >
   <v>     -43.68867157       0.40963090       1.14674431 </v>
   <v>       0.40963079     -46.63101092      -0.35284545 </v>
   <v>       1.14674430      -0.35284543      -9.86839043 </v>
  </varray>
  <energy>
   <i name="e_fr_energy">   -230.40891501 </i>
   <i name="e_wo_entrp">   -230.40168109 </i>
   <i name="e_0_energy">     -0.02170176 </i>
  </energy>
  <time name="totalsc">   77.60   78.88</time>
 </calculation>
 <calculation>
  <scstep>
   <time name="dav">    8.97    9.03</time>
   <time name="total">    9.48    9.63</time>
   <energy>
    <i name="alphaZ">    975.10247152 </i>
    <i name="ewald">  91047.31834280 </i>
    <i name="hartreedc">-119760.85647595 </i>
    <i name="XCdc">    178.03866956 </i>
    <i name="pawpsdc">  30060.85532748 </i>
    <i name="pawaedc"> -29146.30467948 </i>
    <i name="eentropy">     -0.02056066 </i>
    <i name="bandstr">   -844.48362936 </i>
    <i name="atom">  27259.89416086 </i>
    <i name="e_fr_energy">   -230.45637321 </i>
    <i name="e_wo_entrp">   -230.43581255 </i>
    <i name="e_0_energy">   -230.44951966 </i>
   </energy>
  </scstep>
  <scstep>
   <time name="diag">    1.21    1.22</time>
   <time name="diis">    4.52    4.56</time>
   <time name="orth">    0.20    0.20</time>
   <time name="total">    6.49    6.54</time>
   <energy>
    <i name="e_fr_energy">   -230.48697916 </i>
    <i name="e_wo_entrp">   -230.46397473 </i>
    <i name="e_0_energy">   -230.47931102 </i>
   </energy>
  </scstep>
  <scstep>
   <time name="diag">    1.22    1.22</time>
   <time name="diis">    3.37    3.40</time>
   <time name="orth">    0.19    0.19</time>
   <time name="total">    5.30    5.34</time>
   <energy>
    <i name="e_fr_energy">   -230.48310124 </i>
    <i name="e_wo_entrp">   -230.46303359 </i>
    <i name="e_0_energy">   -230.47641202 </i>
   </energy>
  </scstep>
  <scstep>
   <time name="diag">    0.92    0.93</time>
   <time name="diis">    3.55    3.57</time>
   <time name="orth">    0.23    0.23</time>
   <time name="total">    5.15    5.18</time>
   <energy>
    <i name="e_fr_energy">   -230.48272064 </i>
    <i name="e_wo_entrp">   -230.46277311 </i>
    <i name="e_0_energy">   -230.47607146 </i>
   </energy>
  </scstep>
  <scstep>
   <time name="diag">    0.93    0.93</time>
   <time name="diis">    3.86    3.89</time>
   <time name="orth">    0.21    0.21</time>
   <time name="total">    5.52    5.56</time>
   <energy>
    <i name="e_fr_energy">   -230.48321606 </i>
    <i name="e_wo_entrp">   -230.45849739 </i>
    <i name="e_0_energy">   -230.47497650 </i>
   </energy>
  </scstep>
  <scstep>
   <time name="diag">    1.44    1.45</time>
   <time name="diis">    4.11    4.14</time>
   <time name="orth">    0.20    0.20</time>
   <time name="total">    6.31    6.35</time>
   <energy>
    <i name="e_fr_energy">   -230.48066582 </i>
    <i name="e_wo_entrp">   -230.46012803 </i>
    <i name="e_0_energy">   -230.47381989 </i>
   </energy>
  </scstep>
  <scstep>
   <time name="diag">    1.43    1.44</time>
   <time name="diis">    5.04    5.08</time>
   <time name="orth">    0.25    0.25</time>
   <time name="total">    7.38    7.44</time>
   <energy>
    <i name="e_fr_energy">   -230.47975151 </i>
    <i name="e_wo_entrp">   -230.45858262 </i>
    <i name="e_0_energy">   -230.47269521 </i>
   </energy>
  </scstep>
  <scstep>
   <time name="diag">    1.77    1.78</time>
   <time name="diis">    4.15    4.19</time>
   <time name="orth">    0.26    0.26</time>
   <time name="total">    6.34    6.39</time>
   <energy>
    <i name="alphaZ">    975.10247152 </i>
    <i name="ewald">  91047.31834280 </i>
    <i name="hartreedc">-119766.54705827 </i>
    <i name="XCdc">    178.11940505 </i>
    <i name="pawpsdc">  30067.63858385 </i>
    <i name="pawaedc"> -29153.13587203 </i>
    <i name="eentropy">     -0.02087939 </i>
    <i name="bandstr">   -838.84882436 </i>
    <i name="atom">  27259.89416086 </i>
    <i name="e_fr_energy">   -230.47966995 </i>
    <i name="e_wo_entrp">   -230.45879056 </i>
    <i name="e_0_energy">   -230.47271015 </i>
   </energy>
  </scstep>
  <structure>
   <crystal>
    <varray name="basis" >
     <v>       7.29695512      -4.21289900       0.00000000 </v>
     <v>       0.00000000       8.42579800       0.00000000 </v>
     <v>       0.00000000       0.00000000      21.87963500 </v>
    </varray>
    <i name="volume">   1345.21837528 </i>
    <varray name="rec_basis" >
     <v>       0.13704346       0.00000000       0.00000000 </v>
     <v>       0.06852173       0.11868312       0.00000000 </v>
     <v>       0.00000000       0.00000000       0.04570460 </v>
    </varray>
   </crystal>
   <varray name="positions" >
    <v>       0.69587270       0.42786672       0.47592416 </v>
    <v>       0.90888079       0.38781285       0.46303937 </v>
    <v>       0.67460126       0.45929882       0.52520282 </v>
    <v>       0.98675500       0.32859100       0.07437600 </v>
    <v>       0.32008800       0.32859100       0.07437600 </v>
    <v>       0.65342200       0.32859100       0.07437600 </v>
    <v>       0.98675500       0.66192500       0.07437600 </v>
    <v>       0.32008800       0.66192500       0.07437600 </v>
    <v>       0.65342200       0.66192500       0.07437600 </v>
    <v>       0.32008800       0.99525800       0.07437600 </v>
    <v>       0.65342200       0.99525800       0.07437600 </v>
    <v>       0.98675500       0.99525800       0.07437600 </v>
    <v>       0.20897700       0.10636900       0.17918600 </v>
    <v>       0.54231100       0.10636900       0.17918600 </v>
    <v>       0.87564400       0.10636900       0.17918600 </v>
    <v>       0.20897700       0.43970300       0.17918600 </v>
    <v>       0.54231100       0.43970300       0.17918600 </v>
    <v>       0.87564400       0.43970300       0.17918600 </v>
    <v>       0.20897700       0.77303600       0.17918600 </v>
    <v>       0.54231100       0.77303600       0.17918600 </v>
    <v>       0.87564400       0.77303600       0.17918600 </v>
    <v>       0.10037007       0.55120620       0.28403535 </v>
    <v>       0.42851215       0.88664458       0.28327452 </v>
    <v>       0.76598969       0.21528531       0.28320012 </v>
    <v>       0.09504570       0.21638126       0.28423884 </v>
    <v>       0.43522563       0.21613772       0.28308683 </v>
    <v>       0.09583504       0.88332912       0.28608904 </v>
    <v>       0.76173932       0.88280176       0.28209747 </v>
    <v>       0.43043563       0.54764968       0.28083853 </v>
    <v>       0.76520097       0.54889576       0.28453051 </v>
    <v>       0.32502845       0.66484190       0.38673844 </v>
    <v>       0.65446679       0.99231869       0.38937077 </v>
    <v>       0.32394557       0.32718564       0.38454514 </v>
    <v>       0.98907269       0.98822187       0.38850549 </v>
    <v>       0.32306797       0.99166303       0.39014909 </v>
    <v>       0.64546095       0.32269491       0.39402146 </v>
    <v>       0.99603387       0.66653191       0.39098107 </v>
    <v>       0.99561372       0.31692337       0.39174413 </v>
    <v>       0.65501817       0.66716323       0.38848950 </v>
   </varray>
  </structure>
  <varray name="forces" >
   <v>      -0.52201879      -1.24592543      -2.28081677 </v>
   <v>       0.71412094       0.37187361       0.19922864 </v>
   <v>       0.12436701       0.55674500       1.51113495 </v>
   <v>       0.03254231      -0.04146809       0.15260605 </v>
   <v>      -0.03283710      -0.03190406       0.11313098 </v>
   <v>      -0.03816224       0.00213555       0.13571299 </v>
   <v>       0.00310562       0.05160769       0.14903601 </v>
   <v>       0.01488889       0.00837039       0.10963592 </v>
   <v>       0.01074387      -0.02197613       0.11264730 </v>
   <v>       0.00335344      -0.03997927       0.06546688 </v>
   <v>      -0.00711864       0.01845899       0.14214108 </v>
   <v>       0.02733922       0.01005315       0.07357453 </v>
   <v>      -0.07357971      -0.07621577       0.06855533 </v>
   <v>      -0.00500706       0.03729018      -0.12193302 </v>
   <v>       0.15003604      -0.09170215      -0.19369064 </v>
   <v>      -0.14632463      -0.02931939      -0.18917907 </v>
   <v>       0.09732908      -0.08945141      -0.18961416 </v>
   <v>       0.04150415       0.05271554       0.12203713 </v>
   <v>      -0.13666682       0.12200534       0.01547208 </v>
   <v>      -0.04397197       0.09587906      -0.17905894 </v>
   <v>       0.12512411       0.00196286      -0.04984760 </v>
   <v>      -0.27718292      -0.05032560      -0.05281057 </v>
   <v>       0.24453361      -0.39470378      -0.04787132 </v>
   <v>      -0.15270981       0.30385935       0.39468002 </v>
   <v>      -0.05565595       0.11747477      -0.04773449 </v>
   <v>      -0.04962069       0.03694902       0.10064208 </v>
   <v>       0.02067875      -0.27007662      -0.54583353 </v>
   <v>       0.04546285      -0.11408919       0.27171401 </v>
   <v>       0.16005298       0.23585749       0.43489011 </v>
   <v>       0.09851472       0.00228248      -0.04641822 </v>
   <v>       0.09680776      -0.16941681      -0.04830350 </v>
   <v>      -0.03499373      -0.05126568      -0.42276572 </v>
   <v>      -0.04911441      -0.05540281       0.17451239 </v>
   <v>      -0.08369439       0.22112090       0.18274753 </v>
   <v>      -0.09501432       0.07285338      -0.05991063 </v>
   <v>      -0.31526624       0.71464876       0.37496187 </v>
   <v>      -0.06677959      -0.01991950      -0.26200160 </v>
   <v>       0.12045601      -0.10055428       0.11646815 </v>
   <v>       0.05475765      -0.14044754      -0.28320627 </v>
  </varray>
  <varray name="stress" >
   <v>     -43.60790324       0.12392563       0.50981766 </v>
   <v>       0.12392564     -46.39203737       0.81460845 </v>
   <v>       0.50981768       0.81460848      -5.98682040 </v>
  </varray>
  <energy>
   <i name="e_fr_energy">   -230.47966995 </i>
   <i name="e_wo_entrp">   -230.47271015 </i>
   <i name="e_0_energy">     -0.02087939 </i>
  </energy>
  <time name="totalsc">   63.49   64.30</time>
 </calculation>
 <calculation>
  <scstep>
