metal                                   
           1
     7.296955   -4.212899    0.000000
     0.000000    8.425798    0.000000
     0.000000    0.000000   21.879635
   C    O    Pt
   1   2  36
Direct configuration=     1
   0.70026032  0.43212078  0.47650588
   0.90609949  0.38429266  0.46191927
   0.67212378  0.45897667  0.52639441
   0.98675500  0.32859100  0.07437600
   0.32008800  0.32859100  0.07437600
   0.65342200  0.32859100  0.07437600
   0.98675500  0.66192500  0.07437600
   0.32008800  0.66192500  0.07437600
   0.65342200  0.66192500  0.07437600
   0.32008800  0.99525800  0.07437600
   0.65342200  0.99525800  0.07437600
   0.98675500  0.99525800  0.07437600
   0.20897700  0.10636900  0.17918600
   0.54231100  0.10636900  0.17918600
   0.87564400  0.10636900  0.17918600
   0.20897700  0.43970300  0.17918600
   0.54231100  0.43970300  0.17918600
   0.87564400  0.43970300  0.17918600
   0.20897700  0.77303600  0.17918600
   0.54231100  0.77303600  0.17918600
   0.87564400  0.77303600  0.17918600
   0.10219229  0.55225601  0.28413713
   0.42690516  0.88809895  0.28335952
   0.76680104  0.21405517  0.28246612
   0.09545020  0.21579818  0.28432503
   0.43530271  0.21588390  0.28288695
   0.09587842  0.88501455  0.28734561
   0.76200745  0.88371981  0.28145319
   0.42922607  0.54557473  0.27983097
   0.76442483  0.54847714  0.28455965
   0.32416548  0.66540292  0.38686371
   0.65470984  0.99310447  0.39017651
   0.32398580  0.32733905  0.38424955
   0.98984638  0.98711121  0.38801331
   0.32342314  0.99138815  0.39010706
   0.64721710  0.31967952  0.39314403
   0.99668829  0.66684911  0.39142409
   0.99397568  0.31771834  0.39214816
   0.65490451  0.66792864  0.38904456
Direct configuration=     2
   0.69767702  0.42924786  0.47549253
   0.90762265  0.38641375  0.46276183
   0.67343037  0.45946765  0.52621936
   0.98675500  0.32859100  0.07437600
   0.32008800  0.32859100  0.07437600
   0.65342200  0.32859100  0.07437600
   0.98675500  0.66192500  0.07437600
   0.32008800  0.66192500  0.07437600
   0.65342200  0.66192500  0.07437600
   0.32008800  0.99525800  0.07437600
   0.65342200  0.99525800  0.07437600
   0.98675500  0.99525800  0.07437600
   0.20897700  0.10636900  0.17918600
   0.54231100  0.10636900  0.17918600
   0.87564400  0.10636900  0.17918600
   0.20897700  0.43970300  0.17918600
   0.54231100  0.43970300  0.17918600
   0.87564400  0.43970300  0.17918600
   0.20897700  0.77303600  0.17918600
   0.54231100  0.77303600  0.17918600
   0.87564400  0.77303600  0.17918600
   0.10102021  0.55159790  0.28407602
   0.42794935  0.88716610  0.28330621
   0.76631893  0.21483851  0.28291479
   0.09517650  0.21619235  0.28427463
   0.43530202  0.21609035  0.28301339
   0.09581911  0.88389172  0.28652408
   0.76173129  0.88305898  0.28187354
   0.43002890  0.54693671  0.28048816
   0.76493913  0.54876180  0.28455372
   0.32476477  0.66505392  0.38678214
   0.65455410  0.99253238  0.38967773
   0.32398222  0.32729530  0.38441941
   0.98930311  0.98785810  0.38835042
   0.32323643  0.99158545  0.39016400
   0.64620356  0.32170780  0.39377325
   0.99623143  0.66664675  0.39115743
   0.99524790  0.31706663  0.39175081
   0.65493866  0.66742806  0.38868959
Direct configuration=     3
   0.69587270  0.42786672  0.47592416
   0.90888079  0.38781285  0.46303937
   0.67460126  0.45929882  0.52520282
   0.98675500  0.32859100  0.07437600
   0.32008800  0.32859100  0.07437600
   0.65342200  0.32859100  0.07437600
   0.98675500  0.66192500  0.07437600
   0.32008800  0.66192500  0.07437600
   0.65342200  0.66192500  0.07437600
   0.32008800  0.99525800  0.07437600
   0.65342200  0.99525800  0.07437600
   0.98675500  0.99525800  0.07437600
   0.20897700  0.10636900  0.17918600
   0.54231100  0.10636900  0.17918600
   0.87564400  0.10636900  0.17918600
   0.20897700  0.43970300  0.17918600
   0.54231100  0.43970300  0.17918600
   0.87564400  0.43970300  0.17918600
   0.20897700  0.77303600  0.17918600
   0.54231100  0.77303600  0.17918600
   0.87564400  0.77303600  0.17918600
   0.10037007  0.55120620  0.28403535
   0.42851215  0.88664458  0.28327452
   0.76598969  0.21528531  0.28320012
   0.09504570  0.21638126  0.28423884
   0.43522563  0.21613772  0.28308683
   0.09583504  0.88332912  0.28608904
   0.76173932  0.88280176  0.28209747
   0.43043563  0.54764968  0.28083853
   0.76520097  0.54889576  0.28453051
   0.32502845  0.66484190  0.38673844
   0.65446679  0.99231869  0.38937077
   0.32394557  0.32718564  0.38454514
   0.98907269  0.98822187  0.38850549
   0.32306797  0.99166303  0.39014909
   0.64546095  0.32269491  0.39402146
   0.99603387  0.66653191  0.39098107
   0.99561372  0.31692337  0.39174413
   0.65501817  0.66716323  0.38848950
