 vasp.5.4.4 16052018 (build Apr 24 2014 20:13:14) complex standard
 Contain Constrained Minimization Technique (TS), Periodic NBO, VASPsol, libbeef, VASP2WANNIER90, Constrained Cell Relaxation
 executed on Center for Computational Chemistry by phu@node11 date 2025.11.24 22:04:17
 running on    8 total cores
 distrk:  each k-point on    8 cores,    1 groups
 distr:  one band on NCORES_PER_BAND=   2 cores,    4 groups


--------------------------------------------------------------------------------------------------------


 INCAR:
 POTCAR:   PAW_PBE C 08Apr2002                    
 POTCAR:   PAW_PBE O 08Apr2002                    
 POTCAR:    PAW_PBE Pt 04Feb2005                  
 POTCAR:   PAW_PBE C 08Apr2002                    
   VRHFIN =C: s2p2                                                              
   LEXCH  = PE                                                                  
   EATOM  =   147.1560 eV,   10.8157 Ry                                         
                                                                                
   TITEL  = PAW_PBE C 08Apr2002                                                 
   LULTRA =        F    use ultrasoft PP ?                                      
   IUNSCR =        0    unscreen: 0-lin 1-nonlin 2-no                           
   RPACOR =     .000    partial core radius                                     
   POMASS =   12.011; ZVAL   =    4.000    mass and valenz                      
   RCORE  =    1.500    outmost cutoff radius                                   
   RWIGS  =    1.630; RWIGS  =     .863    wigner-seitz radius (au A)           
   ENMAX  =  400.000; ENMIN  =  300.000 eV                                      
   ICORE  =        2    local potential                                         
   LCOR   =        T    correct aug charges                                     
   LPAW   =        T    paw PP                                                  
   EAUG   =  644.873                                                            
   DEXC   =     .000                                                            
   RMAX   =    2.266    core radius for proj-oper                               
   RAUG   =    1.300    factor for augmentation sphere                          
   RDEP   =    1.501    radius for radial grids                                 
   RDEPT  =    1.300    core radius for aug-charge                              
   QCUT   =   -5.516; QGAM   =   11.032    optimization parameters              
                                                                                
   Description                                                                  
     l     E      TYP  RCUT    TYP  RCUT                                        
     0   .000     23  1.200                                                     
     0   .000     23  1.200                                                     
     1   .000     23  1.500                                                     
     1  2.500     23  1.500                                                     
     2   .000      7  1.500                                                     
  local pseudopotential read in
  atomic valenz-charges read in
  non local Contribution for L=           0  read in
    real space projection operators read in
  non local Contribution for L=           0  read in
    real space projection operators read in
  non local Contribution for L=           1  read in
    real space projection operators read in
  non local Contribution for L=           1  read in
    real space projection operators read in
    PAW grid and wavefunctions read in
 
   number of l-projection  operators is LMAX  =           4
   number of lm-projection operators is LMMAX =           8
 
 POTCAR:   PAW_PBE O 08Apr2002                    
   VRHFIN =O: s2p4                                                              
   LEXCH  = PE                                                                  
   EATOM  =   432.3788 eV,   31.7789 Ry                                         
                                                                                
   TITEL  = PAW_PBE O 08Apr2002                                                 
   LULTRA =        F    use ultrasoft PP ?                                      
   IUNSCR =        0    unscreen: 0-lin 1-nonlin 2-no                           
   RPACOR =     .000    partial core radius                                     
   POMASS =   16.000; ZVAL   =    6.000    mass and valenz                      
   RCORE  =    1.520    outmost cutoff radius                                   
   RWIGS  =    1.550; RWIGS  =     .820    wigner-seitz radius (au A)           
   ENMAX  =  400.000; ENMIN  =  300.000 eV                                      
   ICORE  =        2    local potential                                         
   LCOR   =        T    correct aug charges                                     
   LPAW   =        T    paw PP                                                  
   EAUG   =  605.392                                                            
   DEXC   =     .000                                                            
   RMAX   =    2.264    core radius for proj-oper                               
   RAUG   =    1.300    factor for augmentation sphere                          
   RDEP   =    1.550    radius for radial grids                                 
   QCUT   =   -5.520; QGAM   =   11.041    optimization parameters              
                                                                                
   Description                                                                  
     l     E      TYP  RCUT    TYP  RCUT                                        
     0   .000     23  1.200                                                     
     0  -.700     23  1.200                                                     
     1   .000     23  1.520                                                     
     1   .600     23  1.520                                                     
     2   .000      7  1.500                                                     
  local pseudopotential read in
  atomic valenz-charges read in
  non local Contribution for L=           0  read in
    real space projection operators read in
  non local Contribution for L=           0  read in
    real space projection operators read in
  non local Contribution for L=           1  read in
    real space projection operators read in
  non local Contribution for L=           1  read in
    real space projection operators read in
    PAW grid and wavefunctions read in
 
   number of l-projection  operators is LMAX  =           4
   number of lm-projection operators is LMMAX =           8
 
 POTCAR:    PAW_PBE Pt 04Feb2005                  
   VRHFIN =Pt: s1d9                                                             
   LEXCH  = PE                                                                  
   EATOM  =   729.1182 eV,   53.5887 Ry                                         
                                                                                
   TITEL  = PAW_PBE Pt 04Feb2005                                                
   LULTRA =        F    use ultrasoft PP ?                                      
   IUNSCR =        1    unscreen: 0-lin 1-nonlin 2-no                           
   RPACOR =    2.330    partial core radius                                     
   POMASS =  195.080; ZVAL   =   10.000    mass and valenz                      
   RCORE  =    2.600    outmost cutoff radius                                   
   RWIGS  =    2.750; RWIGS  =    1.455    wigner-seitz radius (au A)           
   ENMAX  =  230.283; ENMIN  =  172.712 eV                                      
   ICORE  =        3    local potential                                         
   LCOR   =        T    correct aug charges                                     
   LPAW   =        T    paw PP                                                  
   EAUG   =  358.966                                                            
   DEXC   =     .000                                                            
   RMAX   =    3.038    core radius for proj-oper                               
   RAUG   =    1.300    factor for augmentation sphere                          
   RDEP   =    2.761    radius for radial grids                                 
   QCUT   =   -4.114; QGAM   =    8.228    optimization parameters              
                                                                                
   Description                                                                  
     l     E      TYP  RCUT    TYP  RCUT                                        
     2   .000     23  2.500                                                     
     2   .000     23  2.500                                                     
     0   .000     23  2.500                                                     
     0   .000     23  2.500                                                     
     1  -.200     23  2.600                                                     
     1  1.500     23  2.600                                                     
     3   .000     23  2.500                                                     
  local pseudopotential read in
  partial core-charges read in
  atomic valenz-charges read in
  non local Contribution for L=           2  read in
    real space projection operators read in
  non local Contribution for L=           2  read in
    real space projection operators read in
  non local Contribution for L=           0  read in
    real space projection operators read in
  non local Contribution for L=           0  read in
    real space projection operators read in
  non local Contribution for L=           1  read in
    real space projection operators read in
  non local Contribution for L=           1  read in
    real space projection operators read in
    PAW grid and wavefunctions read in
 
   number of l-projection  operators is LMAX  =           6
   number of lm-projection operators is LMMAX =          18
 
 Optimization of the real space projectors (new method)

 maximal supplied QI-value         = 25.13
 optimisation between [QCUT,QGAM] = [ 10.81, 21.61] = [ 32.71,130.83] Ry 
 Optimized for a Real-space Cutoff    1.23 Angstroem

   l    n(q)    QCUT    max X(q) W(low)/X(q) W(high)/X(q)  e(spline) 
   0      8    10.807     5.582    0.53E-04    0.84E-04    0.44E-07
   0      8    10.807    69.432    0.35E-03    0.71E-03    0.24E-06
   1      7    10.807     2.780    0.44E-04    0.88E-04    0.89E-07
   1      7    10.807     4.549    0.14E-03    0.28E-03    0.13E-06
 Optimization of the real space projectors (new method)

 maximal supplied QI-value         = 24.76
 optimisation between [QCUT,QGAM] = [ 10.64, 21.54] = [ 31.73,129.89] Ry 
 Optimized for a Real-space Cutoff    1.23 Angstroem

   l    n(q)    QCUT    max X(q) W(low)/X(q) W(high)/X(q)  e(spline) 
   0      8    10.645     4.192    0.69E-04    0.93E-04    0.58E-07
   0      8    10.645     8.473    0.40E-03    0.65E-03    0.17E-06
   1      7    10.645     2.474    0.80E-04    0.12E-03    0.30E-07
   1      7    10.645     3.912    0.24E-03    0.53E-03    0.16E-06
 Optimization of the real space projectors (new method)

 maximal supplied QI-value         = 14.36
 optimisation between [QCUT,QGAM] = [ 10.77, 21.69] = [ 32.49,131.70] Ry 
 Optimized for a Real-space Cutoff    1.46 Angstroem

   l    n(q)    QCUT    max X(q) W(low)/X(q) W(high)/X(q)  e(spline) 
   2      9    10.771     3.903    0.38E-04    0.12E-03    0.82E-07
   2      9    10.771    18.372    0.13E-03    0.32E-03    0.28E-06
   0     10    10.771    13.697    0.11E-04    0.86E-05    0.85E-08
   0     10    10.771    65.529    0.40E-04    0.12E-03    0.14E-06
   1      9    10.771     7.604    0.48E-04    0.31E-04    0.38E-07
   1      9    10.771    12.136    0.35E-03    0.16E-03    0.23E-06
 PAW_PBE C 08Apr2002                    :
 energy of atom  1       EATOM= -147.1560
 kinetic energy error for atom=    0.0116 (will be added to EATOM!!)
 PAW_PBE O 08Apr2002                    :
 energy of atom  2       EATOM= -432.3788
 kinetic energy error for atom=    0.0389 (will be added to EATOM!!)
  PAW_PBE Pt 04Feb2005                  :
 energy of atom  3       EATOM= -729.1182
 kinetic energy error for atom=    0.0051 (will be added to EATOM!!)
 
 
 POSCAR: C    O    Pt                            
  positions in direct lattice
  No initial velocities read in
 exchange correlation table for  LEXCH =        8
   RHO(1)=    0.500       N(1)  =     2000
   RHO(2)=  100.500       N(2)  =     4000

 VTST: version 3.2, (02/03/18)

 CHAIN: initializing optimizer
 
 OPT: Using VASP QUASI-newton optimizer
 CHAIN: Read ICHAIN            0
 
 POSCAR: C    O    Pt                            
  positions in direct lattice
  No initial velocities read in
 


--------------------------------------------------------------------------------------------------------


 ion  position               nearest neighbor table
   1  0.702  0.438  0.477-   3 1.16  36 1.95   2 1.98
   2  0.904  0.384  0.470-   1 1.98  38 2.07  36 2.55
   3  0.674  0.465  0.526-   1 1.16
   4  0.987  0.329  0.074-  15 2.81  16 2.81  12 2.81   5 2.81  11 2.81   6 2.81  18 2.81   8 2.81
                             7 2.81
   5  0.320  0.329  0.074-  13 2.81  10 2.81   4 2.81  12 2.81  16 2.81  17 2.81   8 2.81   9 2.81
                             6 2.81
   6  0.653  0.329  0.074-  14 2.81  18 2.81  11 2.81   4 2.81  17 2.81   7 2.81  10 2.81   9 2.81
                             5 2.81
   7  0.987  0.662  0.074-  18 2.81  21 2.81  19 2.81  12 2.81   8 2.81  10 2.81   9 2.81   6 2.81
                             4 2.81
   8  0.320  0.662  0.074-  16 2.81  19 2.81  10 2.81   7 2.81  20 2.81   4 2.81  11 2.81   5 2.81
                             9 2.81
   9  0.653  0.662  0.074-  17 2.81  20 2.81  21 2.81  11 2.81  12 2.81   7 2.81   6 2.81   5 2.81
                             8 2.81
  10  0.320  0.995  0.074-  13 2.81  19 2.81   5 2.81   8 2.81  12 2.81   7 2.81  14 2.81   6 2.81
                            11 2.81
  11  0.653  0.995  0.074-  14 2.81  20 2.81  15 2.81   9 2.81   6 2.81  12 2.81   4 2.81   8 2.81
                            10 2.81
  12  0.987  0.995  0.074-  15 2.81  21 2.81  13 2.81   7 2.81   4 2.81  10 2.81   5 2.81  11 2.81
                             9 2.81
  13  0.209  0.106  0.179-   5 2.81  10 2.81  12 2.81  19 2.81  15 2.81  21 2.81  16 2.81  14 2.81
                            17 2.81  25 2.81  27 2.81  26 2.87
  14  0.542  0.106  0.179-  24 2.77  11 2.81   6 2.81  20 2.81  15 2.81  10 2.81  18 2.81  19 2.81
                            17 2.81  13 2.81  26 2.81  23 2.84
  15  0.876  0.106  0.179-  24 2.78  25 2.78   4 2.81  12 2.81  11 2.81  21 2.81  13 2.81  20 2.81
                            14 2.81  16 2.81  18 2.81  28 2.84
  16  0.209  0.440  0.179-  29 2.74  25 2.80   8 2.81   4 2.81  19 2.81  18 2.81   5 2.81  15 2.81
                            20 2.81  13 2.81  17 2.81  22 2.86
  17  0.542  0.440  0.179-  29 2.76   9 2.81  20 2.81  21 2.81  18 2.81   6 2.81   5 2.81  14 2.81
                            13 2.81  16 2.81  26 2.86  30 2.87
  18  0.876  0.440  0.179-  24 2.75   7 2.81   6 2.81  21 2.81  16 2.81  19 2.81  17 2.81   4 2.81
                            14 2.81  15 2.81  30 2.83  22 2.88
  19  0.209  0.773  0.179-  27 2.81  10 2.81   8 2.81   7 2.81  16 2.81  13 2.81  21 2.81  18 2.81
                            14 2.81  20 2.81  23 2.86  22 2.89
  20  0.542  0.773  0.179-  29 2.76  11 2.81   9 2.81  17 2.81  14 2.81  21 2.81  15 2.81   8 2.81
                            16 2.81  19 2.81  28 2.83  23 2.84
  21  0.876  0.773  0.179-  27 2.79  12 2.81   7 2.81   9 2.81  18 2.81  15 2.81  19 2.81  13 2.81
                            17 2.81  20 2.81  30 2.88  28 2.88
  22  0.098  0.546  0.288-  31 2.76  25 2.77  24 2.77  29 2.77  38 2.79  37 2.79  30 2.79  27 2.84
                            23 2.85  16 2.86  18 2.88  19 2.89
  23  0.435  0.885  0.286-  32 2.65  35 2.69  28 2.73  26 2.77  31 2.80  29 2.80  24 2.82  20 2.84
                            14 2.84  22 2.85  27 2.85  19 2.86
  24  0.766  0.222  0.282-  30 2.74  18 2.75  26 2.75  22 2.77  14 2.77  15 2.78  25 2.79  32 2.80
                            28 2.80  23 2.82  38 2.89  36 2.99
  25  0.095  0.217  0.283-  38 2.77  22 2.77  15 2.78  24 2.79  28 2.80  16 2.80  29 2.81  13 2.81
                            34 2.82  27 2.82  33 2.88  26 2.89
  26  0.436  0.214  0.286-  35 2.73  24 2.75  23 2.77  33 2.78  30 2.80  14 2.81  27 2.84  36 2.85
                            17 2.86  29 2.86  13 2.87  25 2.89
  27  0.095  0.882  0.284-  35 2.77  34 2.77  30 2.79  21 2.79  19 2.81  13 2.81  37 2.82  25 2.82
                            26 2.84  22 2.84  23 2.85  28 2.85
  28  0.760  0.887  0.286-  32 2.62  39 2.73  23 2.73  34 2.77  24 2.80  25 2.80  29 2.82  20 2.83
                            15 2.84  27 2.85  21 2.88  30 2.90
  29  0.428  0.549  0.281-  16 2.74  20 2.76  17 2.76  22 2.77  23 2.80  25 2.81  28 2.82  39 2.83
                            31 2.85  26 2.86  30 2.87  33 2.89
  30  0.768  0.547  0.287-  39 2.71  24 2.74  22 2.79  27 2.79  26 2.80  18 2.83  37 2.84  17 2.87
                            29 2.87  21 2.88  36 2.89  28 2.90
  31  0.323  0.659  0.390-  22 2.76  37 2.77  32 2.78  35 2.78  39 2.80  23 2.80  38 2.83  33 2.83
                            29 2.85
  32  0.652  0.990  0.383-  28 2.62  23 2.65  31 2.78  39 2.78  35 2.79  24 2.80  34 2.81  38 2.83
                            36 2.86
  33  0.327  0.326  0.390-  36 2.69  26 2.78  38 2.79  39 2.80  35 2.82  31 2.83  34 2.85  25 2.88
                            29 2.89
  34  0.986  0.990  0.388-  38 2.74  37 2.75  28 2.77  27 2.77  39 2.78  32 2.81  25 2.82  35 2.83
                            33 2.85
  35  0.321  0.988  0.385-  23 2.69  37 2.70  26 2.73  27 2.77  31 2.78  32 2.79  36 2.80  33 2.82
                            34 2.83
  36  0.645  0.325  0.396-   1 1.95   2 2.55  33 2.69  35 2.80  39 2.81  26 2.85  32 2.86  30 2.89
                            37 2.95  38 2.95  24 2.99
  37  0.999  0.670  0.391-  35 2.70  34 2.75  31 2.77  22 2.79  27 2.82  30 2.84  39 2.86  38 2.93
                            36 2.95
  38  0.993  0.319  0.390-   2 2.07  34 2.74  25 2.77  22 2.79  33 2.79  31 2.83  32 2.83  24 2.89
                            37 2.93  36 2.95
  39  0.655  0.661  0.385-  30 2.71  28 2.73  34 2.78  32 2.78  31 2.80  33 2.80  36 2.81  29 2.83
                            37 2.86
 

IMPORTANT INFORMATION: All symmetrisations will be switched off!
NOSYMM: (Re-)initialisation of all symmetry stuff for point group C_1.

 
 
 KPOINTS: mesh auto                               

Automatic generation of k-mesh.
Space group operators:
 irot       det(A)        alpha          n_x          n_y          n_z        tau_x        tau_y        tau_z
    1     1.000000     0.000000     1.000000     0.000000     0.000000     0.000000     0.000000     0.000000
 
 Subroutine IBZKPT returns following result:
 ===========================================
 
 Found      4 irreducible k-points:
 
 Following reciprocal coordinates:
            Coordinates               Weight
  0.000000  0.000000  0.000000      1.000000
  0.500000  0.000000  0.000000      1.000000
 -0.000000  0.500000  0.000000      1.000000
  0.500000  0.500000  0.000000      1.000000
 
 Following cartesian coordinates:
            Coordinates               Weight
  0.000000  0.000000  0.000000      1.000000
  0.068522  0.000000  0.000000      1.000000
  0.034261  0.059342  0.000000      1.000000
  0.102783  0.059342  0.000000      1.000000
 


--------------------------------------------------------------------------------------------------------




 Dimension of arrays:
   k-points           NKPTS =      4   k-points in BZ     NKDIM =      4   number of bands    NBANDS=    228
   number of dos      NEDOS =    301   number of ions     NIONS =     39
   non local maximal  LDIM  =      6   non local SUM 2l+1 LMDIM =     18
   total plane-waves  NPLWV = 276480
   max r-space proj   IRMAX =   2756   max aug-charges    IRDMAX=  12646
   dimension x,y,z NGX =    48 NGY =   48 NGZ =  120
   dimension x,y,z NGXF=    96 NGYF=   96 NGZF=  240
   support grid    NGXF=    96 NGYF=   96 NGZF=  240
   ions per type =               1   2  36
   NGX,Y,Z   is equivalent  to a cutoff of   9.47,  9.47,  9.12 a.u.
   NGXF,Y,Z  is equivalent  to a cutoff of  18.94, 18.94, 18.24 a.u.

 SYSTEM =  metal                                   
 POSCAR =  C    O    Pt                            

 Startparameter for this run:
   NWRITE =      2    write-flag & timer
   PREC   = normal    normal or accurate (medium, high low for compatibility)
   ISTART =      0    job   : 0-new  1-cont  2-samecut
   ICHARG =      2    charge: 1-file 2-atom 10-const
   ISPIN  =      1    spin polarized calculation?
   LNONCOLLINEAR =      F non collinear calculations
   LSORBIT =      F    spin-orbit coupling
   INIWAV =      1    electr: 0-lowe 1-rand  2-diag
   LASPH  =      F    aspherical Exc in radial PAW
   METAGGA=      F    non-selfconsistent MetaGGA calc.

 Electronic Relaxation 1
   ENCUT  =  450.0 eV  33.07 Ry    5.75 a.u.  14.57 14.57 37.84*2*pi/ulx,y,z
   ENINI  =  450.0     initial cutoff
   ENAUG  =  644.9 eV  augmentation charge cutoff
   NELM   =     60;   NELMIN=  8; NELMDL= -5     # of ELM steps 
   EDIFF  = 0.1E-03   stopping-criterion for ELM
   LREAL  =      T    real-space projection
   NLSPLINE    = F    spline interpolate recip. space projectors
   LCOMPAT=      F    compatible to vasp.4.4
   GGA_COMPAT  = T    GGA compatible to vasp.4.4-vasp.4.6
   LMAXPAW     = -100 max onsite density
   LMAXMIX     =    2 max onsite mixed and CHGCAR
   VOSKOWN=      0    Vosko Wilk Nusair interpolation
   ROPT   =   -0.00050  -0.00050  -0.00050
 Ionic relaxation
   EDIFFG = -.5E-01   stopping-criterion for IOM
   NSW    =   5000    number of steps for IOM
   NBLOCK =      1;   KBLOCK =   5000    inner block; outer block 
   IBRION =      1    ionic relax: 0-MD 1-quasi-New 2-CG
   NFREE  =      0    steps in history (QN), initial steepest desc. (CG)
   ISIF   =      2    stress and relaxation
   IWAVPR =     11    prediction:  0-non 1-charg 2-wave 3-comb
   ISYM   =      0    0-nonsym 1-usesym 2-fastsym
   LCORR  =      T    Harris-Foulkes like correction to forces

   POTIM  = 0.2000    time-step for ionic-motion
   TEIN   =    0.0    initial temperature
   TEBEG  =    0.0;   TEEND  =   0.0 temperature during run
   SMASS  =  -3.00    Nose mass-parameter (am)
   estimated Nose-frequenzy (Omega)   =  0.10E-29 period in steps =****** mass=  -0.162E-26a.u.
   SCALEE = 1.0000    scale energy and forces
   NPACO  =    256;   APACO  = 16.0  distance and # of slots for P.C.
   PSTRESS=    0.0 pullay stress

  Mass of Ions in am
   POMASS =  12.01 16.00195.08
  Ionic Valenz
   ZVAL   =   4.00  6.00 10.00
  Atomic Wigner-Seitz radii
   RWIGS  =  -1.00 -1.00 -1.00
  virtual crystal weights 
   VCA    =   1.00  1.00  1.00
   NELECT =     376.0000    total number of electrons
   NUPDOWN=      -1.0000    fix difference up-down

 DOS related values:
   EMIN   =  10.00;   EMAX   =-10.00  energy-range for DOS
   EFERMI =   0.00
   ISMEAR =     1;   SIGMA  =   0.20  broadening in eV -4-tet -1-fermi 0-gaus

 Electronic relaxation 2 (details)
   IALGO  =     68    algorithm
   LDIAG  =      T    sub-space diagonalisation (order eigenvalues)
   LSUBROT=      F    optimize rotation matrix (better conditioning)
   TURBO    =      0    0=normal 1=particle mesh
   IRESTART =      0    0=no restart 2=restart with 2 vectors
   NREBOOT  =      0    no. of reboots
   NMIN     =      0    reboot dimension
   EREF     =   0.00    reference energy to select bands
   IMIX   =      4    mixing-type and parameters
     AMIX     =   0.40;   BMIX     =  1.00
     AMIX_MAG =   1.60;   BMIX_MAG =  1.00
     AMIN     =   0.10
     WC   =   100.;   INIMIX=   1;  MIXPRE=   1;  MAXMIX= -45

 Intra band minimization:
   WEIMIN = 0.0010     energy-eigenvalue tresh-hold
   EBREAK =  0.11E-06  absolut break condition
   DEPER  =   0.30     relativ break condition  

   TIME   =   0.40     timestep for ELM

  volume/ion in A,a.u.               =      34.49       232.77
  Fermi-wavevector in a.u.,A,eV,Ry     =   1.070385  2.022734 15.588510  1.145723
  Thomas-Fermi vector in A             =   2.206093
 
 Write flags
   LWAVE        =      F    write WAVECAR
   LDOWNSAMPLE  =      F    k-point downsampling of WAVECAR
   LCHARG       =      F    write CHGCAR
   LVTOT        =      F    write LOCPOT, total local potential
   LVHAR        =      F    write LOCPOT, Hartree potential only
   LELF         =      F    write electronic localiz. function (ELF)
   LORBIT       =      0    0 simple, 1 ext, 2 COOP (PROOUT), +10 PAW based schemes


 Dipole corrections
   LMONO  =      F    monopole corrections only (constant potential shift)
   LDIPOL =      F    correct potential (dipole corrections)
   IDIPOL =      0    1-x, 2-y, 3-z, 4-all directions 
   EPSILON=  1.0000000 bulk dielectric constant

 Exchange correlation treatment:
   GGA     =    --    GGA type
   LEXCH   =     8    internal setting for exchange type
   VOSKOWN=      0    Vosko Wilk Nusair interpolation
   LHFCALC =     F    Hartree Fock is set to
   LHFONE  =     F    Hartree Fock one center treatment
   AEXX    =    0.0000 exact exchange contribution

 Linear response parameters
   LEPSILON=     F    determine dielectric tensor
   LRPA    =     F    only Hartree local field effects (RPA)
   LNABLA  =     F    use nabla operator in PAW spheres
   LVEL    =     F    velocity operator in full k-point grid
   LINTERFAST=   F  fast interpolation
   KINTER  =     0    interpolate to denser k-point grid
   CSHIFT  =0.1000    complex shift for real part using Kramers Kronig
   OMEGAMAX=  -1.0    maximum frequency
   DEG_THRESHOLD= 0.2000000E-02 threshold for treating states as degnerate
   RTIME   =   -0.100 relaxation time in fs
  (WPLASMAI=    0.000 imaginary part of plasma frequency in eV, 0.658/RTIME)
   DFIELD  = 0.0000000 0.0000000 0.0000000 field for delta impulse in time
 
 Orbital magnetization related:
   ORBITALMAG=     F  switch on orbital magnetization
   LCHIMAG   =     F  perturbation theory with respect to B field
   DQ        =  0.001000  dq finite difference perturbation B field
   LLRAUG    =     F  two centre corrections for induced B field



--------------------------------------------------------------------------------------------------------


 quasi-Newton-method for relaxation of ions
   using selective dynamics as specified on POSCAR
 charge density and potential will be updated during run
 non-spin polarized calculation
 RMM-DIIS sequential band-by-band and
  variant of blocked Davidson during initial phase
 perform sub-space diagonalisation
    before iterative eigenvector-optimisation
 modified Broyden-mixing scheme, WC =      100.0
 initial mixing is a Kerker type mixing with AMIX =  0.4000 and BMIX =      1.0000
 Hartree-type preconditioning will be used
 using additional bands           40
 real space projection scheme for non local part
 use partial core corrections
 calculate Harris-corrections to forces 
   (improved forces if not selfconsistent)
 use gradient corrections 
 use of overlap-Matrix (Vanderbilt PP)
 Methfessel and Paxton  Order N= 1 SIGMA  =   0.20


--------------------------------------------------------------------------------------------------------


  energy-cutoff  :      450.00
  volume of cell :     1345.22
      direct lattice vectors                 reciprocal lattice vectors
     7.296955120 -4.212899000  0.000000000     0.137043463  0.000000000  0.000000000
     0.000000000  8.425798000  0.000000000     0.068521732  0.118683121  0.000000000
     0.000000000  0.000000000 21.879635000     0.000000000  0.000000000  0.045704602

  length of vectors
     8.425798004  8.425798000 21.879635000     0.137043463  0.137043463  0.045704602


 
 k-points in units of 2pi/SCALE and weight: mesh auto                               
   0.00000000  0.00000000  0.00000000       0.250
   0.06852173  0.00000000  0.00000000       0.250
   0.03426087  0.05934156  0.00000000       0.250
   0.10278260  0.05934156  0.00000000       0.250
 
 k-points in reciprocal lattice and weights: mesh auto                               
   0.00000000  0.00000000  0.00000000       0.250
   0.50000000  0.00000000  0.00000000       0.250
  -0.00000000  0.50000000  0.00000000       0.250
   0.50000000  0.50000000  0.00000000       0.250
 
 position of ions in fractional coordinates (direct lattice) 
   0.70210776  0.43837696  0.47655401
   0.90384186  0.38380067  0.46951904
   0.67397122  0.46523285  0.52644254
   0.98675500  0.32859100  0.07437600
   0.32008800  0.32859100  0.07437600
   0.65342200  0.32859100  0.07437600
   0.98675500  0.66192500  0.07437600
   0.32008800  0.66192500  0.07437600
   0.65342200  0.66192500  0.07437600
   0.32008800  0.99525800  0.07437600
   0.65342200  0.99525800  0.07437600
   0.98675500  0.99525800  0.07437600
   0.20897700  0.10636900  0.17918600
   0.54231100  0.10636900  0.17918600
   0.87564400  0.10636900  0.17918600
   0.20897700  0.43970300  0.17918600
   0.54231100  0.43970300  0.17918600
   0.87564400  0.43970300  0.17918600
   0.20897700  0.77303600  0.17918600
   0.54231100  0.77303600  0.17918600
   0.87564400  0.77303600  0.17918600
   0.09809855  0.54636735  0.28774954
   0.43459920  0.88515994  0.28620136
   0.76645202  0.22193098  0.28160515
   0.09453260  0.21659419  0.28343849
   0.43636521  0.21447699  0.28596840
   0.09546722  0.88236771  0.28376648
   0.75989243  0.88705786  0.28614350
   0.42780523  0.54933651  0.28079405
   0.76756216  0.54736403  0.28693063
   0.32265887  0.65946776  0.38952163
   0.65179908  0.98955593  0.38319037
   0.32690525  0.32574464  0.38957605
   0.98579015  0.98979211  0.38772084
   0.32056762  0.98839796  0.38546448
   0.64538345  0.32468822  0.39590376
   0.99914905  0.67004949  0.39115045
   0.99253853  0.31879702  0.38989663
   0.65520901  0.66126868  0.38532971
 
 position of ions in cartesian coordinates  (Angst):
   5.12324883  0.73576666 10.42682769
   6.59529346 -0.57396755 10.27290532
   4.91793772  1.08058532 11.51837056
   7.20030695 -1.38845776  1.62731973
   2.33566777  1.42014298  1.62731973
   4.76799101  0.01584050  1.62731973
   7.20030695  1.42014719  1.62731973
   2.33566777  4.22874793  1.62731973
   4.76799101  2.82444545  1.62731973
   2.33566777  7.03734445  1.62731973
   4.76799101  5.63304198  1.62731973
   7.20030695  4.22874371  1.62731973
   1.52489579  0.01584471  3.92052428
   3.95721903 -1.38845776  3.92052428
   6.38953497 -2.79275602  3.92052428
   1.52489579  2.82444966  3.92052428
   3.95721903  1.42014719  3.92052428
   6.38953497  0.01584893  3.92052428
   1.52489579  5.63304619  3.92052428
   3.95721903  4.22874371  3.92052428
   6.38953497  2.82444545  3.92052428
   0.71582073  4.19030166  6.29585484
   3.17125086  5.62725633  6.26198136
   5.59276601 -1.35903937  6.16141795
   0.68980010  1.42672261  6.20153066
   3.18413732 -0.03122276  6.25688422
   0.69661999  7.03245833  6.20870701
   5.54490096  4.27282031  6.26071543
   3.12167556  2.82629822  6.14367124
   5.60086663  1.37831691  6.27793735
   2.35442732  4.19721290  8.52259115
   4.75614866  5.59183464  8.38406537
   2.38541294  1.36743971  8.52378173
   7.19326646  4.18675403  8.48319047
   2.33916752  6.97752252  8.43382207
   4.70933408  0.01682208  8.66222977
   7.29074577  1.43638763  8.55822900
   7.24250913 -1.49534526  8.53079592
   4.78103075  2.81138696  8.43087351
 


--------------------------------------------------------------------------------------------------------


 k-point  1 :   0.0000 0.0000 0.0000  plane waves:   29241
 k-point  2 :   0.5000 0.0000 0.0000  plane waves:   29108
 k-point  3 :  -0.0000 0.5000 0.0000  plane waves:   29108
 k-point  4 :   0.5000 0.5000 0.0000  plane waves:   29108

 maximum and minimum number of plane-waves per node :     14624    14548

 maximum number of plane-waves:     29241
 maximum index in each direction: 
   IXMAX=   14   IYMAX=   14   IZMAX=   37
   IXMIN=  -15   IYMIN=  -15   IZMIN=  -37


 real space projection operators:
  total allocation   :      13560.91 KBytes
  max/ min on nodes  :       6788.41       6772.50


 parallel 3D FFT for wavefunctions:
    minimum data exchange during FFTs selected (reduces bandwidth)
 parallel 3D FFT for charge:
    minimum data exchange during FFTs selected (reduces bandwidth)


 total amount of memory used by VASP MPI-rank0   131956. kBytes
=======================================================================

   base      :      30000. kBytes
   nonlr-proj:      10148. kBytes
   fftplans  :      13556. kBytes
   grid      :      23353. kBytes
   one-center:        311. kBytes
   wavefun   :      54588. kBytes
 
     INWAV:  cpu time    0.0000: real time    0.0000
 Broyden mixing: mesh for mixing (old mesh)
   NGX = 29   NGY = 29   NGZ = 75
  (NGX  = 96   NGY  = 96   NGZ  =240)
  gives a total of  63075 points

 initial charge density was supplied:
 charge density of overlapping atoms calculated
 number of electron     376.0000000 magnetization 
 keeping initial charge density in first step


--------------------------------------------------------------------------------------------------------


 Maximum index for non-local projection operator         1321
 Maximum index for augmentation-charges         1558 (set IRDMAX)


--------------------------------------------------------------------------------------------------------


 First call to EWALD:  gamma=   0.161
 Maximum number of real-space cells 4x 4x 2
 Maximum number of reciprocal cells 2x 2x 5

    FEWALD:  cpu time    0.0027: real time    0.0028


--------------------------------------- Iteration      1(   1)  ---------------------------------------


    POTLOK:  cpu time    0.1848: real time    0.3871
    SETDIJ:  cpu time    0.0137: real time    0.0141
     EDDAV:  cpu time   11.8549: real time   11.9703
       DOS:  cpu time    0.0013: real time    0.0013
    --------------------------------------------
      LOOP:  cpu time   12.0547: real time   12.3727

 eigenvalue-minimisations  :  1824
 total energy-change (2. order) : 0.2419123E+04  (-0.1594937E+05)
 number of electron     376.0000000 magnetization 
 augmentation part      376.0000000 magnetization 

 Free energy of the ion-electron system (eV)
  ---------------------------------------------------
  alpha Z        PSCENC =       975.10247152
  Ewald energy   TEWEN  =     90931.49482006
  -Hartree energ DENC   =   -120023.40747393
  -exchange      EXHF   =         0.00000000
  -V(xc)+E(xc)   XCENC  =       189.46067208
  PAW double counting   =     24789.08602224   -23775.73976456
  entropy T*S    EENTRO =         0.01813006
  eigenvalues    EBANDS =      2073.21383021
  atomic energy  EATOM  =     27259.89416086
  Solvation  Ediel_sol  =         0.00000000
  ---------------------------------------------------
  free energy    TOTEN  =      2419.12286854 eV

  energy without entropy =     2419.10473849  energy(sigma->0) =     2419.11682519


--------------------------------------------------------------------------------------------------------




--------------------------------------- Iteration      1(   2)  ---------------------------------------


     EDDAV:  cpu time   13.4078: real time   13.5486
       DOS:  cpu time    0.0012: real time    0.0012
    --------------------------------------------
      LOOP:  cpu time   13.4090: real time   13.5498

 eigenvalue-minimisations  :  2112
 total energy-change (2. order) :-0.2482174E+04  (-0.2303052E+04)
 number of electron     376.0000000 magnetization 
 augmentation part      376.0000000 magnetization 

 Free energy of the ion-electron system (eV)
  ---------------------------------------------------
  alpha Z        PSCENC =       975.10247152
  Ewald energy   TEWEN  =     90931.49482006
  -Hartree energ DENC   =   -120023.40747393
  -exchange      EXHF   =         0.00000000
  -V(xc)+E(xc)   XCENC  =       189.46067208
  PAW double counting   =     24789.08602224   -23775.73976456
  entropy T*S    EENTRO =         0.00145431
  eigenvalues    EBANDS =      -408.94352363
  atomic energy  EATOM  =     27259.89416086
  Solvation  Ediel_sol  =         0.00000000
  ---------------------------------------------------
  free energy    TOTEN  =       -63.05116105 eV

  energy without entropy =      -63.05261536  energy(sigma->0) =      -63.05164582


--------------------------------------------------------------------------------------------------------




--------------------------------------- Iteration      1(   3)  ---------------------------------------


     EDDAV:  cpu time   13.8918: real time   14.0271
       DOS:  cpu time    0.0011: real time    0.0011
    --------------------------------------------
      LOOP:  cpu time   13.8929: real time   14.0283

 eigenvalue-minimisations  :  2176
 total energy-change (2. order) :-0.1776710E+03  (-0.1614126E+03)
 number of electron     376.0000000 magnetization 
 augmentation part      376.0000000 magnetization 

 Free energy of the ion-electron system (eV)
  ---------------------------------------------------
  alpha Z        PSCENC =       975.10247152
  Ewald energy   TEWEN  =     90931.49482006
  -Hartree energ DENC   =   -120023.40747393
  -exchange      EXHF   =         0.00000000
  -V(xc)+E(xc)   XCENC  =       189.46067208
  PAW double counting   =     24789.08602224   -23775.73976456
  entropy T*S    EENTRO =         0.00219618
  eigenvalues    EBANDS =      -586.61529138
  atomic energy  EATOM  =     27259.89416086
  Solvation  Ediel_sol  =         0.00000000
  ---------------------------------------------------
  free energy    TOTEN  =      -240.72218693 eV

  energy without entropy =     -240.72438310  energy(sigma->0) =     -240.72291899


--------------------------------------------------------------------------------------------------------




--------------------------------------- Iteration      1(   4)  ---------------------------------------


     EDDAV:  cpu time   15.3143: real time   15.4286
       DOS:  cpu time    0.0011: real time    0.0011
    --------------------------------------------
      LOOP:  cpu time   15.3154: real time   15.4297

 eigenvalue-minimisations  :  2376
 total energy-change (2. order) :-0.7675105E+01  (-0.7376237E+01)
 number of electron     376.0000000 magnetization 
 augmentation part      376.0000000 magnetization 

 Free energy of the ion-electron system (eV)
  ---------------------------------------------------
  alpha Z        PSCENC =       975.10247152
  Ewald energy   TEWEN  =     90931.49482006
  -Hartree energ DENC   =   -120023.40747393
  -exchange      EXHF   =         0.00000000
  -V(xc)+E(xc)   XCENC  =       189.46067208
  PAW double counting   =     24789.08602224   -23775.73976456
  entropy T*S    EENTRO =         0.00270472
  eigenvalues    EBANDS =      -594.29090511
  atomic energy  EATOM  =     27259.89416086
  Solvation  Ediel_sol  =         0.00000000
  ---------------------------------------------------
  free energy    TOTEN  =      -248.39729211 eV

  energy without entropy =     -248.39999683  energy(sigma->0) =     -248.39819369


--------------------------------------------------------------------------------------------------------




--------------------------------------- Iteration      1(   5)  ---------------------------------------


     EDDAV:  cpu time   14.8325: real time   14.9444
       DOS:  cpu time    0.0012: real time    0.0012
    CHARGE:  cpu time    0.7874: real time    0.7924
    MIXING:  cpu time    0.0091: real time    0.0092
    --------------------------------------------
      LOOP:  cpu time   15.6303: real time   15.7473

 eigenvalue-minimisations  :  2352
 total energy-change (2. order) :-0.2148565E+00  (-0.2129692E+00)
 number of electron     376.0000054 magnetization 
 augmentation part      105.8069403 magnetization 

 Broyden mixing:
  rms(total) = 0.27387E+01    rms(broyden)= 0.27383E+01
  rms(prec ) = 0.30536E+01
  weight for this iteration     100.00

 Free energy of the ion-electron system (eV)
  ---------------------------------------------------
  alpha Z        PSCENC =       975.10247152
  Ewald energy   TEWEN  =     90931.49482006
  -Hartree energ DENC   =   -120023.40747393
  -exchange      EXHF   =         0.00000000
  -V(xc)+E(xc)   XCENC  =       189.46067208
  PAW double counting   =     24789.08602224   -23775.73976456
  entropy T*S    EENTRO =         0.00284332
  eigenvalues    EBANDS =      -594.50590018
  atomic energy  EATOM  =     27259.89416086
  Solvation  Ediel_sol  =         0.00000000
  ---------------------------------------------------
  free energy    TOTEN  =      -248.61214859 eV

  energy without entropy =     -248.61499191  energy(sigma->0) =     -248.61309636


--------------------------------------------------------------------------------------------------------




--------------------------------------- Iteration      1(   6)  ---------------------------------------


    POTLOK:  cpu time    0.1787: real time    0.1800
    SETDIJ:  cpu time    0.0117: real time    0.0117
    EDDIAG:  cpu time    2.0710: real time    2.0872
  RMM-DIIS:  cpu time    7.1644: real time    7.2204
    ORTHCH:  cpu time    0.2487: real time    0.2502
       DOS:  cpu time    0.0010: real time    0.0010
    CHARGE:  cpu time    0.4522: real time    0.4551
    MIXING:  cpu time    0.0059: real time    0.0059
    --------------------------------------------
      LOOP:  cpu time   10.1336: real time   10.2115

 eigenvalue-minimisations  :  1830
 total energy-change (2. order) : 0.1724562E+01  (-0.5423542E+01)
 number of electron     376.0000055 magnetization 
 augmentation part      113.0280040 magnetization 

 Broyden mixing:
  rms(total) = 0.30961E+01    rms(broyden)= 0.30952E+01
  rms(prec ) = 0.41636E+01
  weight for this iteration     100.00

 eigenvalues of (default mixing * dielectric matrix)
  average eigenvalue GAMMA=   0.4705
  0.4705

 Free energy of the ion-electron system (eV)
  ---------------------------------------------------
  alpha Z        PSCENC =       975.10247152
  Ewald energy   TEWEN  =     90931.49482006
  -Hartree energ DENC   =   -119557.47216525
  -exchange      EXHF   =         0.00000000
  -V(xc)+E(xc)   XCENC  =       182.35577288
  PAW double counting   =     26707.20301863   -25747.41565054
  entropy T*S    EENTRO =        -0.14370290
  eigenvalues    EBANDS =      -997.90631172
  atomic energy  EATOM  =     27259.89416086
  Solvation  Ediel_sol  =         0.00000000
  ---------------------------------------------------
  free energy    TOTEN  =      -246.88758646 eV

  energy without entropy =     -246.74388356  energy(sigma->0) =     -246.83968549


--------------------------------------------------------------------------------------------------------




--------------------------------------- Iteration      1(   7)  ---------------------------------------


    POTLOK:  cpu time    0.1332: real time    0.1342
    SETDIJ:  cpu time    0.0115: real time    0.0115
    EDDIAG:  cpu time    1.5553: real time    1.5662
  RMM-DIIS:  cpu time    5.1631: real time    5.2003
    ORTHCH:  cpu time    0.2412: real time    0.2429
       DOS:  cpu time    0.0011: real time    0.0011
    CHARGE:  cpu time    0.5560: real time    0.5596
    MIXING:  cpu time    0.0072: real time    0.0072
    --------------------------------------------
      LOOP:  cpu time    7.6685: real time    7.7230

 eigenvalue-minimisations  :  1830
 total energy-change (2. order) : 0.2359991E+01  (-0.3310775E+01)
 number of electron     376.0000066 magnetization 
 augmentation part      111.3567180 magnetization 

 Broyden mixing:
  rms(total) = 0.21551E+01    rms(broyden)= 0.21543E+01
  rms(prec ) = 0.37198E+01
  weight for this iteration     100.00

 eigenvalues of (default mixing * dielectric matrix)
  average eigenvalue GAMMA=   0.5587
  0.8771  0.2402

 Free energy of the ion-electron system (eV)
  ---------------------------------------------------
  alpha Z        PSCENC =       975.10247152
  Ewald energy   TEWEN  =     90931.49482006
  -Hartree energ DENC   =   -119751.91507868
  -exchange      EXHF   =         0.00000000
  -V(xc)+E(xc)   XCENC  =       180.06268017
  PAW double counting   =     27327.23568330   -26374.30833075
  entropy T*S    EENTRO =        -0.14357411
  eigenvalues    EBANDS =      -791.95042739
  atomic energy  EATOM  =     27259.89416086
  Solvation  Ediel_sol  =         0.00000000
  ---------------------------------------------------
  free energy    TOTEN  =      -244.52759502 eV

  energy without entropy =     -244.38402091  energy(sigma->0) =     -244.47973698


--------------------------------------------------------------------------------------------------------




--------------------------------------- Iteration      1(   8)  ---------------------------------------


    POTLOK:  cpu time    0.1178: real time    0.1185
    SETDIJ:  cpu time    0.0096: real time    0.0097
    EDDIAG:  cpu time    1.5220: real time    1.5324
  RMM-DIIS:  cpu time    5.3091: real time    5.3471
    ORTHCH:  cpu time    0.2179: real time    0.2191
       DOS:  cpu time    0.0011: real time    0.0011
    CHARGE:  cpu time    0.4946: real time    0.4978
    MIXING:  cpu time    0.0060: real time    0.0061
    --------------------------------------------
      LOOP:  cpu time    7.6782: real time    7.7318

 eigenvalue-minimisations  :  1827
 total energy-change (2. order) :-0.6504521E-02  (-0.1014595E+01)
 number of electron     376.0000059 magnetization 
 augmentation part      111.9162874 magnetization 

 Broyden mixing:
  rms(total) = 0.23030E+01    rms(broyden)= 0.23029E+01
  rms(prec ) = 0.39646E+01
  weight for this iteration     100.00

 eigenvalues of (default mixing * dielectric matrix)
  average eigenvalue GAMMA=   0.5275
  1.1648  0.2740  0.1437

 Free energy of the ion-electron system (eV)
  ---------------------------------------------------
  alpha Z        PSCENC =       975.10247152
  Ewald energy   TEWEN  =     90931.49482006
  -Hartree energ DENC   =   -119721.40434324
  -exchange      EXHF   =         0.00000000
  -V(xc)+E(xc)   XCENC  =       179.03930744
  PAW double counting   =     27897.55862673   -26953.64877176
  entropy T*S    EENTRO =        -0.06128698
  eigenvalues    EBANDS =      -812.50908418
  atomic energy  EATOM  =     27259.89416086
  Solvation  Ediel_sol  =         0.00000000
  ---------------------------------------------------
  free energy    TOTEN  =      -244.53409954 eV

  energy without entropy =     -244.47281257  energy(sigma->0) =     -244.51367055


--------------------------------------------------------------------------------------------------------




--------------------------------------- Iteration      1(   9)  ---------------------------------------


    POTLOK:  cpu time    0.1428: real time    0.1438
    SETDIJ:  cpu time    0.0094: real time    0.0095
    EDDIAG:  cpu time    1.5040: real time    1.5143
  RMM-DIIS:  cpu time    5.2231: real time    5.2604
    ORTHCH:  cpu time    0.2969: real time    0.2987
       DOS:  cpu time    0.0012: real time    0.0012
    CHARGE:  cpu time    0.4379: real time    0.4407
    MIXING:  cpu time    0.0049: real time    0.0049
    --------------------------------------------
      LOOP:  cpu time    7.6203: real time    7.6735

 eigenvalue-minimisations  :  1831
 total energy-change (2. order) : 0.1268812E+02  (-0.5787816E+00)
 number of electron     376.0000058 magnetization 
 augmentation part      112.6191793 magnetization 

 Broyden mixing:
  rms(total) = 0.90396E+00    rms(broyden)= 0.90371E+00
  rms(prec ) = 0.11456E+01
  weight for this iteration     100.00

 eigenvalues of (default mixing * dielectric matrix)
  average eigenvalue GAMMA=   0.5260
  1.2976  0.3357  0.3357  0.1349

 Free energy of the ion-electron system (eV)
  ---------------------------------------------------
  alpha Z        PSCENC =       975.10247152
  Ewald energy   TEWEN  =     90931.49482006
  -Hartree energ DENC   =   -119654.28029019
  -exchange      EXHF   =         0.00000000
  -V(xc)+E(xc)   XCENC  =       178.31946974
  PAW double counting   =     28640.69932902   -27708.45715817
  entropy T*S    EENTRO =        -0.07947475
  eigenvalues    EBANDS =      -854.53930398
  atomic energy  EATOM  =     27259.89416086
  Solvation  Ediel_sol  =         0.00000000
  ---------------------------------------------------
  free energy    TOTEN  =      -231.84597589 eV

  energy without entropy =     -231.76650114  energy(sigma->0) =     -231.81948431


--------------------------------------------------------------------------------------------------------




--------------------------------------- Iteration      1(  10)  ---------------------------------------


    POTLOK:  cpu time    0.1271: real time    0.1280
    SETDIJ:  cpu time    0.0107: real time    0.0107
    EDDIAG:  cpu time    1.5437: real time    1.5540
  RMM-DIIS:  cpu time    5.2672: real time    5.3041
    ORTHCH:  cpu time    0.2366: real time    0.2381
       DOS:  cpu time    0.0011: real time    0.0011
    CHARGE:  cpu time    0.4644: real time    0.4674
    MIXING:  cpu time    0.0047: real time    0.0047
    --------------------------------------------
      LOOP:  cpu time    7.6554: real time    7.7080

 eigenvalue-minimisations  :  1831
 total energy-change (2. order) : 0.1301999E+01  (-0.1765106E+00)
 number of electron     376.0000057 magnetization 
 augmentation part      112.7795897 magnetization 

 Broyden mixing:
  rms(total) = 0.50781E+00    rms(broyden)= 0.50772E+00
  rms(prec ) = 0.65886E+00
  weight for this iteration     100.00

 eigenvalues of (default mixing * dielectric matrix)
  average eigenvalue GAMMA=   0.5497
  1.3978  0.1374  0.4701  0.4701  0.2734

 Free energy of the ion-electron system (eV)
  ---------------------------------------------------
  alpha Z        PSCENC =       975.10247152
  Ewald energy   TEWEN  =     90931.49482006
  -Hartree energ DENC   =   -119643.41788339
  -exchange      EXHF   =         0.00000000
  -V(xc)+E(xc)   XCENC  =       178.19805717
  PAW double counting   =     28998.05457137   -28070.78427422
  entropy T*S    EENTRO =         0.02603476
  eigenvalues    EBANDS =      -859.11193541
  atomic energy  EATOM  =     27259.89416086
  Solvation  Ediel_sol  =         0.00000000
  ---------------------------------------------------
  free energy    TOTEN  =      -230.54397727 eV

  energy without entropy =     -230.57001203  energy(sigma->0) =     -230.55265552


--------------------------------------------------------------------------------------------------------




--------------------------------------- Iteration      1(  11)  ---------------------------------------


    POTLOK:  cpu time    0.1093: real time    0.1099
    SETDIJ:  cpu time    0.0093: real time    0.0094
    EDDIAG:  cpu time    1.5261: real time    1.5363
  RMM-DIIS:  cpu time    5.2088: real time    5.2460
    ORTHCH:  cpu time    0.2141: real time    0.2153
       DOS:  cpu time    0.0011: real time    0.0011
    CHARGE:  cpu time    0.4572: real time    0.4603
    MIXING:  cpu time    0.0048: real time    0.0048
    --------------------------------------------
      LOOP:  cpu time    7.5308: real time    7.5832

 eigenvalue-minimisations  :  1831
 total energy-change (2. order) : 0.3061453E+00  (-0.4499665E-01)
 number of electron     376.0000058 magnetization 
 augmentation part      112.9190642 magnetization 

 Broyden mixing:
  rms(total) = 0.33288E+00    rms(broyden)= 0.33259E+00
  rms(prec ) = 0.43210E+00
  weight for this iteration     100.00

 eigenvalues of (default mixing * dielectric matrix)
  average eigenvalue GAMMA=   0.5685
  1.5198  0.8061  0.1365  0.3550  0.3550  0.2386

 Free energy of the ion-electron system (eV)
  ---------------------------------------------------
  alpha Z        PSCENC =       975.10247152
  Ewald energy   TEWEN  =     90931.49482006
  -Hartree energ DENC   =   -119636.45209508
  -exchange      EXHF   =         0.00000000
  -V(xc)+E(xc)   XCENC  =       178.19267812
  PAW double counting   =     29286.74318781   -28363.20503446
  entropy T*S    EENTRO =        -0.02027825
  eigenvalues    EBANDS =      -861.98774252
  atomic energy  EATOM  =     27259.89416086
  Solvation  Ediel_sol  =         0.00000000
  ---------------------------------------------------
  free energy    TOTEN  =      -230.23783193 eV

  energy without entropy =     -230.21755369  energy(sigma->0) =     -230.23107252


--------------------------------------------------------------------------------------------------------




--------------------------------------- Iteration      1(  12)  ---------------------------------------


    POTLOK:  cpu time    0.1575: real time    0.1587
    SETDIJ:  cpu time    0.0112: real time    0.0112
    EDDIAG:  cpu time    1.5137: real time    1.5241
  RMM-DIIS:  cpu time    5.7437: real time    5.7832
    ORTHCH:  cpu time    0.2579: real time    0.2597
       DOS:  cpu time    0.0011: real time    0.0011
    CHARGE:  cpu time    0.6028: real time    0.6157
    MIXING:  cpu time    0.0061: real time    0.0061
    --------------------------------------------
      LOOP:  cpu time    8.2940: real time    8.3598

 eigenvalue-minimisations  :  1848
 total energy-change (2. order) : 0.1675996E+00  (-0.1853844E-01)
 number of electron     376.0000057 magnetization 
 augmentation part      112.9761371 magnetization 

 Broyden mixing:
  rms(total) = 0.19264E+00    rms(broyden)= 0.19259E+00
  rms(prec ) = 0.21119E+00
  weight for this iteration     100.00

 eigenvalues of (default mixing * dielectric matrix)
  average eigenvalue GAMMA=   0.6576
  1.7744  0.9944  0.7153  0.4422  0.1367  0.2851  0.2548

 Free energy of the ion-electron system (eV)
  ---------------------------------------------------
  alpha Z        PSCENC =       975.10247152
  Ewald energy   TEWEN  =     90931.49482006
  -Hartree energ DENC   =   -119626.75119006
  -exchange      EXHF   =         0.00000000
  -V(xc)+E(xc)   XCENC  =       178.15285738
  PAW double counting   =     29539.20522617   -28618.77761093
  entropy T*S    EENTRO =        -0.00638500
  eigenvalues    EBANDS =      -868.38458234
  atomic energy  EATOM  =     27259.89416086
  Solvation  Ediel_sol  =         0.00000000
  ---------------------------------------------------
  free energy    TOTEN  =      -230.07023235 eV

  energy without entropy =     -230.06384735  energy(sigma->0) =     -230.06810401


--------------------------------------------------------------------------------------------------------




--------------------------------------- Iteration      1(  13)  ---------------------------------------


    POTLOK:  cpu time    0.1636: real time    0.1648
    SETDIJ:  cpu time    0.0109: real time    0.0110
    EDDIAG:  cpu time    1.8369: real time    1.8516
  RMM-DIIS:  cpu time    6.8395: real time    6.8915
    ORTHCH:  cpu time    0.2744: real time    0.2765
       DOS:  cpu time    0.0013: real time    0.0013
    CHARGE:  cpu time    0.7276: real time    0.7329
    MIXING:  cpu time    0.0066: real time    0.0066
    --------------------------------------------
      LOOP:  cpu time    9.8608: real time    9.9362

 eigenvalue-minimisations  :  1831
 total energy-change (2. order) :-0.1068516E-01  (-0.1221450E-01)
 number of electron     376.0000057 magnetization 
 augmentation part      112.9901163 magnetization 

 Broyden mixing:
  rms(total) = 0.19553E+00    rms(broyden)= 0.19551E+00
  rms(prec ) = 0.24268E+00
  weight for this iteration     100.00

 eigenvalues of (default mixing * dielectric matrix)
  average eigenvalue GAMMA=   0.6921
  2.0411  1.1234  0.9451  0.1367  0.3784  0.3784  0.2997  0.2337

 Free energy of the ion-electron system (eV)
  ---------------------------------------------------
  alpha Z        PSCENC =       975.10247152
  Ewald energy   TEWEN  =     90931.49482006
  -Hartree energ DENC   =   -119624.94304206
  -exchange      EXHF   =         0.00000000
  -V(xc)+E(xc)   XCENC  =       178.04451303
  PAW double counting   =     29793.71739368   -28876.34068857
  entropy T*S    EENTRO =        -0.01164465
  eigenvalues    EBANDS =      -867.03890137
  atomic energy  EATOM  =     27259.89416086
  Solvation  Ediel_sol  =         0.00000000
  ---------------------------------------------------
  free energy    TOTEN  =      -230.08091750 eV

  energy without entropy =     -230.06927285  energy(sigma->0) =     -230.07703595


--------------------------------------------------------------------------------------------------------




--------------------------------------- Iteration      1(  14)  ---------------------------------------


    POTLOK:  cpu time    0.1759: real time    0.1772
    SETDIJ:  cpu time    0.0112: real time    0.0113
    EDDIAG:  cpu time    2.0721: real time    2.0880
  RMM-DIIS:  cpu time    6.8805: real time    6.9331
    ORTHCH:  cpu time    0.2813: real time    0.2832
       DOS:  cpu time    0.0012: real time    0.0012
    CHARGE:  cpu time    0.6932: real time    0.6981
    MIXING:  cpu time    0.0070: real time    0.0070
    --------------------------------------------
      LOOP:  cpu time   10.1224: real time   10.1991

 eigenvalue-minimisations  :  1832
 total energy-change (2. order) : 0.4543771E-01  (-0.9559298E-02)
 number of electron     376.0000057 magnetization 
 augmentation part      112.9802405 magnetization 

 Broyden mixing:
  rms(total) = 0.10326E+00    rms(broyden)= 0.10325E+00
  rms(prec ) = 0.13300E+00
  weight for this iteration     100.00

 eigenvalues of (default mixing * dielectric matrix)
  average eigenvalue GAMMA=   0.7372
  2.4499  1.2915  0.7749  0.7749  0.1367  0.3891  0.3235  0.2631  0.2307

 Free energy of the ion-electron system (eV)
  ---------------------------------------------------
  alpha Z        PSCENC =       975.10247152
  Ewald energy   TEWEN  =     90931.49482006
  -Hartree energ DENC   =   -119629.03788113
  -exchange      EXHF   =         0.00000000
  -V(xc)+E(xc)   XCENC  =       177.97689220
  PAW double counting   =     29953.98197458   -29038.47819236
  entropy T*S    EENTRO =        -0.00886737
  eigenvalues    EBANDS =      -860.96085815
  atomic energy  EATOM  =     27259.89416086
  Solvation  Ediel_sol  =         0.00000000
  ---------------------------------------------------
  free energy    TOTEN  =      -230.03547979 eV

  energy without entropy =     -230.02661242  energy(sigma->0) =     -230.03252400


--------------------------------------------------------------------------------------------------------




--------------------------------------- Iteration      1(  15)  ---------------------------------------


    POTLOK:  cpu time    0.1694: real time    0.1709
    SETDIJ:  cpu time    0.0109: real time    0.0110
    EDDIAG:  cpu time    1.9964: real time    2.0118
  RMM-DIIS:  cpu time    7.0141: real time    7.0677
    ORTHCH:  cpu time    0.2652: real time    0.2669
       DOS:  cpu time    0.0013: real time    0.0013
    CHARGE:  cpu time    0.7181: real time    0.7238
    MIXING:  cpu time    0.0082: real time    0.0083
    --------------------------------------------
      LOOP:  cpu time   10.1837: real time   10.2616

 eigenvalue-minimisations  :  1831
 total energy-change (2. order) : 0.7038962E-02  (-0.3703110E-02)
 number of electron     376.0000057 magnetization 
 augmentation part      112.9663237 magnetization 

 Broyden mixing:
  rms(total) = 0.76669E-01    rms(broyden)= 0.76619E-01
  rms(prec ) = 0.94189E-01
  weight for this iteration     100.00

 eigenvalues of (default mixing * dielectric matrix)
  average eigenvalue GAMMA=   0.7080
  2.5084  1.2854  0.8078  0.8078  0.4177  0.1367  0.3337  0.2983  0.2565  0.2276

 Free energy of the ion-electron system (eV)
  ---------------------------------------------------
  alpha Z        PSCENC =       975.10247152
  Ewald energy   TEWEN  =     90931.49482006
  -Hartree energ DENC   =   -119628.52252997
  -exchange      EXHF   =         0.00000000
  -V(xc)+E(xc)   XCENC  =       177.94694836
  PAW double counting   =     30064.34301865   -29150.04436977
  entropy T*S    EENTRO =        -0.00163671
  eigenvalues    EBANDS =      -860.24132384
  atomic energy  EATOM  =     27259.89416086
  Solvation  Ediel_sol  =         0.00000000
  ---------------------------------------------------
  free energy    TOTEN  =      -230.02844083 eV

  energy without entropy =     -230.02680412  energy(sigma->0) =     -230.02789526


--------------------------------------------------------------------------------------------------------




--------------------------------------- Iteration      1(  16)  ---------------------------------------


    POTLOK:  cpu time    0.1783: real time    0.1795
    SETDIJ:  cpu time    0.0111: real time    0.0112
    EDDIAG:  cpu time    2.0249: real time    2.0403
  RMM-DIIS:  cpu time    7.0373: real time    7.0900
    ORTHCH:  cpu time    0.2727: real time    0.2748
       DOS:  cpu time    0.0013: real time    0.0013
    CHARGE:  cpu time    0.7552: real time    0.7603
    MIXING:  cpu time    0.0076: real time    0.0076
    --------------------------------------------
      LOOP:  cpu time   10.2883: real time   10.3650

 eigenvalue-minimisations  :  1831
 total energy-change (2. order) : 0.8708327E-02  (-0.9007915E-03)
 number of electron     376.0000057 magnetization 
 augmentation part      112.9717553 magnetization 

 Broyden mixing:
  rms(total) = 0.26467E-01    rms(broyden)= 0.26457E-01
  rms(prec ) = 0.32285E-01
  weight for this iteration     100.00

 eigenvalues of (default mixing * dielectric matrix)
  average eigenvalue GAMMA=   0.6874
  2.5137  1.2744  0.8027  0.8027  0.5502  0.1367  0.3972  0.3050  0.3050  0.2459
  0.2280

 Free energy of the ion-electron system (eV)
  ---------------------------------------------------
  alpha Z        PSCENC =       975.10247152
  Ewald energy   TEWEN  =     90931.49482006
  -Hartree energ DENC   =   -119629.38824619
  -exchange      EXHF   =         0.00000000
  -V(xc)+E(xc)   XCENC  =       177.95453813
  PAW double counting   =     30077.85197607   -29163.68017888
  entropy T*S    EENTRO =        -0.00520297
  eigenvalues    EBANDS =      -859.24407110
  atomic energy  EATOM  =     27259.89416086
  Solvation  Ediel_sol  =         0.00000000
  ---------------------------------------------------
  free energy    TOTEN  =      -230.01973250 eV

  energy without entropy =     -230.01452953  energy(sigma->0) =     -230.01799818


--------------------------------------------------------------------------------------------------------




--------------------------------------- Iteration      1(  17)  ---------------------------------------


    POTLOK:  cpu time    0.1745: real time    0.1758
    SETDIJ:  cpu time    0.0116: real time    0.0116
    EDDIAG:  cpu time    2.0330: real time    2.0482
  RMM-DIIS:  cpu time    6.6456: real time    6.6961
    ORTHCH:  cpu time    0.2643: real time    0.2661
       DOS:  cpu time    0.0012: real time    0.0012
    CHARGE:  cpu time    0.7470: real time    0.7526
    MIXING:  cpu time    0.0079: real time    0.0080
    --------------------------------------------
      LOOP:  cpu time    9.8851: real time    9.9596

 eigenvalue-minimisations  :  1820
 total energy-change (2. order) : 0.5568448E-03  (-0.1823997E-03)
 number of electron     376.0000057 magnetization 
 augmentation part      112.9724485 magnetization 

 Broyden mixing:
  rms(total) = 0.16604E-01    rms(broyden)= 0.16597E-01
  rms(prec ) = 0.19543E-01
  weight for this iteration     100.00

 eigenvalues of (default mixing * dielectric matrix)
  average eigenvalue GAMMA=   0.7433
  2.5418  1.2220  1.2220  1.1632  0.7995  0.4414  0.1367  0.3284  0.3284  0.2699
  0.2411  0.2251

 Free energy of the ion-electron system (eV)
  ---------------------------------------------------
  alpha Z        PSCENC =       975.10247152
  Ewald energy   TEWEN  =     90931.49482006
  -Hartree energ DENC   =   -119629.85144049
  -exchange      EXHF   =         0.00000000
  -V(xc)+E(xc)   XCENC  =       177.96044748
  PAW double counting   =     30078.44205803   -29164.24730567
  entropy T*S    EENTRO =        -0.00557907
  eigenvalues    EBANDS =      -858.80880838
  atomic energy  EATOM  =     27259.89416086
  Solvation  Ediel_sol  =         0.00000000
  ---------------------------------------------------
  free energy    TOTEN  =      -230.01917566 eV

  energy without entropy =     -230.01359658  energy(sigma->0) =     -230.01731596


--------------------------------------------------------------------------------------------------------




--------------------------------------- Iteration      1(  18)  ---------------------------------------


    POTLOK:  cpu time    0.1699: real time    0.1712
    SETDIJ:  cpu time    0.0111: real time    0.0112
    EDDIAG:  cpu time    2.0033: real time    2.0180
  RMM-DIIS:  cpu time    6.8641: real time    6.9173
    ORTHCH:  cpu time    0.2694: real time    0.2714
       DOS:  cpu time    0.0013: real time    0.0013
    CHARGE:  cpu time    0.8024: real time    0.8079
    MIXING:  cpu time    0.0078: real time    0.0079
    --------------------------------------------
      LOOP:  cpu time   10.1293: real time   10.2061

 eigenvalue-minimisations  :  1810
 total energy-change (2. order) :-0.4667477E-03  (-0.1074899E-03)
 number of electron     376.0000057 magnetization 
 augmentation part      112.9691774 magnetization 

 Broyden mixing:
  rms(total) = 0.14096E-01    rms(broyden)= 0.14095E-01
  rms(prec ) = 0.17915E-01
  weight for this iteration     100.00

 eigenvalues of (default mixing * dielectric matrix)
  average eigenvalue GAMMA=   0.7516
  2.4888  1.8327  1.3694  0.8812  0.8812  0.4452  0.1367  0.3443  0.3443  0.3238
  0.2607  0.2381  0.2249

 Free energy of the ion-electron system (eV)
  ---------------------------------------------------
  alpha Z        PSCENC =       975.10247152
  Ewald energy   TEWEN  =     90931.49482006
  -Hartree energ DENC   =   -119630.87122529
  -exchange      EXHF   =         0.00000000
  -V(xc)+E(xc)   XCENC  =       177.96828558
  PAW double counting   =     30078.18220851   -29163.90353652
  entropy T*S    EENTRO =        -0.00460366
  eigenvalues    EBANDS =      -857.88222347
  atomic energy  EATOM  =     27259.89416086
  Solvation  Ediel_sol  =         0.00000000
  ---------------------------------------------------
  free energy    TOTEN  =      -230.01964240 eV

  energy without entropy =     -230.01503874  energy(sigma->0) =     -230.01810785


--------------------------------------------------------------------------------------------------------




--------------------------------------- Iteration      1(  19)  ---------------------------------------


    POTLOK:  cpu time    0.1641: real time    0.1653
    SETDIJ:  cpu time    0.0110: real time    0.0113
    EDDIAG:  cpu time    2.0203: real time    2.0352
  RMM-DIIS:  cpu time    5.7017: real time    5.7463
    ORTHCH:  cpu time    0.2652: real time    0.2670
       DOS:  cpu time    0.0013: real time    0.0013
    --------------------------------------------
      LOOP:  cpu time    8.1636: real time    8.2262

 eigenvalue-minimisations  :  1493
 total energy-change (2. order) : 0.6008620E-05  (-0.5184203E-04)
 number of electron     376.0000057 magnetization 
 augmentation part      112.9691774 magnetization 

 Free energy of the ion-electron system (eV)
  ---------------------------------------------------
  alpha Z        PSCENC =       975.10247152
  Ewald energy   TEWEN  =     90931.49482006
  -Hartree energ DENC   =   -119631.94476799
  -exchange      EXHF   =         0.00000000
  -V(xc)+E(xc)   XCENC  =       177.97461292
  PAW double counting   =     30075.07024947   -29160.71169091
  entropy T*S    EENTRO =        -0.00495797
  eigenvalues    EBANDS =      -856.89453436
  atomic energy  EATOM  =     27259.89416086
  Solvation  Ediel_sol  =         0.00000000
  ---------------------------------------------------
  free energy    TOTEN  =      -230.01963639 eV

  energy without entropy =     -230.01467843  energy(sigma->0) =     -230.01798374


--------------------------------------------------------------------------------------------------------




 average (electrostatic) potential at core
  the test charge radii are     0.6991  0.7215  1.2059
  (the norm of the test charge is              1.0000)
       1 -56.3154       2 -74.4144       3 -76.1979       4 -72.3455       5 -72.3385
       6 -72.3293       7 -72.3340       8 -72.3593       9 -72.3377      10 -72.3227
      11 -72.3571      12 -72.3324      13 -72.8987      14 -73.0249      15 -72.9977
      16 -73.0354      17 -72.9942      18 -73.0022      19 -72.9863      20 -73.0333
      21 -72.9598      22 -72.9521      23 -73.0760      24 -73.0104      25 -73.0210
      26 -72.9841      27 -73.0260      28 -73.0744      29 -72.9572      30 -72.8763
      31 -72.3727      32 -72.6065      33 -72.4001      34 -72.4670      35 -72.5609
      36 -73.3038      37 -72.4832      38 -73.0327      39 -72.5105
 
 
 
 E-fermi :   1.0663     XC(G=0):  -6.6209     alpha+bet : -6.8913


 k-point     1 :       0.0000    0.0000    0.0000
  band No.  band energies     occupation 
      1     -22.0861      2.00000
      2     -16.3803      2.00000
      3      -8.6450      2.00000
      4      -8.1139      2.00000
      5      -6.8606      2.00000
      6      -5.9613      2.00000
      7      -5.8192      2.00000
      8      -5.7616      2.00000
      9      -5.7041      2.00000
     10      -5.6644      2.00000
     11      -5.6539      2.00000
     12      -5.6306      2.00000
     13      -5.5860      2.00000
     14      -5.5376      2.00000
     15      -5.3826      2.00000
     16      -5.2381      2.00000
     17      -5.1252      2.00000
     18      -5.1117      2.00000
     19      -5.0973      2.00000
     20      -5.0544      2.00000
     21      -5.0261      2.00000
     22      -5.0142      2.00000
     23      -4.6583      2.00000
     24      -4.6284      2.00000
     25      -4.6004      2.00000
     26      -4.5796      2.00000
     27      -4.5508      2.00000
     28      -4.4981      2.00000
     29      -4.4277      2.00000
     30      -4.3943      2.00000
     31      -4.3681      2.00000
     32      -4.3595      2.00000
     33      -4.3262      2.00000
     34      -4.2624      2.00000
     35      -4.1686      2.00000
     36      -4.1482      2.00000
     37      -4.1420      2.00000
     38      -4.1082      2.00000
     39      -4.0922      2.00000
     40      -4.0729      2.00000
     41      -4.0689      2.00000
     42      -4.0573      2.00000
     43      -4.0511      2.00000
     44      -4.0308      2.00000
     45      -3.9893      2.00000
     46      -3.9824      2.00000
     47      -3.5859      2.00000
     48      -3.5360      2.00000
     49      -3.5342      2.00000
     50      -3.4692      2.00000
     51      -3.4567      2.00000
     52      -3.4362      2.00000
     53      -3.4280      2.00000
     54      -3.4023      2.00000
     55      -3.3978      2.00000
     56      -3.3638      2.00000
     57      -3.3265      2.00000
     58      -3.2204      2.00000
     59      -3.1911      2.00000
     60      -3.1757      2.00000
     61      -2.8842      2.00000
     62      -2.7913      2.00000
     63      -2.7252      2.00000
     64      -2.6676      2.00000
     65      -2.6216      2.00000
     66      -2.6114      2.00000
     67      -2.5812      2.00000
     68      -2.5467      2.00000
     69      -2.5026      2.00000
     70      -2.4933      2.00000
     71      -2.4551      2.00000
     72      -2.4253      2.00000
     73      -2.4111      2.00000
     74      -2.4010      2.00000
     75      -2.3912      2.00000
     76      -2.3862      2.00000
     77      -2.3707      2.00000
     78      -2.3491      2.00000
     79      -2.3465      2.00000
     80      -2.3282      2.00000
     81      -2.3084      2.00000
     82      -2.2953      2.00000
     83      -2.2764      2.00000
     84      -2.2601      2.00000
     85      -2.2270      2.00000
     86      -2.1789      2.00000
     87      -2.1638      2.00000
     88      -2.1462      2.00000
     89      -2.1082      2.00000
     90      -2.0742      2.00000
     91      -2.0553      2.00000
     92      -2.0263      2.00000
     93      -1.9844      2.00000
     94      -1.9754      2.00000
     95      -1.9367      2.00000
     96      -1.8967      2.00000
     97      -1.8899      2.00000
     98      -1.8668      2.00000
     99      -1.8103      2.00000
    100      -1.7733      2.00000
    101      -1.6770      2.00000
    102      -1.6493      2.00000
    103      -1.6458      2.00000
    104      -1.6245      2.00000
    105      -1.5903      2.00000
    106      -1.5803      2.00000
    107      -1.5575      2.00000
    108      -1.5552      2.00000
    109      -1.5317      2.00000
    110      -1.5117      2.00000
    111      -1.5067      2.00000
    112      -1.4904      2.00000
    113      -1.4835      2.00000
    114      -1.3593      2.00000
    115      -1.2990      2.00000
    116      -1.1916      2.00000
    117      -1.1384      2.00000
    118      -1.1063      2.00000
    119      -1.1005      2.00000
    120      -1.0447      2.00000
    121      -1.0410      2.00000
    122      -1.0058      2.00000
    123      -0.9728      2.00000
    124      -0.9232      2.00000
    125      -0.8981      2.00000
    126      -0.8605      2.00000
    127      -0.8563      2.00000
    128      -0.8097      2.00000
    129      -0.7217      2.00000
    130      -0.7092      2.00000
    131      -0.6974      2.00000
    132      -0.6755      2.00000
    133      -0.6353      2.00000
    134      -0.6009      2.00000
    135      -0.5177      2.00000
    136      -0.4669      2.00000
    137      -0.4414      2.00000
    138      -0.3874      2.00000
    139      -0.3783      2.00000
    140      -0.3469      2.00000
    141      -0.2910      2.00000
    142      -0.2612      2.00000
    143      -0.2260      2.00000
    144      -0.2010      2.00000
    145      -0.1584      2.00000
    146      -0.1482      2.00000
    147      -0.1271      2.00000
    148      -0.0831      2.00000
    149      -0.0173      2.00000
    150       0.0126      2.00000
    151       0.0582      2.00000
    152       0.0620      2.00000
    153       0.0840      2.00000
    154       0.0995      2.00000
    155       0.1218      2.00000
    156       0.1462      2.00000
    157       0.1784      2.00000
    158       0.2131      2.00000
    159       0.2478      2.00000
    160       0.2757      2.00000
    161       0.2895      2.00000
    162       0.3040      2.00000
    163       0.3118      2.00000
    164       0.3364      2.00000
    165       0.3432      2.00000
    166       0.3589      2.00001
    167       0.4079      2.00003
    168       0.4208      2.00005
    169       0.4358      2.00008
    170       0.4736      2.00023
    171       0.4996      2.00046
    172       0.5534      2.00173
    173       0.5634      2.00217
    174       0.5946      2.00426
    175       0.6210      2.00720
    176       0.6300      2.00853
    177       0.6364      2.00959
    178       0.6666      2.01607
    179       0.6842      2.02112
    180       0.6950      2.02474
    181       0.7049      2.02835
    182       0.7289      2.03826
    183       0.7654      2.05492
    184       0.7800      2.06113
    185       0.7943      2.06627
    186       0.7959      2.06674
    187       0.7974      2.06721
    188       0.8146      2.07058
    189       0.8162      2.07072
    190       0.8278      2.07058
    191       0.8308      2.07017
    192       0.8433      2.06662
    193       0.8497      2.06344
    194       0.8778      2.03617
    195       0.9071      1.97800
    196       1.0555      1.09062
    197       1.0741      0.93368
    198       1.1529      0.33721
    199       1.1747      0.21498
    200       1.1827      0.17629
    201       1.1940      0.12680
    202       1.2288      0.01358
    203       1.2302      0.01018
    204       1.3543     -0.06042
    205       1.4549     -0.01913
    206       1.9204     -0.00000
    207       1.9995     -0.00000
    208       2.0294     -0.00000
    209       2.0580     -0.00000
    210       2.1510     -0.00000
    211       2.4855     -0.00000
    212       3.5015     -0.00000
    213       3.9675     -0.00000
    214       4.2866     -0.00000
    215       4.3641     -0.00000
    216       4.3856     -0.00000
    217       4.5629     -0.00000
    218       4.8271     -0.00000
    219       5.3807     -0.00000
    220       5.6784     -0.00000
    221       5.8442     -0.00000
    222       5.8504     -0.00000
    223       5.8840     -0.00000
    224       5.9162     -0.00000
    225       5.9586     -0.00000
    226       6.0773     -0.00000
    227       6.5524      0.00000
    228       6.8392      0.00000

 k-point     2 :       0.5000    0.0000    0.0000
  band No.  band energies     occupation 
      1     -22.0860      2.00000
      2     -16.3800      2.00000
      3      -8.6201      2.00000
      4      -7.2711      2.00000
      5      -7.2453      2.00000
      6      -6.1358      2.00000
      7      -6.0250      2.00000
      8      -5.9073      2.00000
      9      -5.8430      2.00000
     10      -5.6806      2.00000
     11      -5.4532      2.00000
     12      -5.4398      2.00000
     13      -5.3156      2.00000
     14      -5.2505      2.00000
     15      -4.9760      2.00000
     16      -4.9542      2.00000
     17      -4.9176      2.00000
     18      -4.8991      2.00000
     19      -4.8791      2.00000
     20      -4.8519      2.00000
     21      -4.8240      2.00000
     22      -4.8064      2.00000
     23      -4.7751      2.00000
     24      -4.7551      2.00000
     25      -4.7523      2.00000
     26      -4.7257      2.00000
     27      -4.7152      2.00000
     28      -4.6505      2.00000
     29      -4.6067      2.00000
     30      -4.5751      2.00000
     31      -4.3946      2.00000
     32      -4.3762      2.00000
     33      -4.3683      2.00000
     34      -4.2895      2.00000
     35      -4.2642      2.00000
     36      -4.1025      2.00000
     37      -4.0960      2.00000
     38      -4.0690      2.00000
     39      -4.0409      2.00000
     40      -4.0039      2.00000
     41      -3.9726      2.00000
     42      -3.9121      2.00000
     43      -3.8804      2.00000
     44      -3.7813      2.00000
     45      -3.7635      2.00000
     46      -3.7277      2.00000
     47      -3.7149      2.00000
     48      -3.6846      2.00000
     49      -3.6667      2.00000
     50      -3.6269      2.00000
     51      -3.5097      2.00000
     52      -3.4510      2.00000
     53      -3.4332      2.00000
     54      -3.4269      2.00000
     55      -3.3796      2.00000
     56      -3.3630      2.00000
     57      -3.2352      2.00000
     58      -3.2086      2.00000
     59      -3.1799      2.00000
     60      -3.1484      2.00000
     61      -3.0866      2.00000
     62      -3.0598      2.00000
     63      -3.0368      2.00000
     64      -2.9788      2.00000
     65      -2.9691      2.00000
     66      -2.9462      2.00000
     67      -2.9150      2.00000
     68      -2.8534      2.00000
     69      -2.8436      2.00000
     70      -2.7725      2.00000
[...]
     86      -2.1895      2.00000
     87      -2.1771      2.00000
     88      -2.1646      2.00000
     89      -2.1481      2.00000
     90      -2.1297      2.00000
     91      -2.1167      2.00000
     92      -2.0958      2.00000
     93      -2.0689      2.00000
     94      -2.0015      2.00000
     95      -1.9689      2.00000
     96      -1.9394      2.00000
     97      -1.9139      2.00000
     98      -1.8831      2.00000
     99      -1.8272      2.00000
    100      -1.8156      2.00000
    101      -1.7608      2.00000
    102      -1.7549      2.00000
    103      -1.7358      2.00000
    104      -1.7036      2.00000
    105      -1.6821      2.00000
    106      -1.6679      2.00000
    107      -1.6624      2.00000
    108      -1.6494      2.00000
    109      -1.5790      2.00000
    110      -1.5635      2.00000
    111      -1.5122      2.00000
    112      -1.4748      2.00000
    113      -1.4212      2.00000
    114      -1.3743      2.00000
    115      -1.3026      2.00000
    116      -1.2815      2.00000
    117      -1.2361      2.00000
    118      -1.1951      2.00000
    119      -1.1353      2.00000
    120      -1.1004      2.00000
    121      -1.0665      2.00000
    122      -1.0594      2.00000
    123      -1.0356      2.00000
    124      -1.0254      2.00000
    125      -0.9930      2.00000
    126      -0.9854      2.00000
    127      -0.9539      2.00000
    128      -0.9320      2.00000
    129      -0.9002      2.00000
    130      -0.8771      2.00000
    131      -0.8527      2.00000
    132      -0.8152      2.00000
    133      -0.7739      2.00000
    134      -0.7354      2.00000
    135      -0.7071      2.00000
    136      -0.7029      2.00000
    137      -0.6929      2.00000
    138      -0.6565      2.00000
    139      -0.5800      2.00000
    140      -0.5516      2.00000
    141      -0.4974      2.00000
    142      -0.4327      2.00000
    143      -0.3944      2.00000
    144      -0.3033      2.00000
    145      -0.2710      2.00000
    146      -0.1916      2.00000
    147      -0.1369      2.00000
    148      -0.1095      2.00000
    149      -0.1043      2.00000
    150      -0.0722      2.00000
    151      -0.0351      2.00000
    152       0.0392      2.00000
    153       0.0404      2.00000
    154       0.0860      2.00000
    155       0.0940      2.00000
    156       0.0993      2.00000
    157       0.1157      2.00000
    158       0.1600      2.00000
    159       0.2090      2.00000
    160       0.2207      2.00000
    161       0.2506      2.00000
    162       0.2651      2.00000
    163       0.3260      2.00000
    164       0.3511      2.00000
    165       0.3695      2.00000
    166       0.4068      2.00001
    167       0.5209      2.00043
    168       0.5621      2.00121
    169       0.6067      2.00331
    170       0.6160      2.00404
    171       0.6609      2.00967
    172       0.6814      2.01382
    173       0.7094      2.02150
    174       0.7770      2.04923
    175       0.7898      2.05509
    176       0.8005      2.05972
    177       0.8328      2.06980
    178       0.8658      2.06722
    179       0.9136      2.01688
    180       0.9182      2.00785
    181       0.9346      1.96855
    182       1.0118      1.61126
    183       1.0331      1.46291
    184       1.0808      1.08061
    185       1.0837      1.05607
    186       1.1001      0.91752
    187       1.1315      0.65955
    188       1.1522      0.50318
    189       1.1553      0.48088
    190       1.1669      0.40130
    191       1.3140     -0.06690
    192       1.3249     -0.07004
    193       1.3632     -0.06598
    194       1.3747     -0.06187
    195       1.4053     -0.04844
    196       1.4846     -0.01750
    197       1.5793     -0.00295
    198       1.6921     -0.00018
    199       1.8190     -0.00000
    200       1.9730     -0.00000
    201       2.2663     -0.00000
    202       2.3208     -0.00000
    203       2.7778     -0.00000
    204       2.9348     -0.00000
    205       2.9565     -0.00000
    206       2.9876     -0.00000
    207       3.0070     -0.00000
    208       3.1890     -0.00000
    209       3.3918     -0.00000
    210       3.5213     -0.00000
    211       3.5503     -0.00000
    212       3.6089     -0.00000
    213       3.7171     -0.00000
    214       3.7945     -0.00000
    215       3.9425     -0.00000
    216       4.1695     -0.00000
    217       4.2086     -0.00000
    218       4.3917     -0.00000
    219       4.4246     -0.00000
    220       4.6191     -0.00000
    221       4.6491     -0.00000
    222       4.8162     -0.00000
    223       5.1522     -0.00000
    224       5.4650     -0.00000
    225       5.9674     -0.00000
    226       6.5032     -0.00000
    227       6.5469     -0.00000
    228       6.6023      0.00000


--------------------------------------------------------------------------------------------------------


 soft charge-density along one line, spin component           1
         0         1         2         3         4         5         6         7         8         9
 total charge-density along one line
 
 pseudopotential strength for first ion, spin component:           1
 10.101   0.016   0.004   0.011  -0.000  -0.004  -0.010   0.001
  0.016  -0.002  -0.000  -0.000  -0.000  -0.000  -0.000   0.000
  0.004  -0.000  -4.247  -0.008   0.001  -0.011  -0.003   0.000
  0.011  -0.000  -0.008  -4.264   0.005  -0.003  -0.017   0.001
 -0.000  -0.000   0.001   0.005  -4.244   0.000   0.001  -0.010
 -0.004  -0.000  -0.011  -0.003   0.000  -0.770  -0.000   0.000
 -0.010  -0.000  -0.003  -0.017   0.001  -0.000  -0.770   0.000
  0.001   0.000   0.000   0.001  -0.010   0.000   0.000  -0.770
 total augmentation occupancy for first ion, spin component:           1
  1.635  -0.901   0.021   0.028  -0.062   0.034   0.090  -0.029
 -0.901   1.285  -0.213  -0.586   0.123  -0.086  -0.242   0.045
  0.021  -0.213   0.856   0.194  -0.003   0.118   0.055  -0.007
  0.028  -0.586   0.194   1.339  -0.031   0.055   0.250  -0.016
 -0.062   0.123  -0.003  -0.031   0.803  -0.007  -0.016   0.103
  0.034  -0.086   0.118   0.055  -0.007   0.021   0.022  -0.004
  0.090  -0.242   0.055   0.250  -0.016   0.022   0.072  -0.009
 -0.029   0.045  -0.007  -0.016   0.103  -0.004  -0.009   0.015


------------------------ aborting loop because EDIFF is reached ----------------------------------------


    CHARGE:  cpu time    0.8389: real time    0.8454
    FORLOC:  cpu time    0.0515: real time    0.0518
    FORNL :  cpu time    3.4720: real time    3.4981
    STRESS:  cpu time   10.6862: real time   10.7678
    FORCOR:  cpu time    0.2070: real time    0.2084
    FORHAR:  cpu time    0.0908: real time    0.0915
    MIXING:  cpu time    0.0064: real time    0.0065
    OFIELD:  cpu time    0.0001: real time    0.0001

  FORCE on cell =-STRESS in cart. coord.  units (eV):
  Direction    XX          YY          ZZ          XY          YZ          ZX
  --------------------------------------------------------------------------------------
  Alpha Z   975.10247   975.10247   975.10247
  Ewald  110650.39491110637.79410************  -201.40701   244.89218   -97.95938
  Hartree117413.71630117380.06487************  -132.33283   104.03408   -54.88258
  E(xc)   -1665.61203 -1665.37531 -1672.99441    -0.48309     0.72949    -0.26565
  Local  ************************238690.22529   322.76551  -324.72926   145.26971
  n-local   121.59290   120.66425    85.38776    -0.95752     0.90482     0.44662
  augment  1895.08124  1893.50694  1933.85074     2.72426    -4.48459     0.95567
  Kinetic  5521.94416  5514.24005  5601.85379    10.41420   -21.28730     7.33286
  Fock        0.00000     0.00000     0.00000     0.00000     0.00000     0.00000
  -------------------------------------------------------------------------------------
  Total     -37.61237   -39.69857    -4.23297     0.72351     0.05944     0.89726
  in kB     -44.79696   -47.28166    -5.04153     0.86172     0.07079     1.06865
  external pressure =      -32.37 kB  Pullay stress =        0.00 kB


 VOLUME and BASIS-vectors are now :
 -----------------------------------------------------------------------------
  energy-cutoff  :      450.00
  volume of cell :     1345.22
      direct lattice vectors                 reciprocal lattice vectors
     7.296955120 -4.212899000  0.000000000     0.137043463  0.000000000  0.000000000
     0.000000000  8.425798000  0.000000000     0.068521732  0.118683121  0.000000000
     0.000000000  0.000000000 21.879635000     0.000000000  0.000000000  0.045704602

  length of vectors
     8.425798004  8.425798000 21.879635000     0.137043463  0.137043463  0.045704602


 FORCES acting on ions
    electron-ion (+dipol)            ewald-force                    non-local-force                 convergence-correction
 -----------------------------------------------------------------------------------------------
   0.392E+01 0.898E+01 -.871E+03   -.402E+01 -.142E+02 0.858E+03   0.159E+00 0.325E+01 0.107E+02   -.315E-02 0.823E-03 0.560E-01
   -.845E+02 0.682E+02 -.159E+04   0.870E+02 -.674E+02 0.161E+04   -.186E+01 -.758E+00 -.222E+02   -.211E-01 0.175E-01 0.419E-01
   0.669E+02 -.109E+03 -.155E+04   -.777E+02 0.131E+03 0.161E+04   0.108E+02 -.209E+02 -.586E+02   0.921E-02 -.163E-01 0.165E-01
   -.356E+00 -.341E+00 0.234E+04   0.418E+00 0.320E+00 -.234E+04   0.161E-02 -.470E-01 -.121E+01   -.225E-01 0.288E-01 0.231E-01
   -.747E-01 0.450E+00 0.234E+04   0.351E-01 -.477E+00 -.233E+04   -.307E-02 -.116E-01 -.109E+01   0.871E-02 -.240E-01 0.165E-01
   0.690E-01 -.576E+00 0.234E+04   -.189E+00 0.617E+00 -.233E+04   0.402E-01 -.242E-01 -.111E+01   0.187E-01 0.361E-02 0.230E-01
   -.134E+00 -.337E+00 0.234E+04   0.117E+00 0.282E+00 -.233E+04   0.763E-02 0.434E-01 -.116E+01   0.937E-02 0.365E-01 0.275E-01
   0.417E+00 -.379E+00 0.234E+04   -.451E+00 0.324E+00 -.233E+04   0.167E-01 0.200E-01 -.124E+01   -.178E-02 0.601E-01 0.178E-01
   -.462E+00 0.388E+00 0.234E+04   0.446E+00 -.424E+00 -.233E+04   -.389E-02 0.108E-01 -.122E+01   0.535E-01 0.916E-02 0.456E-02
   0.689E+00 -.213E+00 0.234E+04   -.536E+00 0.150E+00 -.233E+04   -.890E-01 0.846E-01 -.110E+01   -.303E-01 -.361E-01 0.331E-01
   0.245E+00 0.239E+00 0.234E+04   -.225E+00 -.187E+00 -.234E+04   -.720E-02 -.298E-02 -.124E+01   -.197E-01 -.128E-01 0.168E-01
   -.352E+00 0.717E+00 0.234E+04   0.385E+00 -.606E+00 -.233E+04   0.164E-02 -.164E-01 -.103E+01   -.160E-01 -.653E-01 0.204E-01
   -.267E+01 0.527E+00 0.850E+03   0.257E+01 -.473E+00 -.850E+03   0.145E+00 -.390E-01 -.273E+00   -.877E-02 -.498E-01 0.358E-01
   0.621E+01 -.117E+01 0.860E+03   -.633E+01 0.124E+01 -.860E+03   0.541E-01 -.259E-01 -.160E+00   -.175E-01 -.152E-02 0.289E-01
   -.230E+01 0.425E+01 0.861E+03   0.239E+01 -.442E+01 -.861E+03   0.451E-02 0.487E-01 -.308E+00   -.300E-02 0.104E-02 0.339E-01
   0.355E+01 -.185E+01 0.859E+03   -.351E+01 0.178E+01 -.859E+03   -.166E+00 0.789E-01 -.261E+00   -.221E-01 0.248E-01 0.586E-01
   -.285E+01 0.310E+01 0.854E+03   0.276E+01 -.309E+01 -.853E+03   0.138E+00 -.848E-01 -.139E+00   0.228E-01 -.240E-01 0.309E-01
   -.515E+01 -.759E+01 0.859E+03   0.512E+01 0.762E+01 -.858E+03   0.136E+00 0.905E-01 -.174E+00   0.124E-01 0.216E-01 0.330E-01
   0.254E+01 0.164E+01 0.852E+03   -.250E+01 -.153E+01 -.852E+03   -.651E-01 -.155E+00 -.890E-01   -.212E-01 0.249E-01 0.280E-02
   -.112E+01 -.528E+00 0.861E+03   0.115E+01 0.553E+00 -.860E+03   0.342E-01 0.321E-01 -.349E+00   -.430E-02 0.256E-01 0.325E-03
   0.173E+01 0.268E+01 0.852E+03   -.169E+01 -.251E+01 -.852E+03   -.117E+00 -.797E-01 -.121E+00   0.415E-01 -.229E-01 -.186E-01
   -.565E+01 -.668E+01 -.658E+03   0.559E+01 0.659E+01 0.658E+03   0.869E-01 0.256E+00 -.239E+00   -.193E-01 -.560E-02 -.134E-02
   0.118E+02 0.169E+01 -.631E+03   -.118E+02 -.168E+01 0.631E+03   -.222E+00 -.987E-01 -.283E+00   -.640E-02 0.346E-01 0.974E-02
   0.564E-01 0.135E+01 -.618E+03   -.187E+00 -.878E+00 0.618E+03   0.341E-01 -.626E+00 0.724E+00   0.370E-02 0.244E-01 -.117E-01
   -.124E+02 0.148E+02 -.635E+03   0.121E+02 -.141E+02 0.635E+03   0.448E+00 -.625E+00 -.245E+00   0.205E-02 0.781E-02 -.158E-01
   0.153E+02 -.929E+01 -.640E+03   -.147E+02 0.923E+01 0.640E+03   -.744E+00 0.339E+00 -.306E+00   0.419E-02 -.268E-01 0.125E-01
   -.392E+01 -.730E+01 -.620E+03   0.373E+01 0.715E+01 0.619E+03   0.219E+00 0.323E-01 0.347E+00   0.250E-01 -.564E-02 -.228E-01
   -.923E+01 0.109E+02 -.628E+03   0.924E+01 -.109E+02 0.627E+03   0.266E+00 -.429E+00 -.377E+00   0.587E-02 0.306E-01 0.149E-01
   -.119E+01 0.733E+01 -.608E+03   0.114E+01 -.737E+01 0.608E+03   0.254E+00 -.116E+00 0.890E+00   -.319E-01 -.734E-02 -.181E-02
   0.246E+01 -.837E+01 -.643E+03   -.243E+01 0.819E+01 0.643E+03   -.104E+00 0.417E+00 -.210E+00   0.152E-01 -.462E-01 0.131E-01
   -.318E+02 -.409E+01 -.218E+04   0.321E+02 0.414E+01 0.217E+04   -.184E+00 -.120E+00 0.124E+01   -.103E-01 0.133E-01 0.172E-01
   0.142E+02 0.293E+02 -.213E+04   -.145E+02 -.298E+02 0.212E+04   0.399E+00 0.617E+00 0.177E+01   -.103E-01 0.292E-01 0.376E-02
   0.480E+02 -.815E+01 -.214E+04   -.481E+02 0.811E+01 0.214E+04   -.342E+00 0.186E+00 0.991E+00   0.249E-01 -.203E-01 0.193E-01
   -.114E+02 -.403E+01 -.217E+04   0.114E+02 0.373E+01 0.217E+04   0.170E+00 0.326E+00 0.117E+01   0.639E-02 -.109E-02 0.951E-02
   0.148E+02 0.434E+01 -.215E+04   -.149E+02 -.466E+01 0.215E+04   0.116E+00 0.479E+00 0.129E+01   0.212E-01 0.331E-02 -.447E-02
   0.771E+02 0.648E+02 -.199E+04   -.800E+02 -.629E+02 0.200E+04   0.260E+01 -.162E+01 -.286E+01   0.495E-02 -.214E-01 0.101E-01
   -.540E+02 -.596E+02 -.210E+04   0.556E+02 0.618E+02 0.210E+04   -.175E+01 -.226E+01 0.206E+01   0.119E-02 -.173E-01 0.184E-01
   -.630E+02 0.933E+02 -.203E+04   0.634E+02 -.939E+02 0.203E+04   -.512E+00 0.830E+00 -.692E-01   -.204E-01 0.220E-01 -.491E-02
   0.128E+02 -.681E+02 -.209E+04   -.129E+02 0.690E+02 0.208E+04   0.600E-01 -.711E+00 0.158E+01   -.385E-02 -.244E-01 0.236E-01
 -----------------------------------------------------------------------------------------------
   -.993E+01 0.217E+02 0.742E+02   -.462E-13 0.000E+00 -.546E-11   0.999E+01 -.216E+02 -.748E+02   -.292E-02 -.899E-02 0.592E+00
 
 
 POSITION                                       TOTAL-FORCE (eV/Angst)
 -----------------------------------------------------------------------------------
      5.11453      0.69741     10.43436         0.052502     -1.935717     -2.606190
      6.61225     -0.57096     10.24769         0.582626      0.100231     -0.404987
      4.93105      1.08151     11.49358        -0.045813      0.940766      2.134283
      7.20031     -1.38846      1.62732         0.039663     -0.042817      0.122025
      2.33567      1.42014      1.62732        -0.035669     -0.065461      0.111305
      4.76799      0.01584      1.62732        -0.063034      0.016919      0.122820
      7.20031      1.42015      1.62732        -0.001626      0.022113      0.145633
      2.33567      4.22875      1.62732        -0.021613      0.021498      0.158598
      4.76799      2.82445      1.62732         0.032448     -0.018913      0.124893
      2.33567      7.03734      1.62732         0.032364     -0.018100      0.044784
      4.76799      5.63304      1.62732        -0.008627      0.033355      0.140657
      7.20031      4.22874      1.62732         0.016665      0.026434      0.059372
      1.52490      0.01584      3.92052         0.038949     -0.037573      0.020790
      3.95722     -1.38846      3.92052        -0.084226      0.041555     -0.032469
      6.38953     -2.79276      3.92052         0.087117     -0.115656     -0.143903
      1.52490      2.82445      3.92052        -0.150602      0.024015     -0.031773
      3.95722      1.42015      3.92052         0.067169     -0.099675      0.084774
      6.38953      0.01585      3.92052         0.109796      0.138736      0.146781
      1.52490      5.63305      3.92052        -0.048290     -0.029948      0.168118
      3.95722      4.22874      3.92052         0.050045      0.079696     -0.069314
      6.38953      2.82445      3.92052        -0.033102      0.062174      0.049493
      0.71775      4.20082      6.27293         0.004723      0.156056     -0.487354
      3.15136      5.62260      6.22427        -0.277687     -0.062923     -0.620585
      5.58984     -1.36208      6.17756        -0.094445     -0.137343      0.435787
      0.69639      1.42788      6.21140         0.076695      0.079749      0.249444
      3.17869     -0.01561      6.24093        -0.123626      0.253629     -0.315370
      0.69609      7.02549      6.19999         0.044284     -0.126773     -0.123116
      5.56166      4.24791      6.22083         0.273685     -0.416984     -0.655492
      3.12895      2.81624      6.16078         0.169551     -0.169287      0.378187
      5.59900      1.38761      6.25579        -0.065432      0.188733     -0.459357
      2.35910      4.18981      8.51822         0.114286     -0.059514     -0.182371
      4.76034      5.60312      8.41733         0.033184      0.144654      0.475247
      2.36992      1.37272      8.50925        -0.370801      0.120817     -0.321383
      7.20227      4.18694      8.48872         0.139497      0.014586      0.091855
      2.33697      6.98768      8.45666        -0.009316      0.162095      0.405072
      4.70382      0.02757      8.66822        -0.229039      0.320498      0.060273
      7.28227      1.43518      8.55342        -0.176237     -0.013121     -0.225482
      7.23515     -1.48425      8.56869        -0.115108      0.193515      0.755965
      4.77838      2.81662      8.44269        -0.010954      0.207983      0.192990
 -----------------------------------------------------------------------------------
    total drift:                                0.064426      0.114486      0.032079
  FORCES: max atom, RMS     3.246843    0.726344
  Number: max atom                 1
  FORCE total and by dimension    4.536018    2.606190


--------------------------------------------------------------------------------------------------------



  FREE ENERGIE OF THE ION-ELECTRON SYSTEM (eV)
  ---------------------------------------------------
  free  energy   TOTEN  =      -230.38506489 eV

  energy  without entropy=     -230.37431027  energy(sigma->0) =     -230.38148002
 
 d Force = 0.8648841E-01[-0.128E-01, 0.186E+00]  d Energy = 0.9109610E-01-0.461E-02
 d Force =-0.4405757E+01[-0.491E+01,-0.390E+01]  d Ewald  =-0.4400652E+01-0.510E-02


--------------------------------------------------------------------------------------------------------


    POTLOK:  cpu time    0.1934: real time    0.2410


--------------------------------------------------------------------------------------------------------


 stress matrix after NEB project (eV)
    -37.61237      0.72351      0.89726
      0.72351    -39.69857      0.05944
      0.89726      0.05944     -4.23297
  FORCES: max atom, RMS     3.246843    0.726344
  FORCE total and by dimension    4.536018    2.606190
  Stress total and by dimension   54.874852   39.698573
 Quasi-Newton relaxation of ions (Broydens 2nd method)
  g(Force)  = 0.397E+00   g(Stress)= 0.000E+00

 retain information from N=  2 steps
 eigenvalues of (default step * inverse Hessian matrix)
  average eigenvalue of G=   0.6207
 eigenvalue spectrum of G is  0.6485  0.5928
  RESET_HESSIAN           0


--------------------------------------------------------------------------------------------------------


    WAVPRE:  cpu time    0.0798: real time    0.2115
    FEWALD:  cpu time    0.0010: real time    0.0010

 real space projection operators:
  total allocation   :      13560.03 KBytes
  max/ min on nodes  :       6787.61       6772.42

    ORTHCH:  cpu time    1.4502: real time    1.4699
     LOOP+:  cpu time  117.1629: real time  118.5625


--------------------------------------- Iteration      4(   1)  ---------------------------------------


