 running on    8 total cores
 distrk:  each k-point on    8 cores,    1 groups
 distr:  one band on    2 cores,    4 groups
 using from now: INCAR     
 vasp.5.4.4 16052018 (build Apr 24 2014 20:13:14) complex standard
 Contain Constrained Minimization Technique (TS), Periodic NBO, VASPsol, libbeef, VASP2WANNIER90, Constrained Cell Relaxation
 POSCAR found type information on POSCAR  C  O  Pt
 POSCAR found :  3 types and      39 ions
 scaLAPACK will be used
 LDA part: xc-table for Pade appr. of Perdew
 POSCAR found type information on POSCAR  C  O  Pt
 POSCAR found :  3 types and      39 ions
 POSCAR, INCAR and KPOINTS ok, starting setup
 FFT: planning ...
 WAVECAR not read
 entering main loop
       N       E                     dE             d eps       ncg     rms          rms(c)
DAV:   1     0.241912286854E+04    0.24191E+04   -0.15949E+05  1824   0.129E+03
DAV:   2    -0.630511610489E+02   -0.24822E+04   -0.23031E+04  2112   0.286E+02
DAV:   3    -0.240722186928E+03   -0.17767E+03   -0.16141E+03  2176   0.690E+01
DAV:   4    -0.248397292111E+03   -0.76751E+01   -0.73762E+01  2376   0.137E+01
DAV:   5    -0.248612148593E+03   -0.21486E+00   -0.21297E+00  2352   0.235E+00    0.274E+01
RMM:   6    -0.246887586461E+03    0.17246E+01   -0.54235E+01  1830   0.148E+01    0.310E+01
RMM:   7    -0.244527595019E+03    0.23600E+01   -0.33108E+01  1830   0.902E+00    0.216E+01
RMM:   8    -0.244534099541E+03   -0.65045E-02   -0.10146E+01  1827   0.480E+00    0.230E+01
RMM:   9    -0.231845975890E+03    0.12688E+02   -0.57878E+00  1831   0.398E+00    0.904E+00
RMM:  10    -0.230543977266E+03    0.13020E+01   -0.17651E+00  1831   0.216E+00    0.508E+00
RMM:  11    -0.230237831930E+03    0.30615E+00   -0.44997E-01  1831   0.103E+00    0.333E+00
RMM:  12    -0.230070232346E+03    0.16760E+00   -0.18538E-01  1848   0.672E-01    0.193E+00
RMM:  13    -0.230080917502E+03   -0.10685E-01   -0.12214E-01  1831   0.588E-01    0.196E+00
RMM:  14    -0.230035479789E+03    0.45438E-01   -0.95593E-02  1832   0.530E-01    0.103E+00
RMM:  15    -0.230028440827E+03    0.70390E-02   -0.37031E-02  1831   0.333E-01    0.767E-01
RMM:  16    -0.230019732500E+03    0.87083E-02   -0.90079E-03  1831   0.163E-01    0.265E-01
RMM:  17    -0.230019175655E+03    0.55684E-03   -0.18240E-03  1820   0.727E-02    0.166E-01
RMM:  18    -0.230019642403E+03   -0.46675E-03   -0.10749E-03  1810   0.553E-02    0.141E-01
RMM:  19    -0.230019636395E+03    0.60086E-05   -0.51842E-04  1493   0.398E-02
   1 F= -.23001964E+03 E0= -.23001798E+03  d E =-.230020E+03
 BRION: g(F)=  0.351E+00 g(S)=  0.000E+00
 bond charge predicted
       N       E                     dE             d eps       ncg     rms          rms(c)
DAV:   1    -0.230247535297E+03   -0.22789E+00   -0.34121E+01  1852   0.107E+01    0.762E-01
RMM:   2    -0.230339594838E+03   -0.92060E-01   -0.62674E-01  1836   0.168E+00    0.165E+00
RMM:   3    -0.230318307021E+03    0.21288E-01   -0.49019E-02  1853   0.389E-01    0.124E+00
RMM:   4    -0.230298579768E+03    0.19727E-01   -0.11688E-02  1849   0.180E-01    0.521E-01
RMM:   5    -0.230295728702E+03    0.28511E-02   -0.47756E-03  1836   0.115E-01    0.404E-01
RMM:   6    -0.230295042881E+03    0.68582E-03   -0.57313E-03  1832   0.127E-01    0.294E-01
RMM:   7    -0.230294484428E+03    0.55845E-03   -0.45075E-03  1831   0.116E-01    0.190E-01
RMM:   8    -0.230294034499E+03    0.44993E-03   -0.13160E-03  1821   0.627E-02    0.105E-01
RMM:   9    -0.230293968793E+03    0.65706E-04   -0.26597E-04  1061   0.299E-02
   2 F= -.23029397E+03 E0= -.23029103E+03  d E =-.274332E+00
 BRION: g(F)=  0.252E+00 g(S)=  0.000E+00 retain N=  1 mean eig= 1.14
 eig:   1.143
 bond charge predicted
       N       E                     dE             d eps       ncg     rms          rms(c)
DAV:   1    -0.230354256082E+03   -0.60222E-01   -0.13496E+01  1832   0.700E+00    0.620E-01
RMM:   2    -0.230401335994E+03   -0.47080E-01   -0.46338E-01  1844   0.116E+00    0.835E-01
RMM:   3    -0.230394535040E+03    0.68010E-02   -0.20733E-02  1843   0.249E-01    0.689E-01
RMM:   4    -0.230391039773E+03    0.34953E-02   -0.41123E-03  1862   0.105E-01    0.538E-01
RMM:   5    -0.230388047101E+03    0.29927E-02   -0.41036E-03  1829   0.995E-02    0.424E-01
RMM:   6    -0.230387330942E+03    0.71616E-03   -0.81963E-03  1831   0.146E-01    0.340E-01
RMM:   7    -0.230385408620E+03    0.19223E-02   -0.30269E-03  1827   0.921E-02    0.133E-01
RMM:   8    -0.230385192326E+03    0.21629E-03   -0.70072E-04  1720   0.451E-02    0.906E-02
RMM:   9    -0.230385085730E+03    0.10660E-03   -0.18660E-04  1031   0.251E-02    0.485E-02
RMM:  10    -0.230385064895E+03    0.20835E-04   -0.77027E-05   968   0.173E-02
   3 F= -.23038506E+03 E0= -.23038148E+03  d E =-.910961E-01
 BRION: g(F)=  0.397E+00 g(S)=  0.000E+00 retain N=  2 mean eig= 0.62
 eig:   0.648  0.593
 bond charge predicted
       N       E                     dE             d eps       ncg     rms          rms(c)
[mpiexec@node11] Sending Ctrl-C to processes as requested
[mpiexec@node11] Press Ctrl-C again to force abort
