metal                                   
           1
     7.296955   -4.212899    0.000000
     0.000000    8.425798    0.000000
     0.000000    0.000000   21.879635
   C    O    Pt
   1   2  36
Direct configuration=     1
   0.70210776  0.43837696  0.47655401
   0.90384186  0.38380067  0.46951904
   0.67397122  0.46523285  0.52644254
   0.98675500  0.32859100  0.07437600
   0.32008800  0.32859100  0.07437600
   0.65342200  0.32859100  0.07437600
   0.98675500  0.66192500  0.07437600
   0.32008800  0.66192500  0.07437600
   0.65342200  0.66192500  0.07437600
   0.32008800  0.99525800  0.07437600
   0.65342200  0.99525800  0.07437600
   0.98675500  0.99525800  0.07437600
   0.20897700  0.10636900  0.17918600
   0.54231100  0.10636900  0.17918600
   0.87564400  0.10636900  0.17918600
   0.20897700  0.43970300  0.17918600
   0.54231100  0.43970300  0.17918600
   0.87564400  0.43970300  0.17918600
   0.20897700  0.77303600  0.17918600
   0.54231100  0.77303600  0.17918600
   0.87564400  0.77303600  0.17918600
   0.09809855  0.54636735  0.28774954
   0.43459920  0.88515994  0.28620136
   0.76645202  0.22193098  0.28160515
   0.09453260  0.21659419  0.28343849
   0.43636521  0.21447699  0.28596840
   0.09546722  0.88236771  0.28376648
   0.75989243  0.88705786  0.28614350
   0.42780523  0.54933651  0.28079405
   0.76756216  0.54736403  0.28693063
   0.32265887  0.65946776  0.38952163
   0.65179908  0.98955593  0.38319037
   0.32690525  0.32574464  0.38957605
   0.98579015  0.98979211  0.38772084
   0.32056762  0.98839796  0.38546448
   0.64538345  0.32468822  0.39590376
   0.99914905  0.67004949  0.39115045
   0.99253853  0.31879702  0.38989663
   0.65520901  0.66126868  0.38532971
Direct configuration=     2
   0.70170433  0.43475631  0.47598333
   0.90516528  0.38460162  0.46871469
   0.67463625  0.46629716  0.52644467
   0.98675500  0.32859100  0.07437600
   0.32008800  0.32859100  0.07437600
   0.65342200  0.32859100  0.07437600
   0.98675500  0.66192500  0.07437600
   0.32008800  0.66192500  0.07437600
   0.65342200  0.66192500  0.07437600
   0.32008800  0.99525800  0.07437600
   0.65342200  0.99525800  0.07437600
   0.98675500  0.99525800  0.07437600
   0.20897700  0.10636900  0.17918600
   0.54231100  0.10636900  0.17918600
   0.87564400  0.10636900  0.17918600
   0.20897700  0.43970300  0.17918600
   0.54231100  0.43970300  0.17918600
   0.87564400  0.43970300  0.17918600
   0.20897700  0.77303600  0.17918600
   0.54231100  0.77303600  0.17918600
   0.87564400  0.77303600  0.17918600
   0.09830181  0.54733973  0.28707810
   0.43266489  0.88380261  0.28501981
   0.76623965  0.22167659  0.28203420
   0.09517412  0.21694733  0.28370863
   0.43590545  0.21551475  0.28549602
   0.09534985  0.88176113  0.28348753
   0.76149339  0.88582061  0.28488946
   0.42841854  0.54884238  0.28128686
   0.76743557  0.54800852  0.28628098
   0.32304359  0.65900269  0.38942926
   0.65223093  0.99075317  0.38427264
   0.32559893  0.32548560  0.38915654
   0.98664144  0.99021494  0.38789645
   0.32030931  0.98909449  0.38616605
   0.64516338  0.32540890  0.39622033
   0.99841008  0.66956658  0.39105150
   0.99184788  0.31933243  0.39102952
   0.65492939  0.66142147  0.38569002
Direct configuration=     3
   0.70091323  0.43322760  0.47689813
   0.90616588  0.38532016  0.46836671
   0.67576856  0.46624103  0.52530947
   0.98675500  0.32859100  0.07437600
   0.32008800  0.32859100  0.07437600
   0.65342200  0.32859100  0.07437600
   0.98675500  0.66192500  0.07437600
   0.32008800  0.66192500  0.07437600
   0.65342200  0.66192500  0.07437600
   0.32008800  0.99525800  0.07437600
   0.65342200  0.99525800  0.07437600
   0.98675500  0.99525800  0.07437600
   0.20897700  0.10636900  0.17918600
   0.54231100  0.10636900  0.17918600
   0.87564400  0.10636900  0.17918600
   0.20897700  0.43970300  0.17918600
   0.54231100  0.43970300  0.17918600
   0.87564400  0.43970300  0.17918600
   0.20897700  0.77303600  0.17918600
   0.54231100  0.77303600  0.17918600
   0.87564400  0.77303600  0.17918600
   0.09836235  0.54774748  0.28670175
   0.43187299  0.88324405  0.28447795
   0.76605060  0.22136928  0.28234297
   0.09543630  0.21718363  0.28388974
   0.43561843  0.21595598  0.28523902
   0.09539472  0.88150483  0.28336813
   0.76218908  0.88524947  0.28432035
   0.42880163  0.54864075  0.28157580
   0.76730590  0.54833913  0.28591838
   0.32329861  0.65890856  0.38932187
   0.65237346  0.99118275  0.38471064
   0.32478152  0.32530958  0.38891197
   0.98702463  0.99043172  0.38797360
   0.32026617  0.98945287  0.38650850
   0.64462791  0.32558555  0.39617737
   0.99798785  0.66932564  0.39093056
   0.99153011  0.31961016  0.39162836
   0.65484628  0.66170862  0.38586992
