       N       E                     dE             d eps       ncg     rms          rms(c)
DAV:   1     0.241658858756E+04    0.24166E+04   -0.15950E+05  1824   0.129E+03
DAV:   2    -0.622957537626E+02   -0.24789E+04   -0.23008E+04  2104   0.286E+02
DAV:   3    -0.240475018007E+03   -0.17818E+03   -0.16194E+03  2192   0.689E+01
DAV:   4    -0.248182994309E+03   -0.77080E+01   -0.74057E+01  2328   0.137E+01
DAV:   5    -0.248401198550E+03   -0.21820E+00   -0.21699E+00  2288   0.240E+00    0.275E+01
RMM:   6    -0.246873569189E+03    0.15276E+01   -0.55411E+01  1832   0.149E+01    0.293E+01
RMM:   7    -0.237409994776E+03    0.94636E+01   -0.33140E+01  1831   0.905E+00    0.175E+01
RMM:   8    -0.234896927014E+03    0.25131E+01   -0.71588E+00  1830   0.467E+00    0.175E+01
RMM:   9    -0.233508327280E+03    0.13886E+01   -0.22018E+00  1831   0.232E+00    0.148E+01
RMM:  10    -0.230617901161E+03    0.28904E+01   -0.14797E+00  1831   0.190E+00    0.488E+00
RMM:  11    -0.230196245648E+03    0.42166E+00   -0.45433E-01  1831   0.109E+00    0.299E+00
RMM:  12    -0.230101779248E+03    0.94466E-01   -0.18781E-01  1831   0.690E-01    0.281E+00
RMM:  13    -0.230054306788E+03    0.47472E-01   -0.16772E-01  1831   0.683E-01    0.212E+00
RMM:  14    -0.230004523189E+03    0.49784E-01   -0.10309E-01  1831   0.554E-01    0.107E+00
RMM:  15    -0.229989905453E+03    0.14618E-01   -0.32706E-02  1830   0.302E-01    0.517E-01
RMM:  16    -0.229987325134E+03    0.25803E-02   -0.62199E-03  1830   0.134E-01    0.302E-01
RMM:  17    -0.229986385534E+03    0.93960E-03   -0.22096E-03  1820   0.804E-02    0.179E-01
RMM:  18    -0.229986472389E+03   -0.86856E-04   -0.11250E-03  1805   0.561E-02    0.151E-01
RMM:  19    -0.229986354345E+03    0.11804E-03   -0.48051E-04  1452   0.385E-02    0.645E-02
RMM:  20    -0.229986444844E+03   -0.90499E-04   -0.14046E-04  1005   0.214E-02
   1 F= -.22998644E+03 E0= -.22998029E+03  d E =-.229986E+03
       N       E                     dE             d eps       ncg     rms          rms(c)
DAV:   1    -0.230234149094E+03   -0.24779E+00   -0.33024E+01  1856   0.103E+01    0.748E-01
RMM:   2    -0.230324982384E+03   -0.90833E-01   -0.53459E-01  1831   0.159E+00    0.174E+00
RMM:   3    -0.230291409205E+03    0.33573E-01   -0.43510E-02  1871   0.361E-01    0.986E-01
RMM:   4    -0.230277697894E+03    0.13711E-01   -0.14145E-02  1838   0.202E-01    0.509E-01
RMM:   5    -0.230275181976E+03    0.25159E-02   -0.45101E-03  1834   0.112E-01    0.366E-01
RMM:   6    -0.230274633900E+03    0.54808E-03   -0.59677E-03  1829   0.129E-01    0.293E-01
RMM:   7    -0.230274630506E+03    0.33937E-05   -0.39422E-03  1830   0.106E-01    0.246E-01
RMM:   8    -0.230273815292E+03    0.81521E-03   -0.12709E-03  1817   0.621E-02    0.935E-02
RMM:   9    -0.230273719681E+03    0.95611E-04   -0.26114E-04  1062   0.291E-02
   2 F= -.23027372E+03 E0= -.23026726E+03  d E =-.287275E+00
       N       E                     dE             d eps       ncg     rms          rms(c)
DAV:   1    -0.230351511690E+03   -0.77696E-01   -0.27093E+01  1824   0.967E+00    0.747E-01
RMM:   2    -0.230450659764E+03   -0.99148E-01   -0.70504E-01  1844   0.154E+00    0.159E+00
RMM:   3    -0.230416893824E+03    0.33766E-01   -0.35531E-02  1847   0.325E-01    0.847E-01
RMM:   4    -0.230407531417E+03    0.93624E-02   -0.10572E-02  1837   0.177E-01    0.516E-01
RMM:   5    -0.230405096072E+03    0.24353E-02   -0.64339E-03  1834   0.130E-01    0.444E-01
RMM:   6    -0.230404789883E+03    0.30619E-03   -0.98668E-03  1832   0.161E-01    0.456E-01
RMM:   7    -0.230402429577E+03    0.23603E-02   -0.41552E-03  1831   0.108E-01    0.206E-01
RMM:   8    -0.230401895831E+03    0.53375E-03   -0.10610E-03  1812   0.562E-02    0.956E-02
RMM:   9    -0.230401796748E+03    0.99083E-04   -0.24708E-04  1058   0.286E-02
   3 F= -.23040180E+03 E0= -.23039498E+03  d E =-.128077E+00
       N       E                     dE             d eps       ncg     rms          rms(c)
DAV:   1    -0.230535695894E+03   -0.13380E+00   -0.60614E+01  1824   0.142E+01    0.117E+00
RMM:   2    -0.230773957072E+03   -0.23826E+00   -0.11375E+00  1837   0.224E+00    0.310E+00
RMM:   3    -0.230643887103E+03    0.13007E+00   -0.88861E-02  1856   0.516E-01    0.130E+00
RMM:   4    -0.230621595208E+03    0.22292E-01   -0.31721E-02  1835   0.305E-01    0.795E-01
RMM:   5    -0.230617396793E+03    0.41984E-02   -0.13600E-02  1833   0.196E-01    0.658E-01
RMM:   6    -0.230614895873E+03    0.25009E-02   -0.15508E-02  1832   0.208E-01    0.469E-01
RMM:   7    -0.230613507457E+03    0.13884E-02   -0.76733E-03  1832   0.147E-01    0.333E-01
RMM:   8    -0.230611951970E+03    0.15555E-02   -0.24409E-03  1825   0.861E-02    0.139E-01
RMM:   9    -0.230611683009E+03    0.26896E-03   -0.56509E-04  1578   0.410E-02    0.700E-02
RMM:  10    -0.230611628273E+03    0.54736E-04   -0.16384E-04   979   0.236E-02
   4 F= -.23061163E+03 E0= -.23060402E+03  d E =-.209832E+00
       N       E                     dE             d eps       ncg     rms          rms(c)
DAV:   1    -0.230645931823E+03   -0.34249E-01   -0.31687E+00  1840   0.343E+00    0.271E-01
RMM:   2    -0.230654146409E+03   -0.82146E-02   -0.67426E-02  1836   0.511E-01    0.393E-01
RMM:   3    -0.230654096037E+03    0.50371E-04   -0.44661E-03  1854   0.118E-01    0.426E-01
RMM:   4    -0.230651865486E+03    0.22306E-02   -0.15711E-03  1833   0.668E-02    0.195E-01
RMM:   5    -0.230651470004E+03    0.39548E-03   -0.66366E-04  1685   0.449E-02    0.115E-01
RMM:   6    -0.230651487107E+03   -0.17102E-04   -0.62621E-04  1645   0.434E-02    0.102E-01
RMM:   7    -0.230651409728E+03    0.77379E-04   -0.37583E-04  1281   0.350E-02    0.655E-02
RMM:   8    -0.230651368673E+03    0.41054E-04   -0.11195E-04   969   0.209E-02
   5 F= -.23065137E+03 E0= -.23064352E+03  d E =-.397404E-01
       N       E                     dE             d eps       ncg     rms          rms(c)
