metal                                   
           1
     7.296955   -4.212899    0.000000
     0.000000    8.425798    0.000000
     0.000000    0.000000   21.879635
   C    O    Pt
   1   2  36
Direct configuration=     1
   0.69771676  0.43860144  0.47890949
   0.91080678  0.38358788  0.46484132
   0.66958022  0.46545732  0.52879802
   0.98675500  0.32859100  0.07437600
   0.32008800  0.32859100  0.07437600
   0.65342200  0.32859100  0.07437600
   0.98675500  0.66192500  0.07437600
   0.32008800  0.66192500  0.07437600
   0.65342200  0.66192500  0.07437600
   0.32008800  0.99525800  0.07437600
   0.65342200  0.99525800  0.07437600
   0.98675500  0.99525800  0.07437600
   0.20897700  0.10636900  0.17918600
   0.54231100  0.10636900  0.17918600
   0.87564400  0.10636900  0.17918600
   0.20897700  0.43970300  0.17918600
   0.54231100  0.43970300  0.17918600
   0.87564400  0.43970300  0.17918600
   0.20897700  0.77303600  0.17918600
   0.54231100  0.77303600  0.17918600
   0.87564400  0.77303600  0.17918600
   0.09321142  0.55123809  0.28417763
   0.43330797  0.88177914  0.27913966
   0.76016870  0.22083529  0.28786822
   0.09935387  0.22252839  0.28195325
   0.43632810  0.22152636  0.28062446
   0.10199281  0.88066020  0.27854587
   0.75970899  0.88163335  0.28382842
   0.42807901  0.54911541  0.28081251
   0.76581854  0.54684980  0.28763922
   0.32348482  0.66243495  0.39096146
   0.65493064  0.98906532  0.39102097
   0.31721276  0.32404921  0.38238766
   0.98519017  0.98816796  0.38897432
   0.32343761  0.99515221  0.38557007
   0.64295740  0.32472159  0.39561007
   0.99701394  0.66289302  0.38214618
   0.99900350  0.32092990  0.39162581
   0.65682901  0.66456740  0.39338134
Direct configuration=     2
   0.69470932  0.43564313  0.47794251
   0.91191135  0.38421952  0.46465007
   0.67109749  0.46585949  0.52854134
   0.98675500  0.32859100  0.07437600
   0.32008800  0.32859100  0.07437600
   0.65342200  0.32859100  0.07437600
   0.98675500  0.66192500  0.07437600
   0.32008800  0.66192500  0.07437600
   0.65342200  0.66192500  0.07437600
   0.32008800  0.99525800  0.07437600
   0.65342200  0.99525800  0.07437600
   0.98675500  0.99525800  0.07437600
   0.20897700  0.10636900  0.17918600
   0.54231100  0.10636900  0.17918600
   0.87564400  0.10636900  0.17918600
   0.20897700  0.43970300  0.17918600
   0.54231100  0.43970300  0.17918600
   0.87564400  0.43970300  0.17918600
   0.20897700  0.77303600  0.17918600
   0.54231100  0.77303600  0.17918600
   0.87564400  0.77303600  0.17918600
   0.09476318  0.54996753  0.28370438
   0.43324139  0.88216139  0.28012905
   0.76068318  0.21965102  0.28760952
   0.09719975  0.22103815  0.28221813
   0.43576108  0.22048467  0.28109193
   0.10107776  0.88201037  0.27936877
   0.76094787  0.88197157  0.28392374
   0.42921767  0.55010635  0.28141451
   0.76451066  0.54780600  0.28682679
   0.32448360  0.66301950  0.39030395
   0.65416359  0.98884508  0.39052985
   0.31808601  0.32415419  0.38270110
   0.98570565  0.98818801  0.38854992
   0.32315330  0.99444842  0.38541548
   0.64275555  0.32590990  0.39660553
   0.99736092  0.66452820  0.38308337
   0.99861022  0.32088593  0.39220292
   0.65652044  0.66464877  0.39288254
Direct configuration=     3
   0.69109937  0.43343123  0.47834211
   0.91322677  0.38507618  0.46456099
   0.67313220  0.46568514  0.52719414
   0.98675500  0.32859100  0.07437600
   0.32008800  0.32859100  0.07437600
   0.65342200  0.32859100  0.07437600
   0.98675500  0.66192500  0.07437600
   0.32008800  0.66192500  0.07437600
   0.65342200  0.66192500  0.07437600
   0.32008800  0.99525800  0.07437600
   0.65342200  0.99525800  0.07437600
   0.98675500  0.99525800  0.07437600
   0.20897700  0.10636900  0.17918600
   0.54231100  0.10636900  0.17918600
   0.87564400  0.10636900  0.17918600
   0.20897700  0.43970300  0.17918600
   0.54231100  0.43970300  0.17918600
   0.87564400  0.43970300  0.17918600
   0.20897700  0.77303600  0.17918600
   0.54231100  0.77303600  0.17918600
   0.87564400  0.77303600  0.17918600
   0.09577487  0.54907111  0.28342933
   0.43312928  0.88248176  0.28093562
   0.76113754  0.21887111  0.28738946
   0.09553174  0.21988498  0.28249543
   0.43537938  0.21965953  0.28152543
   0.10020165  0.88283190  0.28006909
   0.76195986  0.88227689  0.28394594
   0.43017412  0.55082321  0.28193020
   0.76375884  0.54849869  0.28615821
   0.32523137  0.66344382  0.38967253
   0.65356481  0.98883949  0.39006983
   0.31873518  0.32421790  0.38303248
   0.98619221  0.98831738  0.38821499
   0.32295174  0.99387213  0.38536284
   0.64240179  0.32672047  0.39722061
   0.99749225  0.66569929  0.38378407
   0.99843663  0.32071362  0.39259913
   0.65630239  0.66480247  0.39235348
Direct configuration=     4
   0.68539237  0.42788410  0.47671098
   0.91573186  0.38666352  0.46437972
   0.67582692  0.46697171  0.52724511
   0.98675500  0.32859100  0.07437600
   0.32008800  0.32859100  0.07437600
   0.65342200  0.32859100  0.07437600
   0.98675500  0.66192500  0.07437600
   0.32008800  0.66192500  0.07437600
   0.65342200  0.66192500  0.07437600
   0.32008800  0.99525800  0.07437600
   0.65342200  0.99525800  0.07437600
   0.98675500  0.99525800  0.07437600
   0.20897700  0.10636900  0.17918600
   0.54231100  0.10636900  0.17918600
   0.87564400  0.10636900  0.17918600
   0.20897700  0.43970300  0.17918600
   0.54231100  0.43970300  0.17918600
   0.87564400  0.43970300  0.17918600
   0.20897700  0.77303600  0.17918600
   0.54231100  0.77303600  0.17918600
   0.87564400  0.77303600  0.17918600
   0.09735195  0.54765839  0.28300758
   0.43292891  0.88301938  0.28225038
   0.76188043  0.21766446  0.28701841
   0.09282438  0.21801548  0.28298445
   0.43478450  0.21831376  0.28226223
   0.09870052  0.88406227  0.28123440
   0.76361020  0.88278688  0.28394934
   0.43176395  0.55194568  0.28278541
   0.76264537  0.54961289  0.28504065
   0.32642210  0.66410992  0.38858581
   0.65261374  0.98893652  0.38927894
   0.31975085  0.32430244  0.38362049
   0.98704021  0.98860026  0.38767913
   0.32259960  0.99290216  0.38532489
   0.64186369  0.32815253  0.39823487
   0.99763880  0.66753001  0.38494168
   0.99820837  0.32037175  0.39325779
   0.65596589  0.66512180  0.39138647
Direct configuration=     5
   0.68353707  0.42670756  0.47700088
   0.91704800  0.38762575  0.46436852
   0.67651492  0.46725445  0.52718282
   0.98675500  0.32859100  0.07437600
   0.32008800  0.32859100  0.07437600
   0.65342200  0.32859100  0.07437600
   0.98675500  0.66192500  0.07437600
   0.32008800  0.66192500  0.07437600
   0.65342200  0.66192500  0.07437600
   0.32008800  0.99525800  0.07437600
   0.65342200  0.99525800  0.07437600
   0.98675500  0.99525800  0.07437600
   0.20897700  0.10636900  0.17918600
   0.54231100  0.10636900  0.17918600
   0.87564400  0.10636900  0.17918600
   0.20897700  0.43970300  0.17918600
   0.54231100  0.43970300  0.17918600
   0.87564400  0.43970300  0.17918600
   0.20897700  0.77303600  0.17918600
   0.54231100  0.77303600  0.17918600
   0.87564400  0.77303600  0.17918600
   0.09728905  0.54768685  0.28305342
   0.43284152  0.88309739  0.28231220
   0.76197664  0.21780122  0.28694375
   0.09274604  0.21796342  0.28313552
   0.43481625  0.21820249  0.28240667
   0.09842124  0.88380361  0.28137294
   0.76367014  0.88285862  0.28382629
   0.43193327  0.55182724  0.28286551
   0.76288353  0.54956900  0.28487710
   0.32632471  0.66401532  0.38833300
   0.65267374  0.98934395  0.38910599
   0.31964028  0.32424694  0.38382701
   0.98725819  0.98890988  0.38770291
   0.32250175  0.99277274  0.38550972
   0.64146205  0.32781933  0.39780916
   0.99743412  0.66743570  0.38511071
   0.99843922  0.32006727  0.39327809
   0.65608903  0.66537881  0.39101370
