       N       E                     dE             d eps       ncg     rms          rms(c)
DAV:   1     0.241903388708E+04    0.24190E+04   -0.15950E+05  1824   0.129E+03
DAV:   2    -0.643373143255E+02   -0.24834E+04   -0.23107E+04  2128   0.286E+02
DAV:   3    -0.241110364910E+03   -0.17677E+03   -0.16032E+03  2168   0.689E+01
DAV:   4    -0.248750574799E+03   -0.76402E+01   -0.73768E+01  2336   0.137E+01
DAV:   5    -0.248971332434E+03   -0.22076E+00   -0.21911E+00  2384   0.239E+00    0.276E+01
RMM:   6    -0.247792111355E+03    0.11792E+01   -0.55717E+01  1831   0.149E+01    0.301E+01
RMM:   7    -0.238857366106E+03    0.89347E+01   -0.33724E+01  1829   0.909E+00    0.179E+01
RMM:   8    -0.244019811505E+03   -0.51624E+01   -0.80212E+00  1832   0.462E+00    0.253E+01
RMM:   9    -0.231802259432E+03    0.12218E+02   -0.37241E+00  1831   0.307E+00    0.847E+00
RMM:  10    -0.230817589357E+03    0.98467E+00   -0.11826E+00  1831   0.170E+00    0.479E+00
RMM:  11    -0.230385655695E+03    0.43193E+00   -0.36700E-01  1831   0.971E-01    0.273E+00
RMM:  12    -0.230311796093E+03    0.73860E-01   -0.18679E-01  1833   0.670E-01    0.264E+00
RMM:  13    -0.230278176995E+03    0.33619E-01   -0.15502E-01  1831   0.664E-01    0.209E+00
RMM:  14    -0.230236054550E+03    0.42122E-01   -0.10317E-01  1831   0.557E-01    0.107E+00
RMM:  15    -0.230223743297E+03    0.12311E-01   -0.29162E-02  1832   0.286E-01    0.544E-01
RMM:  16    -0.230218924454E+03    0.48188E-02   -0.67712E-03  1827   0.143E-01    0.198E-01
RMM:  17    -0.230219129508E+03   -0.20505E-03   -0.17507E-03  1821   0.713E-02    0.191E-01
RMM:  18    -0.230219264385E+03   -0.13488E-03   -0.98895E-04  1804   0.536E-02    0.134E-01
RMM:  19    -0.230219261743E+03    0.26427E-05   -0.41368E-04  1351   0.359E-02
   1 F= -.23021926E+03 E0= -.23021394E+03  d E =-.230219E+03
       N       E                     dE             d eps       ncg     rms          rms(c)
DAV:   1    -0.230383810529E+03   -0.16455E+00   -0.22479E+01  1848   0.879E+00    0.590E-01
RMM:   2    -0.230473827003E+03   -0.90016E-01   -0.41239E-01  1834   0.136E+00    0.190E+00
RMM:   3    -0.230424200651E+03    0.49626E-01   -0.31250E-02  1859   0.309E-01    0.680E-01
RMM:   4    -0.230418150223E+03    0.60504E-02   -0.92838E-03  1839   0.164E-01    0.422E-01
RMM:   5    -0.230416394717E+03    0.17555E-02   -0.26608E-03  1833   0.850E-02    0.321E-01
RMM:   6    -0.230415737162E+03    0.65756E-03   -0.29014E-03  1831   0.906E-02    0.193E-01
RMM:   7    -0.230415985497E+03   -0.24834E-03   -0.30452E-03  1831   0.942E-02    0.182E-01
RMM:   8    -0.230415517743E+03    0.46775E-03   -0.79532E-04  1773   0.485E-02    0.691E-02
RMM:   9    -0.230415503458E+03    0.14284E-04   -0.13563E-04   991   0.217E-02
   2 F= -.23041550E+03 E0= -.23040946E+03  d E =-.196242E+00
       N       E                     dE             d eps       ncg     rms          rms(c)
DAV:   1    -0.230481386640E+03   -0.65869E-01   -0.13826E+01  1824   0.707E+00    0.560E-01
RMM:   2    -0.230541444096E+03   -0.60057E-01   -0.37063E-01  1848   0.115E+00    0.141E+00
RMM:   3    -0.230515013625E+03    0.26430E-01   -0.20071E-02  1847   0.248E-01    0.616E-01
RMM:   4    -0.230510432174E+03    0.45815E-02   -0.63632E-03  1844   0.137E-01    0.410E-01
RMM:   5    -0.230509054664E+03    0.13775E-02   -0.31242E-03  1831   0.904E-02    0.369E-01
RMM:   6    -0.230508196145E+03    0.85852E-03   -0.54809E-03  1829   0.122E-01    0.256E-01
RMM:   7    -0.230507399874E+03    0.79627E-03   -0.22714E-03  1825   0.799E-02    0.142E-01
RMM:   8    -0.230507119990E+03    0.27988E-03   -0.59013E-04  1609   0.417E-02    0.760E-02
RMM:   9    -0.230507065502E+03    0.54487E-04   -0.14575E-04   996   0.227E-02
   3 F= -.23050707E+03 E0= -.23050072E+03  d E =-.915620E-01
       N       E                     dE             d eps       ncg     rms          rms(c)
