 vasp.5.4.4 16052018 (build Apr 24 2014 20:13:14) complex standard
 Contain Constrained Minimization Technique (TS), Periodic NBO, VASPsol, libbeef, VASP2WANNIER90, Constrained Cell Relaxation
 executed on Center for Computational Chemistry by phu@node11 date 2025.09.27 23:39:57
 running on    8 total cores
 distrk:  each k-point on    8 cores,    1 groups
 distr:  one band on NCORES_PER_BAND=   2 cores,    4 groups


--------------------------------------------------------------------------------------------------------


 INCAR:
 POTCAR:   PAW_PBE C 08Apr2002                    
 POTCAR:   PAW_PBE O 08Apr2002                    
 POTCAR:    PAW_PBE Pt 04Feb2005                  
 POTCAR:   PAW_PBE C 08Apr2002                    
   VRHFIN =C: s2p2                                                              
   LEXCH  = PE                                                                  
   EATOM  =   147.1560 eV,   10.8157 Ry                                         
                                                                                
   TITEL  = PAW_PBE C 08Apr2002                                                 
   LULTRA =        F    use ultrasoft PP ?                                      
   IUNSCR =        0    unscreen: 0-lin 1-nonlin 2-no                           
   RPACOR =     .000    partial core radius                                     
   POMASS =   12.011; ZVAL   =    4.000    mass and valenz                      
   RCORE  =    1.500    outmost cutoff radius                                   
   RWIGS  =    1.630; RWIGS  =     .863    wigner-seitz radius (au A)           
   ENMAX  =  400.000; ENMIN  =  300.000 eV                                      
   ICORE  =        2    local potential                                         
   LCOR   =        T    correct aug charges                                     
   LPAW   =        T    paw PP                                                  
   EAUG   =  644.873                                                            
   DEXC   =     .000                                                            
   RMAX   =    2.266    core radius for proj-oper                               
   RAUG   =    1.300    factor for augmentation sphere                          
   RDEP   =    1.501    radius for radial grids                                 
   RDEPT  =    1.300    core radius for aug-charge                              
   QCUT   =   -5.516; QGAM   =   11.032    optimization parameters              
                                                                                
   Description                                                                  
     l     E      TYP  RCUT    TYP  RCUT                                        
     0   .000     23  1.200                                                     
     0   .000     23  1.200                                                     
     1   .000     23  1.500                                                     
     1  2.500     23  1.500                                                     
     2   .000      7  1.500                                                     
  local pseudopotential read in
  atomic valenz-charges read in
  non local Contribution for L=           0  read in
    real space projection operators read in
  non local Contribution for L=           0  read in
    real space projection operators read in
  non local Contribution for L=           1  read in
    real space projection operators read in
  non local Contribution for L=           1  read in
    real space projection operators read in
    PAW grid and wavefunctions read in
 
   number of l-projection  operators is LMAX  =           4
   number of lm-projection operators is LMMAX =           8
 
 POTCAR:   PAW_PBE O 08Apr2002                    
   VRHFIN =O: s2p4                                                              
   LEXCH  = PE                                                                  
   EATOM  =   432.3788 eV,   31.7789 Ry                                         
                                                                                
   TITEL  = PAW_PBE O 08Apr2002                                                 
   LULTRA =        F    use ultrasoft PP ?                                      
   IUNSCR =        0    unscreen: 0-lin 1-nonlin 2-no                           
   RPACOR =     .000    partial core radius                                     
   POMASS =   16.000; ZVAL   =    6.000    mass and valenz                      
   RCORE  =    1.520    outmost cutoff radius                                   
   RWIGS  =    1.550; RWIGS  =     .820    wigner-seitz radius (au A)           
   ENMAX  =  400.000; ENMIN  =  300.000 eV                                      
   ICORE  =        2    local potential                                         
   LCOR   =        T    correct aug charges                                     
   LPAW   =        T    paw PP                                                  
   EAUG   =  605.392                                                            
   DEXC   =     .000                                                            
   RMAX   =    2.264    core radius for proj-oper                               
   RAUG   =    1.300    factor for augmentation sphere                          
   RDEP   =    1.550    radius for radial grids                                 
   QCUT   =   -5.520; QGAM   =   11.041    optimization parameters              
                                                                                
   Description                                                                  
     l     E      TYP  RCUT    TYP  RCUT                                        
     0   .000     23  1.200                                                     
     0  -.700     23  1.200                                                     
     1   .000     23  1.520                                                     
     1   .600     23  1.520                                                     
     2   .000      7  1.500                                                     
  local pseudopotential read in
  atomic valenz-charges read in
  non local Contribution for L=           0  read in
    real space projection operators read in
  non local Contribution for L=           0  read in
    real space projection operators read in
  non local Contribution for L=           1  read in
    real space projection operators read in
  non local Contribution for L=           1  read in
    real space projection operators read in
    PAW grid and wavefunctions read in
 
   number of l-projection  operators is LMAX  =           4
   number of lm-projection operators is LMMAX =           8
 
 POTCAR:    PAW_PBE Pt 04Feb2005                  
   VRHFIN =Pt: s1d9                                                             
   LEXCH  = PE                                                                  
   EATOM  =   729.1182 eV,   53.5887 Ry                                         
                                                                                
   TITEL  = PAW_PBE Pt 04Feb2005                                                
   LULTRA =        F    use ultrasoft PP ?                                      
   IUNSCR =        1    unscreen: 0-lin 1-nonlin 2-no                           
   RPACOR =    2.330    partial core radius                                     
   POMASS =  195.080; ZVAL   =   10.000    mass and valenz                      
   RCORE  =    2.600    outmost cutoff radius                                   
   RWIGS  =    2.750; RWIGS  =    1.455    wigner-seitz radius (au A)           
   ENMAX  =  230.283; ENMIN  =  172.712 eV                                      
   ICORE  =        3    local potential                                         
   LCOR   =        T    correct aug charges                                     
   LPAW   =        T    paw PP                                                  
   EAUG   =  358.966                                                            
   DEXC   =     .000                                                            
   RMAX   =    3.038    core radius for proj-oper                               
   RAUG   =    1.300    factor for augmentation sphere                          
   RDEP   =    2.761    radius for radial grids                                 
   QCUT   =   -4.114; QGAM   =    8.228    optimization parameters              
                                                                                
   Description                                                                  
     l     E      TYP  RCUT    TYP  RCUT                                        
     2   .000     23  2.500                                                     
     2   .000     23  2.500                                                     
     0   .000     23  2.500                                                     
     0   .000     23  2.500                                                     
     1  -.200     23  2.600                                                     
     1  1.500     23  2.600                                                     
     3   .000     23  2.500                                                     
  local pseudopotential read in
  partial core-charges read in
  atomic valenz-charges read in
  non local Contribution for L=           2  read in
    real space projection operators read in
  non local Contribution for L=           2  read in
    real space projection operators read in
  non local Contribution for L=           0  read in
    real space projection operators read in
  non local Contribution for L=           0  read in
    real space projection operators read in
  non local Contribution for L=           1  read in
    real space projection operators read in
  non local Contribution for L=           1  read in
    real space projection operators read in
    PAW grid and wavefunctions read in
 
   number of l-projection  operators is LMAX  =           6
   number of lm-projection operators is LMMAX =          18
 
 Optimization of the real space projectors (new method)

 maximal supplied QI-value         = 25.13
 optimisation between [QCUT,QGAM] = [ 10.81, 21.61] = [ 32.71,130.83] Ry 
 Optimized for a Real-space Cutoff    1.23 Angstroem

   l    n(q)    QCUT    max X(q) W(low)/X(q) W(high)/X(q)  e(spline) 
   0      8    10.807     5.582    0.53E-04    0.84E-04    0.44E-07
   0      8    10.807    69.432    0.35E-03    0.71E-03    0.24E-06
   1      7    10.807     2.780    0.44E-04    0.88E-04    0.89E-07
   1      7    10.807     4.549    0.14E-03    0.28E-03    0.13E-06
 Optimization of the real space projectors (new method)

 maximal supplied QI-value         = 24.76
 optimisation between [QCUT,QGAM] = [ 10.64, 21.54] = [ 31.73,129.89] Ry 
 Optimized for a Real-space Cutoff    1.23 Angstroem

   l    n(q)    QCUT    max X(q) W(low)/X(q) W(high)/X(q)  e(spline) 
   0      8    10.645     4.192    0.69E-04    0.93E-04    0.58E-07
   0      8    10.645     8.473    0.40E-03    0.65E-03    0.17E-06
   1      7    10.645     2.474    0.80E-04    0.12E-03    0.30E-07
   1      7    10.645     3.912    0.24E-03    0.53E-03    0.16E-06
 Optimization of the real space projectors (new method)

 maximal supplied QI-value         = 14.36
 optimisation between [QCUT,QGAM] = [ 10.77, 21.69] = [ 32.49,131.70] Ry 
 Optimized for a Real-space Cutoff    1.46 Angstroem

   l    n(q)    QCUT    max X(q) W(low)/X(q) W(high)/X(q)  e(spline) 
   2      9    10.771     3.903    0.38E-04    0.12E-03    0.82E-07
   2      9    10.771    18.372    0.13E-03    0.32E-03    0.28E-06
   0     10    10.771    13.697    0.11E-04    0.86E-05    0.85E-08
   0     10    10.771    65.529    0.40E-04    0.12E-03    0.14E-06
   1      9    10.771     7.604    0.48E-04    0.31E-04    0.38E-07
   1      9    10.771    12.136    0.35E-03    0.16E-03    0.23E-06
 PAW_PBE C 08Apr2002                    :
 energy of atom  1       EATOM= -147.1560
 kinetic energy error for atom=    0.0116 (will be added to EATOM!!)
 PAW_PBE O 08Apr2002                    :
 energy of atom  2       EATOM= -432.3788
 kinetic energy error for atom=    0.0389 (will be added to EATOM!!)
  PAW_PBE Pt 04Feb2005                  :
 energy of atom  3       EATOM= -729.1182
 kinetic energy error for atom=    0.0051 (will be added to EATOM!!)
 
 
 POSCAR: C    O    Pt                            
  positions in direct lattice
  No initial velocities read in
 exchange correlation table for  LEXCH =        8
   RHO(1)=    0.500       N(1)  =     2000
   RHO(2)=  100.500       N(2)  =     4000

 VTST: version 3.2, (02/03/18)

 CHAIN: initializing optimizer
 
 OPT: Using VASP QUASI-newton optimizer
 CHAIN: Read ICHAIN            0
 
 POSCAR: C    O    Pt                            
  positions in direct lattice
  No initial velocities read in
 


--------------------------------------------------------------------------------------------------------


 ion  position               nearest neighbor table
   1  0.699  0.433  0.476-   3 1.16  36 1.91   2 2.00
   2  0.909  0.386  0.469-   1 2.00  38 2.03  36 2.56
   3  0.671  0.460  0.526-   1 1.16
   4  0.987  0.329  0.074-  15 2.81  16 2.81  12 2.81   5 2.81  11 2.81   6 2.81  18 2.81   8 2.81
                             7 2.81
   5  0.320  0.329  0.074-  13 2.81  10 2.81   4 2.81  12 2.81  16 2.81  17 2.81   8 2.81   9 2.81
                             6 2.81
   6  0.653  0.329  0.074-  14 2.81  18 2.81  11 2.81   4 2.81  17 2.81   7 2.81  10 2.81   9 2.81
                             5 2.81
   7  0.987  0.662  0.074-  18 2.81  21 2.81  19 2.81  12 2.81   8 2.81  10 2.81   9 2.81   6 2.81
                             4 2.81
   8  0.320  0.662  0.074-  16 2.81  19 2.81  10 2.81   7 2.81  20 2.81   4 2.81  11 2.81   5 2.81
                             9 2.81
   9  0.653  0.662  0.074-  17 2.81  20 2.81  21 2.81  11 2.81  12 2.81   7 2.81   6 2.81   5 2.81
                             8 2.81
  10  0.320  0.995  0.074-  13 2.81  19 2.81   5 2.81   8 2.81  12 2.81   7 2.81  14 2.81   6 2.81
                            11 2.81
  11  0.653  0.995  0.074-  14 2.81  20 2.81  15 2.81   9 2.81   6 2.81  12 2.81   4 2.81   8 2.81
                            10 2.81
  12  0.987  0.995  0.074-  15 2.81  21 2.81  13 2.81   7 2.81   4 2.81  10 2.81   5 2.81  11 2.81
                             9 2.81
  13  0.209  0.106  0.179-  27 2.72  25 2.80   5 2.81  10 2.81  12 2.81  19 2.81  15 2.81  21 2.81
                            16 2.81  14 2.81  17 2.81  26 2.84
  14  0.542  0.106  0.179-  23 2.77  11 2.81   6 2.81  20 2.81  15 2.81  10 2.81  18 2.81  19 2.81
                            17 2.81  13 2.81  24 2.81  26 2.84
  15  0.876  0.106  0.179-  28 2.73  25 2.76   4 2.81  12 2.81  11 2.81  21 2.81  13 2.81  20 2.81
                            14 2.81  16 2.81  18 2.81  24 2.87
  16  0.209  0.440  0.179-  22 2.74  25 2.77   8 2.81   4 2.81  19 2.81  18 2.81   5 2.81  15 2.81
                            20 2.81  13 2.81  17 2.81  29 2.82
  17  0.542  0.440  0.179-  30 2.78   9 2.81  20 2.81  21 2.81  18 2.81   6 2.81   5 2.81  14 2.81
                            13 2.81  16 2.81  29 2.82  26 2.84
  18  0.876  0.440  0.179-  22 2.77  30 2.79   7 2.81   6 2.81  21 2.81  19 2.81  16 2.81  17 2.81
                             4 2.81  14 2.81  15 2.81  24 2.82
  19  0.209  0.773  0.179-  27 2.70  23 2.75  22 2.76  10 2.81   8 2.81   7 2.81  16 2.81  13 2.81
                            21 2.81  18 2.81  14 2.81  20 2.81
  20  0.542  0.773  0.179-  28 2.73  23 2.77  29 2.80  11 2.81   9 2.81  17 2.81  14 2.81  21 2.81
                            15 2.81   8 2.81  16 2.81  19 2.81
  21  0.876  0.773  0.179-  28 2.68  27 2.73  30 2.80  12 2.81   7 2.81   9 2.81  18 2.81  15 2.81
                            19 2.81  13 2.81  17 2.81  20 2.81
  22  0.102  0.551  0.281-  16 2.74  19 2.76  25 2.77  18 2.77  23 2.78  29 2.78  31 2.80  27 2.81
                            24 2.84  30 2.85  38 2.90  37 2.91
  23  0.429  0.883  0.281-  19 2.75  14 2.77  20 2.77  27 2.77  31 2.78  22 2.78  29 2.79  26 2.80
                            24 2.82  35 2.82  32 2.85  28 2.87
  24  0.759  0.221  0.285-  26 2.74  30 2.75  32 2.80  14 2.81  23 2.82  18 2.82  25 2.83  22 2.84
                            38 2.85  15 2.87  36 2.90  28 2.91
  25  0.093  0.218  0.282-  15 2.76  22 2.77  16 2.77  28 2.79  13 2.80  38 2.80  24 2.83  33 2.83
                            27 2.85  34 2.85  29 2.85  26 2.86
  26  0.432  0.217  0.286-  35 2.74  24 2.74  33 2.74  30 2.79  23 2.80  27 2.80  14 2.84  29 2.84
                            17 2.84  13 2.84  25 2.86  36 2.88
  27  0.101  0.884  0.279-  19 2.70  13 2.72  21 2.73  23 2.77  28 2.79  26 2.80  22 2.81  30 2.84
                            25 2.85  35 2.85  37 2.90  34 2.91
  28  0.768  0.881  0.279-  21 2.68  20 2.73  15 2.73  30 2.78  29 2.79  27 2.79  25 2.79  39 2.84
                            23 2.87  32 2.90  24 2.91  34 2.91
  29  0.434  0.555  0.284-  31 2.69  22 2.78  39 2.78  28 2.79  23 2.79  30 2.80  20 2.80  33 2.81
                            17 2.82  16 2.82  26 2.84  25 2.85
  30  0.763  0.549  0.283-  24 2.75  39 2.77  28 2.78  17 2.78  18 2.79  26 2.79  29 2.80  21 2.80
                            27 2.84  22 2.85  37 2.91  36 3.01
  31  0.328  0.663  0.385-  29 2.69  32 2.76  23 2.78  39 2.79  22 2.80  33 2.81  37 2.83  35 2.84
                            38 2.84
  32  0.654  0.991  0.388-  31 2.76  39 2.78  24 2.80  34 2.81  36 2.82  38 2.83  35 2.84  23 2.85
                            28 2.90
  33  0.319  0.324  0.387-  26 2.74  38 2.75  36 2.76  35 2.77  34 2.77  29 2.81  31 2.81  25 2.83
                            39 2.87
  34  0.989  0.996  0.389-  38 2.76  37 2.77  33 2.77  39 2.78  35 2.78  32 2.81  25 2.85  28 2.91
                            27 2.91
  35  0.319  0.995  0.387-  37 2.73  36 2.74  26 2.74  33 2.77  34 2.78  23 2.82  32 2.84  31 2.84
                            27 2.85
  36  0.643  0.319  0.397-   1 1.91   2 2.56  35 2.74  33 2.76  32 2.82  39 2.85  26 2.88  24 2.90
                            38 2.92  37 2.97  30 3.01
  37  0.996  0.670  0.390-  35 2.73  34 2.77  39 2.81  31 2.83  27 2.90  38 2.90  30 2.91  22 2.91
                            36 2.97
  38  0.992  0.324  0.390-   2 2.03  33 2.75  34 2.76  25 2.80  32 2.83  31 2.84  24 2.85  37 2.90
                            22 2.90  36 2.92
  39  0.660  0.664  0.386-  30 2.77  29 2.78  32 2.78  34 2.78  31 2.79  37 2.81  28 2.84  36 2.85
                            33 2.87
 

IMPORTANT INFORMATION: All symmetrisations will be switched off!
NOSYMM: (Re-)initialisation of all symmetry stuff for point group C_1.

 
 
 KPOINTS: mesh auto                               

Automatic generation of k-mesh.
Space group operators:
 irot       det(A)        alpha          n_x          n_y          n_z        tau_x        tau_y        tau_z
    1     1.000000     0.000000     1.000000     0.000000     0.000000     0.000000     0.000000     0.000000
 
 Subroutine IBZKPT returns following result:
 ===========================================
 
 Found      4 irreducible k-points:
 
 Following reciprocal coordinates:
            Coordinates               Weight
  0.000000  0.000000  0.000000      1.000000
  0.500000  0.000000  0.000000      1.000000
 -0.000000  0.500000  0.000000      1.000000
  0.500000  0.500000  0.000000      1.000000
 
 Following cartesian coordinates:
            Coordinates               Weight
  0.000000  0.000000  0.000000      1.000000
  0.068522  0.000000  0.000000      1.000000
  0.034261  0.059342  0.000000      1.000000
  0.102783  0.059342  0.000000      1.000000
 


--------------------------------------------------------------------------------------------------------




 Dimension of arrays:
   k-points           NKPTS =      4   k-points in BZ     NKDIM =      4   number of bands    NBANDS=    228
   number of dos      NEDOS =    301   number of ions     NIONS =     39
   non local maximal  LDIM  =      6   non local SUM 2l+1 LMDIM =     18
   total plane-waves  NPLWV = 276480
   max r-space proj   IRMAX =   2756   max aug-charges    IRDMAX=  12646
   dimension x,y,z NGX =    48 NGY =   48 NGZ =  120
   dimension x,y,z NGXF=    96 NGYF=   96 NGZF=  240
   support grid    NGXF=    96 NGYF=   96 NGZF=  240
   ions per type =               1   2  36
   NGX,Y,Z   is equivalent  to a cutoff of   9.47,  9.47,  9.12 a.u.
   NGXF,Y,Z  is equivalent  to a cutoff of  18.94, 18.94, 18.24 a.u.

 SYSTEM =  metal                                   
 POSCAR =  C    O    Pt                            

 Startparameter for this run:
   NWRITE =      2    write-flag & timer
   PREC   = normal    normal or accurate (medium, high low for compatibility)
   ISTART =      0    job   : 0-new  1-cont  2-samecut
   ICHARG =      2    charge: 1-file 2-atom 10-const
   ISPIN  =      1    spin polarized calculation?
   LNONCOLLINEAR =      F non collinear calculations
   LSORBIT =      F    spin-orbit coupling
   INIWAV =      1    electr: 0-lowe 1-rand  2-diag
   LASPH  =      F    aspherical Exc in radial PAW
   METAGGA=      F    non-selfconsistent MetaGGA calc.

 Electronic Relaxation 1
   ENCUT  =  450.0 eV  33.07 Ry    5.75 a.u.  14.57 14.57 37.84*2*pi/ulx,y,z
   ENINI  =  450.0     initial cutoff
   ENAUG  =  644.9 eV  augmentation charge cutoff
   NELM   =     60;   NELMIN=  8; NELMDL= -5     # of ELM steps 
   EDIFF  = 0.1E-03   stopping-criterion for ELM
   LREAL  =      T    real-space projection
   NLSPLINE    = F    spline interpolate recip. space projectors
   LCOMPAT=      F    compatible to vasp.4.4
   GGA_COMPAT  = T    GGA compatible to vasp.4.4-vasp.4.6
   LMAXPAW     = -100 max onsite density
   LMAXMIX     =    2 max onsite mixed and CHGCAR
   VOSKOWN=      0    Vosko Wilk Nusair interpolation
   ROPT   =   -0.00050  -0.00050  -0.00050
 Ionic relaxation
   EDIFFG = -.5E-01   stopping-criterion for IOM
   NSW    =   5000    number of steps for IOM
   NBLOCK =      1;   KBLOCK =   5000    inner block; outer block 
   IBRION =      1    ionic relax: 0-MD 1-quasi-New 2-CG
   NFREE  =      0    steps in history (QN), initial steepest desc. (CG)
   ISIF   =      2    stress and relaxation
   IWAVPR =     11    prediction:  0-non 1-charg 2-wave 3-comb
   ISYM   =      0    0-nonsym 1-usesym 2-fastsym
   LCORR  =      T    Harris-Foulkes like correction to forces

   POTIM  = 0.2000    time-step for ionic-motion
   TEIN   =    0.0    initial temperature
   TEBEG  =    0.0;   TEEND  =   0.0 temperature during run
   SMASS  =  -3.00    Nose mass-parameter (am)
   estimated Nose-frequenzy (Omega)   =  0.10E-29 period in steps =****** mass=  -0.162E-26a.u.
   SCALEE = 1.0000    scale energy and forces
   NPACO  =    256;   APACO  = 16.0  distance and # of slots for P.C.
   PSTRESS=    0.0 pullay stress

  Mass of Ions in am
   POMASS =  12.01 16.00195.08
  Ionic Valenz
   ZVAL   =   4.00  6.00 10.00
  Atomic Wigner-Seitz radii
   RWIGS  =  -1.00 -1.00 -1.00
  virtual crystal weights 
   VCA    =   1.00  1.00  1.00
   NELECT =     376.0000    total number of electrons
   NUPDOWN=      -1.0000    fix difference up-down

 DOS related values:
   EMIN   =  10.00;   EMAX   =-10.00  energy-range for DOS
   EFERMI =   0.00
   ISMEAR =     1;   SIGMA  =   0.20  broadening in eV -4-tet -1-fermi 0-gaus

 Electronic relaxation 2 (details)
   IALGO  =     68    algorithm
   LDIAG  =      T    sub-space diagonalisation (order eigenvalues)
   LSUBROT=      F    optimize rotation matrix (better conditioning)
   TURBO    =      0    0=normal 1=particle mesh
   IRESTART =      0    0=no restart 2=restart with 2 vectors
   NREBOOT  =      0    no. of reboots
   NMIN     =      0    reboot dimension
   EREF     =   0.00    reference energy to select bands
   IMIX   =      4    mixing-type and parameters
     AMIX     =   0.40;   BMIX     =  1.00
     AMIX_MAG =   1.60;   BMIX_MAG =  1.00
     AMIN     =   0.10
     WC   =   100.;   INIMIX=   1;  MIXPRE=   1;  MAXMIX= -45

 Intra band minimization:
   WEIMIN = 0.0010     energy-eigenvalue tresh-hold
   EBREAK =  0.11E-06  absolut break condition
   DEPER  =   0.30     relativ break condition  

   TIME   =   0.40     timestep for ELM

  volume/ion in A,a.u.               =      34.49       232.77
  Fermi-wavevector in a.u.,A,eV,Ry     =   1.070385  2.022734 15.588510  1.145723
  Thomas-Fermi vector in A             =   2.206093
 
 Write flags
   LWAVE        =      F    write WAVECAR
   LDOWNSAMPLE  =      F    k-point downsampling of WAVECAR
   LCHARG       =      F    write CHGCAR
   LVTOT        =      F    write LOCPOT, total local potential
   LVHAR        =      F    write LOCPOT, Hartree potential only
   LELF         =      F    write electronic localiz. function (ELF)
   LORBIT       =      0    0 simple, 1 ext, 2 COOP (PROOUT), +10 PAW based schemes


 Dipole corrections
   LMONO  =      F    monopole corrections only (constant potential shift)
   LDIPOL =      F    correct potential (dipole corrections)
   IDIPOL =      0    1-x, 2-y, 3-z, 4-all directions 
   EPSILON=  1.0000000 bulk dielectric constant

 Exchange correlation treatment:
   GGA     =    --    GGA type
   LEXCH   =     8    internal setting for exchange type
   VOSKOWN=      0    Vosko Wilk Nusair interpolation
   LHFCALC =     F    Hartree Fock is set to
   LHFONE  =     F    Hartree Fock one center treatment
   AEXX    =    0.0000 exact exchange contribution

 Linear response parameters
   LEPSILON=     F    determine dielectric tensor
   LRPA    =     F    only Hartree local field effects (RPA)
   LNABLA  =     F    use nabla operator in PAW spheres
   LVEL    =     F    velocity operator in full k-point grid
   LINTERFAST=   F  fast interpolation
   KINTER  =     0    interpolate to denser k-point grid
   CSHIFT  =0.1000    complex shift for real part using Kramers Kronig
   OMEGAMAX=  -1.0    maximum frequency
   DEG_THRESHOLD= 0.2000000E-02 threshold for treating states as degnerate
   RTIME   =   -0.100 relaxation time in fs
  (WPLASMAI=    0.000 imaginary part of plasma frequency in eV, 0.658/RTIME)
   DFIELD  = 0.0000000 0.0000000 0.0000000 field for delta impulse in time
 
 Orbital magnetization related:
   ORBITALMAG=     F  switch on orbital magnetization
   LCHIMAG   =     F  perturbation theory with respect to B field
   DQ        =  0.001000  dq finite difference perturbation B field
   LLRAUG    =     F  two centre corrections for induced B field



--------------------------------------------------------------------------------------------------------


 quasi-Newton-method for relaxation of ions
   using selective dynamics as specified on POSCAR
 charge density and potential will be updated during run
 non-spin polarized calculation
 RMM-DIIS sequential band-by-band and
  variant of blocked Davidson during initial phase
 perform sub-space diagonalisation
    before iterative eigenvector-optimisation
 modified Broyden-mixing scheme, WC =      100.0
 initial mixing is a Kerker type mixing with AMIX =  0.4000 and BMIX =      1.0000
 Hartree-type preconditioning will be used
 using additional bands           40
 real space projection scheme for non local part
 use partial core corrections
 calculate Harris-corrections to forces 
   (improved forces if not selfconsistent)
 use gradient corrections 
 use of overlap-Matrix (Vanderbilt PP)
 Methfessel and Paxton  Order N= 1 SIGMA  =   0.20


--------------------------------------------------------------------------------------------------------


  energy-cutoff  :      450.00
  volume of cell :     1345.22
      direct lattice vectors                 reciprocal lattice vectors
     7.296955120 -4.212899000  0.000000000     0.137043463  0.000000000  0.000000000
     0.000000000  8.425798000  0.000000000     0.068521732  0.118683121  0.000000000
     0.000000000  0.000000000 21.879635000     0.000000000  0.000000000  0.045704602

  length of vectors
     8.425798004  8.425798000 21.879635000     0.137043463  0.137043463  0.045704602


 
 k-points in units of 2pi/SCALE and weight: mesh auto                               
   0.00000000  0.00000000  0.00000000       0.250
   0.06852173  0.00000000  0.00000000       0.250
   0.03426087  0.05934156  0.00000000       0.250
   0.10278260  0.05934156  0.00000000       0.250
 
 k-points in reciprocal lattice and weights: mesh auto                               
   0.00000000  0.00000000  0.00000000       0.250
   0.50000000  0.00000000  0.00000000       0.250
  -0.00000000  0.50000000  0.00000000       0.250
   0.50000000  0.50000000  0.00000000       0.250
 
 position of ions in fractional coordinates (direct lattice) 
   0.69938209  0.43309495  0.47569954
   0.90866236  0.38600884  0.46925842
   0.67124554  0.45995083  0.52558807
   0.98675500  0.32859100  0.07437600
   0.32008800  0.32859100  0.07437600
   0.65342200  0.32859100  0.07437600
   0.98675500  0.66192500  0.07437600
   0.32008800  0.66192500  0.07437600
   0.65342200  0.66192500  0.07437600
   0.32008800  0.99525800  0.07437600
   0.65342200  0.99525800  0.07437600
   0.98675500  0.99525800  0.07437600
   0.20897700  0.10636900  0.17918600
   0.54231100  0.10636900  0.17918600
   0.87564400  0.10636900  0.17918600
   0.20897700  0.43970300  0.17918600
   0.54231100  0.43970300  0.17918600
   0.87564400  0.43970300  0.17918600
   0.20897700  0.77303600  0.17918600
   0.54231100  0.77303600  0.17918600
   0.87564400  0.77303600  0.17918600
   0.10210329  0.55077942  0.28102861
   0.42880005  0.88295311  0.28127694
   0.75924368  0.22092218  0.28529073
   0.09322273  0.21762092  0.28211528
   0.43185390  0.21691343  0.28575421
   0.10069020  0.88369979  0.27884881
   0.76803151  0.88059816  0.27867391
   0.43364684  0.55454176  0.28430263
   0.76275763  0.54871531  0.28294172
   0.32823698  0.66293027  0.38467047
   0.65387931  0.99117522  0.38792680
   0.31899912  0.32439110  0.38739681
   0.98926999  0.99560396  0.38929299
   0.31943359  0.99543404  0.38675465
   0.64305973  0.31914793  0.39700358
   0.99623749  0.67044681  0.39048551
   0.99221062  0.32441782  0.38995835
   0.66026979  0.66425165  0.38648426
 
 position of ions in cartesian coordinates  (Angst):
   5.10335971  0.70274445 10.40813237
   6.63046845 -0.57567023 10.26720295
   4.89804861  1.04756312 11.49967523
   7.20030695 -1.38845776  1.62731973
   2.33566777  1.42014298  1.62731973
   4.76799101  0.01584050  1.62731973
   7.20030695  1.42014719  1.62731973
   2.33566777  4.22874793  1.62731973
   4.76799101  2.82444545  1.62731973
   2.33566777  7.03734445  1.62731973
   4.76799101  5.63304198  1.62731973
   7.20030695  4.22874371  1.62731973
   1.52489579  0.01584471  3.92052428
   3.95721903 -1.38845776  3.92052428
   6.38953497 -2.79275602  3.92052428
   1.52489579  2.82444966  3.92052428
   3.95721903  1.42014719  3.92052428
   6.38953497  0.01584893  3.92052428
   1.52489579  5.63304619  3.92052428
   3.95721903  4.22874371  3.92052428
   6.38953497  2.82444545  3.92052428
   0.74504313  4.21060529  6.14880337
   3.12893471  5.63309328  6.15423672
   5.54016705 -1.33717131  6.24205707
   0.68024205  1.44089198  6.17257934
   3.15121854  0.00831189  6.25219783
   0.73473189  7.02167829  6.10111014
   5.60429149  4.18410303  6.09728342
   3.16430156  2.84554653  6.22043780
   5.56580816  1.40994352  6.19066153
   2.39513048  4.20288731  8.41644956
   4.77132798  5.59671473  8.48769676
   2.32772225  1.38934281  8.47610072
   7.21865870  4.22106335  8.51758855
   2.33089257  7.04158470  8.46205063
   4.69237798 -0.02006968  8.68629344
   7.26950024  1.45200146  8.54368044
   7.24011636 -1.44660412  8.53214628
   4.81795900  2.81520026  8.45613464
 


--------------------------------------------------------------------------------------------------------


 k-point  1 :   0.0000 0.0000 0.0000  plane waves:   29241
 k-point  2 :   0.5000 0.0000 0.0000  plane waves:   29108
 k-point  3 :  -0.0000 0.5000 0.0000  plane waves:   29108
 k-point  4 :   0.5000 0.5000 0.0000  plane waves:   29108

 maximum and minimum number of plane-waves per node :     14624    14548

 maximum number of plane-waves:     29241
 maximum index in each direction: 
   IXMAX=   14   IYMAX=   14   IZMAX=   37
   IXMIN=  -15   IYMIN=  -15   IZMIN=  -37


 real space projection operators:
  total allocation   :      13561.20 KBytes
  max/ min on nodes  :       6785.73       6775.47


 parallel 3D FFT for wavefunctions:
    minimum data exchange during FFTs selected (reduces bandwidth)
 parallel 3D FFT for charge:
    minimum data exchange during FFTs selected (reduces bandwidth)


 total amount of memory used by VASP MPI-rank0   131953. kBytes
=======================================================================

   base      :      30000. kBytes
   nonlr-proj:      10145. kBytes
   fftplans  :      13556. kBytes
   grid      :      23353. kBytes
   one-center:        311. kBytes
   wavefun   :      54588. kBytes
 
     INWAV:  cpu time    0.0001: real time    0.0001
 Broyden mixing: mesh for mixing (old mesh)
   NGX = 29   NGY = 29   NGZ = 75
  (NGX  = 96   NGY  = 96   NGZ  =240)
  gives a total of  63075 points

 initial charge density was supplied:
 charge density of overlapping atoms calculated
 number of electron     376.0000000 magnetization 
 keeping initial charge density in first step


--------------------------------------------------------------------------------------------------------


 Maximum index for non-local projection operator         1320
 Maximum index for augmentation-charges         1558 (set IRDMAX)


--------------------------------------------------------------------------------------------------------


 First call to EWALD:  gamma=   0.161
 Maximum number of real-space cells 4x 4x 2
 Maximum number of reciprocal cells 2x 2x 5

    FEWALD:  cpu time    0.0026: real time    0.0026


--------------------------------------- Iteration      1(   1)  ---------------------------------------


    POTLOK:  cpu time    0.2073: real time    0.3189
    SETDIJ:  cpu time    0.0124: real time    0.0124
     EDDAV:  cpu time   14.9743: real time   15.0865
       DOS:  cpu time    0.0012: real time    0.0012
    --------------------------------------------
      LOOP:  cpu time   15.1952: real time   15.4190

 eigenvalue-minimisations  :  1824
 total energy-change (2. order) : 0.2419034E+04  (-0.1595032E+05)
 number of electron     376.0000000 magnetization 
 augmentation part      376.0000000 magnetization 

 Free energy of the ion-electron system (eV)
  ---------------------------------------------------
  alpha Z        PSCENC =       975.10247152
  Ewald energy   TEWEN  =     91196.19239917
  -Hartree energ DENC   =   -120287.52001506
  -exchange      EXHF   =         0.00000000
  -V(xc)+E(xc)   XCENC  =       189.48760310
  PAW double counting   =     24789.08602224   -23775.73976456
  entropy T*S    EENTRO =         0.01481847
  eigenvalues    EBANDS =      2072.51619136
  atomic energy  EATOM  =     27259.89416086
  Solvation  Ediel_sol  =         0.00000000
  ---------------------------------------------------
  free energy    TOTEN  =      2419.03388708 eV

  energy without entropy =     2419.01906862  energy(sigma->0) =     2419.02894760


--------------------------------------------------------------------------------------------------------




--------------------------------------- Iteration      1(   2)  ---------------------------------------


     EDDAV:  cpu time   17.7552: real time   17.9241
       DOS:  cpu time    0.0011: real time    0.0011
    --------------------------------------------
      LOOP:  cpu time   17.7563: real time   17.9252

 eigenvalue-minimisations  :  2128
 total energy-change (2. order) :-0.2483371E+04  (-0.2310667E+04)
 number of electron     376.0000000 magnetization 
 augmentation part      376.0000000 magnetization 

 Free energy of the ion-electron system (eV)
  ---------------------------------------------------
  alpha Z        PSCENC =       975.10247152
  Ewald energy   TEWEN  =     91196.19239917
  -Hartree energ DENC   =   -120287.52001506
  -exchange      EXHF   =         0.00000000
  -V(xc)+E(xc)   XCENC  =       189.48760310
  PAW double counting   =     24789.08602224   -23775.73976456
  entropy T*S    EENTRO =         0.00090175
  eigenvalues    EBANDS =      -410.84109334
  atomic energy  EATOM  =     27259.89416086
  Solvation  Ediel_sol  =         0.00000000
  ---------------------------------------------------
  free energy    TOTEN  =       -64.33731433 eV

  energy without entropy =      -64.33821608  energy(sigma->0) =      -64.33761491


--------------------------------------------------------------------------------------------------------




--------------------------------------- Iteration      1(   3)  ---------------------------------------


     EDDAV:  cpu time   17.4233: real time   17.5464
       DOS:  cpu time    0.0011: real time    0.0011
    --------------------------------------------
      LOOP:  cpu time   17.4245: real time   17.5476

 eigenvalue-minimisations  :  2168
 total energy-change (2. order) :-0.1767731E+03  (-0.1603196E+03)
 number of electron     376.0000000 magnetization 
 augmentation part      376.0000000 magnetization 

 Free energy of the ion-electron system (eV)
  ---------------------------------------------------
  alpha Z        PSCENC =       975.10247152
  Ewald energy   TEWEN  =     91196.19239917
  -Hartree energ DENC   =   -120287.52001506
  -exchange      EXHF   =         0.00000000
  -V(xc)+E(xc)   XCENC  =       189.48760310
  PAW double counting   =     24789.08602224   -23775.73976456
  entropy T*S    EENTRO =         0.00643235
  eigenvalues    EBANDS =      -587.61967452
  atomic energy  EATOM  =     27259.89416086
  Solvation  Ediel_sol  =         0.00000000
  ---------------------------------------------------
  free energy    TOTEN  =      -241.11036491 eV

  energy without entropy =     -241.11679726  energy(sigma->0) =     -241.11250903


--------------------------------------------------------------------------------------------------------




--------------------------------------- Iteration      1(   4)  ---------------------------------------


     EDDAV:  cpu time   19.3886: real time   19.5260
       DOS:  cpu time    0.0012: real time    0.0012
    --------------------------------------------
      LOOP:  cpu time   19.3898: real time   19.5272

 eigenvalue-minimisations  :  2336
 total energy-change (2. order) :-0.7640210E+01  (-0.7376776E+01)
 number of electron     376.0000000 magnetization 
 augmentation part      376.0000000 magnetization 

 Free energy of the ion-electron system (eV)
  ---------------------------------------------------
  alpha Z        PSCENC =       975.10247152
  Ewald energy   TEWEN  =     91196.19239917
  -Hartree energ DENC   =   -120287.52001506
  -exchange      EXHF   =         0.00000000
  -V(xc)+E(xc)   XCENC  =       189.48760310
  PAW double counting   =     24789.08602224   -23775.73976456
  entropy T*S    EENTRO =         0.01376644
  eigenvalues    EBANDS =      -595.26721850
  atomic energy  EATOM  =     27259.89416086
  Solvation  Ediel_sol  =         0.00000000
  ---------------------------------------------------
  free energy    TOTEN  =      -248.75057480 eV

  energy without entropy =     -248.76434124  energy(sigma->0) =     -248.75516361


--------------------------------------------------------------------------------------------------------




--------------------------------------- Iteration      1(   5)  ---------------------------------------


     EDDAV:  cpu time   18.1432: real time   18.2689
       DOS:  cpu time    0.0011: real time    0.0011
    CHARGE:  cpu time    0.9840: real time    0.9906
    MIXING:  cpu time    0.0096: real time    0.0096
    --------------------------------------------
      LOOP:  cpu time   19.1379: real time   19.2702

 eigenvalue-minimisations  :  2384
 total energy-change (2. order) :-0.2207576E+00  (-0.2191147E+00)
 number of electron     376.0000049 magnetization 
 augmentation part      105.7446901 magnetization 

 Broyden mixing:
  rms(total) = 0.27592E+01    rms(broyden)= 0.27588E+01
  rms(prec ) = 0.30844E+01
  weight for this iteration     100.00

 Free energy of the ion-electron system (eV)
  ---------------------------------------------------
  alpha Z        PSCENC =       975.10247152
  Ewald energy   TEWEN  =     91196.19239917
  -Hartree energ DENC   =   -120287.52001506
  -exchange      EXHF   =         0.00000000
  -V(xc)+E(xc)   XCENC  =       189.48760310
  PAW double counting   =     24789.08602224   -23775.73976456
  entropy T*S    EENTRO =         0.01397008
  eigenvalues    EBANDS =      -595.48817977
  atomic energy  EATOM  =     27259.89416086
  Solvation  Ediel_sol  =         0.00000000
  ---------------------------------------------------
  free energy    TOTEN  =      -248.97133243 eV

  energy without entropy =     -248.98530251  energy(sigma->0) =     -248.97598913


--------------------------------------------------------------------------------------------------------




--------------------------------------- Iteration      1(   6)  ---------------------------------------


    POTLOK:  cpu time    0.1946: real time    0.1962
    SETDIJ:  cpu time    0.0118: real time    0.0119
    EDDIAG:  cpu time    2.5388: real time    2.5571
  RMM-DIIS:  cpu time    9.1941: real time    9.2618
    ORTHCH:  cpu time    0.3347: real time    0.3370
       DOS:  cpu time    0.0012: real time    0.0012
    CHARGE:  cpu time    1.0501: real time    1.0571
    MIXING:  cpu time    0.0080: real time    0.0080
    --------------------------------------------
      LOOP:  cpu time   13.3334: real time   13.4303

 eigenvalue-minimisations  :  1831
 total energy-change (2. order) : 0.1179221E+01  (-0.5571747E+01)
 number of electron     376.0000045 magnetization 
 augmentation part      113.0031308 magnetization 

 Broyden mixing:
  rms(total) = 0.30097E+01    rms(broyden)= 0.30087E+01
  rms(prec ) = 0.39842E+01
  weight for this iteration     100.00

 eigenvalues of (default mixing * dielectric matrix)
  average eigenvalue GAMMA=   0.4828
  0.4828

 Free energy of the ion-electron system (eV)
  ---------------------------------------------------
  alpha Z        PSCENC =       975.10247152
  Ewald energy   TEWEN  =     91196.19239917
  -Hartree energ DENC   =   -119810.28556966
  -exchange      EXHF   =         0.00000000
  -V(xc)+E(xc)   XCENC  =       182.42024044
  PAW double counting   =     26703.72234241   -25744.11104461
  entropy T*S    EENTRO =        -0.24453568
  eigenvalues    EBANDS =     -1010.48257580
  atomic energy  EATOM  =     27259.89416086
  Solvation  Ediel_sol  =         0.00000000
  ---------------------------------------------------
  free energy    TOTEN  =      -247.79211135 eV

  energy without entropy =     -247.54757568  energy(sigma->0) =     -247.71059946


--------------------------------------------------------------------------------------------------------




--------------------------------------- Iteration      1(   7)  ---------------------------------------


    POTLOK:  cpu time    0.1909: real time    0.1923
    SETDIJ:  cpu time    0.0110: real time    0.0111
    EDDIAG:  cpu time    2.6357: real time    2.6543
  RMM-DIIS:  cpu time    8.8155: real time    8.8795
    ORTHCH:  cpu time    0.3217: real time    0.3239
       DOS:  cpu time    0.0011: real time    0.0011
    CHARGE:  cpu time    0.9040: real time    0.9103
    MIXING:  cpu time    0.0080: real time    0.0080
    --------------------------------------------
      LOOP:  cpu time   12.8880: real time   12.9804

 eigenvalue-minimisations  :  1829
 total energy-change (2. order) : 0.8934745E+01  (-0.3372362E+01)
 number of electron     376.0000053 magnetization 
 augmentation part      111.4604391 magnetization 

 Broyden mixing:
  rms(total) = 0.17884E+01    rms(broyden)= 0.17874E+01
  rms(prec ) = 0.26004E+01
  weight for this iteration     100.00

 eigenvalues of (default mixing * dielectric matrix)
  average eigenvalue GAMMA=   0.6503
  1.0331  0.2675

 Free energy of the ion-electron system (eV)
  ---------------------------------------------------
  alpha Z        PSCENC =       975.10247152
  Ewald energy   TEWEN  =     91196.19239917
  -Hartree energ DENC   =   -120009.83114390
  -exchange      EXHF   =         0.00000000
  -V(xc)+E(xc)   XCENC  =       179.98786054
  PAW double counting   =     27357.93182591   -26405.58866711
  entropy T*S    EENTRO =        -0.10976557
  eigenvalues    EBANDS =      -792.43650753
  atomic energy  EATOM  =     27259.89416086
  Solvation  Ediel_sol  =         0.00000000
  ---------------------------------------------------
  free energy    TOTEN  =      -238.85736611 eV

  energy without entropy =     -238.74760053  energy(sigma->0) =     -238.82077758


--------------------------------------------------------------------------------------------------------




--------------------------------------- Iteration      1(   8)  ---------------------------------------


    POTLOK:  cpu time    0.1993: real time    0.2008
    SETDIJ:  cpu time    0.0105: real time    0.0106
    EDDIAG:  cpu time    2.4449: real time    2.4631
  RMM-DIIS:  cpu time    8.4712: real time    8.5340
    ORTHCH:  cpu time    0.2914: real time    0.2933
       DOS:  cpu time    0.0013: real time    0.0013
    CHARGE:  cpu time    0.6346: real time    0.6386
    MIXING:  cpu time    0.0045: real time    0.0045
    --------------------------------------------
      LOOP:  cpu time   12.0577: real time   12.1462

 eigenvalue-minimisations  :  1832
 total energy-change (2. order) :-0.5162445E+01  (-0.8021216E+00)
 number of electron     376.0000056 magnetization 
 augmentation part      112.4295974 magnetization 

 Broyden mixing:
  rms(total) = 0.25277E+01    rms(broyden)= 0.25276E+01
  rms(prec ) = 0.45801E+01
  weight for this iteration     100.00

 eigenvalues of (default mixing * dielectric matrix)
  average eigenvalue GAMMA=   0.5481
  1.2000  0.2876  0.1568

 Free energy of the ion-electron system (eV)
  ---------------------------------------------------
  alpha Z        PSCENC =       975.10247152
  Ewald energy   TEWEN  =     91196.19239917
  -Hartree energ DENC   =   -119933.91644061
  -exchange      EXHF   =         0.00000000
  -V(xc)+E(xc)   XCENC  =       178.82595791
  PAW double counting   =     28233.07085888   -27294.43763405
  entropy T*S    EENTRO =         0.06468322
  eigenvalues    EBANDS =      -858.81626840
  atomic energy  EATOM  =     27259.89416086
  Solvation  Ediel_sol  =         0.00000000
  ---------------------------------------------------
  free energy    TOTEN  =      -244.01981151 eV

  energy without entropy =     -244.08449472  energy(sigma->0) =     -244.04137258


--------------------------------------------------------------------------------------------------------




--------------------------------------- Iteration      1(   9)  ---------------------------------------


    POTLOK:  cpu time    0.1412: real time    0.1421
    SETDIJ:  cpu time    0.0103: real time    0.0104
    EDDIAG:  cpu time    2.1193: real time    2.1344
  RMM-DIIS:  cpu time    8.2432: real time    8.3267
    ORTHCH:  cpu time    0.3058: real time    0.3089
       DOS:  cpu time    0.0014: real time    0.0014
    CHARGE:  cpu time    0.9644: real time    0.9752
    MIXING:  cpu time    0.0074: real time    0.0074
    --------------------------------------------
      LOOP:  cpu time   11.7929: real time   11.9065

 eigenvalue-minimisations  :  1831
 total energy-change (2. order) : 0.1221755E+02  (-0.3724107E+00)
 number of electron     376.0000053 magnetization 
 augmentation part      112.6324675 magnetization 

 Broyden mixing:
  rms(total) = 0.84675E+00    rms(broyden)= 0.84661E+00
  rms(prec ) = 0.12998E+01
  weight for this iteration     100.00

 eigenvalues of (default mixing * dielectric matrix)
  average eigenvalue GAMMA=   0.5296
  1.3094  0.3460  0.3460  0.1170

 Free energy of the ion-electron system (eV)
  ---------------------------------------------------
  alpha Z        PSCENC =       975.10247152
  Ewald energy   TEWEN  =     91196.19239917
  -Hartree energ DENC   =   -119906.48057930
  -exchange      EXHF   =         0.00000000
  -V(xc)+E(xc)   XCENC  =       178.44770976
  PAW double counting   =     28677.35391864   -27745.44824930
  entropy T*S    EENTRO =        -0.02855211
  eigenvalues    EBANDS =      -866.83553867
  atomic energy  EATOM  =     27259.89416086
  Solvation  Ediel_sol  =         0.00000000
  ---------------------------------------------------
  free energy    TOTEN  =      -231.80225943 eV

  energy without entropy =     -231.77370732  energy(sigma->0) =     -231.79274206


--------------------------------------------------------------------------------------------------------




--------------------------------------- Iteration      1(  10)  ---------------------------------------


    POTLOK:  cpu time    0.2066: real time    0.2091
    SETDIJ:  cpu time    0.0107: real time    0.0107
    EDDIAG:  cpu time    2.5429: real time    2.5694
  RMM-DIIS:  cpu time    8.8875: real time    8.9771
    ORTHCH:  cpu time    0.2975: real time    0.3002
       DOS:  cpu time    0.0011: real time    0.0011
    CHARGE:  cpu time    0.9073: real time    0.9155
    MIXING:  cpu time    0.0081: real time    0.0082
    --------------------------------------------
      LOOP:  cpu time   12.8618: real time   12.9913

 eigenvalue-minimisations  :  1831
 total energy-change (2. order) : 0.9846701E+00  (-0.1182597E+00)
 number of electron     376.0000051 magnetization 
 augmentation part      112.7695870 magnetization 

 Broyden mixing:
  rms(total) = 0.47940E+00    rms(broyden)= 0.47906E+00
  rms(prec ) = 0.62808E+00
  weight for this iteration     100.00

 eigenvalues of (default mixing * dielectric matrix)
  average eigenvalue GAMMA=   0.5212
  1.3809  0.5047  0.3718  0.2335  0.1152

 Free energy of the ion-electron system (eV)
  ---------------------------------------------------
  alpha Z        PSCENC =       975.10247152
  Ewald energy   TEWEN  =     91196.19239917
  -Hartree energ DENC   =   -119917.79435038
  -exchange      EXHF   =         0.00000000
  -V(xc)+E(xc)   XCENC  =       178.36435606
  PAW double counting   =     29003.71547958   -28076.47320446
  entropy T*S    EENTRO =        -0.01995552
  eigenvalues    EBANDS =      -849.79894618
  atomic energy  EATOM  =     27259.89416086
  Solvation  Ediel_sol  =         0.00000000
  ---------------------------------------------------
  free energy    TOTEN  =      -230.81758936 eV

  energy without entropy =     -230.79763384  energy(sigma->0) =     -230.81093752


--------------------------------------------------------------------------------------------------------




--------------------------------------- Iteration      1(  11)  ---------------------------------------


    POTLOK:  cpu time    0.2069: real time    0.2092
    SETDIJ:  cpu time    0.0119: real time    0.0120
    EDDIAG:  cpu time    2.3766: real time    2.3994
  RMM-DIIS:  cpu time    8.7636: real time    8.8277
    ORTHCH:  cpu time    0.3040: real time    0.3061
       DOS:  cpu time    0.0013: real time    0.0013
    CHARGE:  cpu time    0.8149: real time    0.8199
    MIXING:  cpu time    0.0070: real time    0.0355
    --------------------------------------------
      LOOP:  cpu time   12.4861: real time   12.6111

 eigenvalue-minimisations  :  1831
 total energy-change (2. order) : 0.4319337E+00  (-0.3670036E-01)
 number of electron     376.0000051 magnetization 
 augmentation part      112.8613465 magnetization 

 Broyden mixing:
  rms(total) = 0.27325E+00    rms(broyden)= 0.27322E+00
  rms(prec ) = 0.33937E+00
  weight for this iteration     100.00

 eigenvalues of (default mixing * dielectric matrix)
  average eigenvalue GAMMA=   0.5804
  1.5104  0.7492  0.4730  0.3781  0.2566  0.1150

 Free energy of the ion-electron system (eV)
  ---------------------------------------------------
  alpha Z        PSCENC =       975.10247152
  Ewald energy   TEWEN  =     91196.19239917
  -Hartree energ DENC   =   -119900.90105030
  -exchange      EXHF   =         0.00000000
  -V(xc)+E(xc)   XCENC  =       178.28863698
  PAW double counting   =     29253.16755614   -28329.18121942
  entropy T*S    EENTRO =        -0.01031598
  eigenvalues    EBANDS =      -862.93829467
  atomic energy  EATOM  =     27259.89416086
  Solvation  Ediel_sol  =         0.00000000
  ---------------------------------------------------
  free energy    TOTEN  =      -230.38565570 eV

  energy without entropy =     -230.37533971  energy(sigma->0) =     -230.38221703


--------------------------------------------------------------------------------------------------------




--------------------------------------- Iteration      1(  12)  ---------------------------------------


    POTLOK:  cpu time    0.1894: real time    0.2407
    SETDIJ:  cpu time    0.0131: real time    0.0132
    EDDIAG:  cpu time    2.4156: real time    2.4443
  RMM-DIIS:  cpu time    7.9509: real time    8.0187
    ORTHCH:  cpu time    0.2768: real time    0.2789
       DOS:  cpu time    0.0013: real time    0.0013
    CHARGE:  cpu time    0.5020: real time    0.5059
    MIXING:  cpu time    0.0060: real time    0.0061
    --------------------------------------------
      LOOP:  cpu time   11.3551: real time   11.5091

 eigenvalue-minimisations  :  1833
 total energy-change (2. order) : 0.7385960E-01  (-0.1867940E-01)
 number of electron     376.0000049 magnetization 
 augmentation part      112.9709643 magnetization 

 Broyden mixing:
  rms(total) = 0.26367E+00    rms(broyden)= 0.26356E+00
  rms(prec ) = 0.30817E+00
  weight for this iteration     100.00

 eigenvalues of (default mixing * dielectric matrix)
  average eigenvalue GAMMA=   0.6679
  1.8361  1.0834  0.6817  0.4464  0.1148  0.2563  0.2563

 Free energy of the ion-electron system (eV)
  ---------------------------------------------------
  alpha Z        PSCENC =       975.10247152
  Ewald energy   TEWEN  =     91196.19239917
  -Hartree energ DENC   =   -119891.78326328
  -exchange      EXHF   =         0.00000000
  -V(xc)+E(xc)   XCENC  =       178.22459438
  PAW double counting   =     29537.66757570   -28617.28271893
  entropy T*S    EENTRO =        -0.02358863
  eigenvalues    EBANDS =      -868.30342688
  atomic energy  EATOM  =     27259.89416086
  Solvation  Ediel_sol  =         0.00000000
  ---------------------------------------------------
  free energy    TOTEN  =      -230.31179609 eV

  energy without entropy =     -230.28820746  energy(sigma->0) =     -230.30393322


--------------------------------------------------------------------------------------------------------




--------------------------------------- Iteration      1(  13)  ---------------------------------------


    POTLOK:  cpu time    0.1638: real time    0.1652
    SETDIJ:  cpu time    0.0106: real time    0.0107
    EDDIAG:  cpu time    2.1575: real time    2.1742
  RMM-DIIS:  cpu time    8.3626: real time    8.4309
    ORTHCH:  cpu time    0.3231: real time    0.3255
       DOS:  cpu time    0.0012: real time    0.0012
    CHARGE:  cpu time    0.9212: real time    0.9291
    MIXING:  cpu time    0.0077: real time    0.0078
    --------------------------------------------
      LOOP:  cpu time   11.9478: real time   12.0447

 eigenvalue-minimisations  :  1831
 total energy-change (2. order) : 0.3361910E-01  (-0.1550231E-01)
 number of electron     376.0000050 magnetization 
 augmentation part      112.9865635 magnetization 

 Broyden mixing:
  rms(total) = 0.20890E+00    rms(broyden)= 0.20889E+00
  rms(prec ) = 0.25339E+00
  weight for this iteration     100.00

 eigenvalues of (default mixing * dielectric matrix)
  average eigenvalue GAMMA=   0.7062
  2.1927  1.2315  0.8084  0.4742  0.1148  0.3216  0.2722  0.2342

 Free energy of the ion-electron system (eV)
  ---------------------------------------------------
  alpha Z        PSCENC =       975.10247152
  Ewald energy   TEWEN  =     91196.19239917
  -Hartree energ DENC   =   -119889.74949744
  -exchange      EXHF   =         0.00000000
  -V(xc)+E(xc)   XCENC  =       178.11746095
  PAW double counting   =     29815.27170459   -28898.22365294
  entropy T*S    EENTRO =        -0.02546100
  eigenvalues    EBANDS =      -866.85776271
  atomic energy  EATOM  =     27259.89416086
  Solvation  Ediel_sol  =         0.00000000
  ---------------------------------------------------
  free energy    TOTEN  =      -230.27817700 eV

  energy without entropy =     -230.25271599  energy(sigma->0) =     -230.26968999


--------------------------------------------------------------------------------------------------------




--------------------------------------- Iteration      1(  14)  ---------------------------------------


    POTLOK:  cpu time    0.2150: real time    0.2171
    SETDIJ:  cpu time    0.0115: real time    0.0116
    EDDIAG:  cpu time    2.5867: real time    2.6077
  RMM-DIIS:  cpu time    9.0222: real time    9.0975
    ORTHCH:  cpu time    0.3299: real time    0.3328
       DOS:  cpu time    0.0013: real time    0.0907
    CHARGE:  cpu time    0.9248: real time    0.9355
    MIXING:  cpu time    0.0106: real time    0.0106
    --------------------------------------------
      LOOP:  cpu time   13.1019: real time   13.3035

 eigenvalue-minimisations  :  1831
 total energy-change (2. order) : 0.4212245E-01  (-0.1031658E-01)
 number of electron     376.0000050 magnetization 
 augmentation part      112.9480889 magnetization 

 Broyden mixing:
  rms(total) = 0.10719E+00    rms(broyden)= 0.10705E+00
  rms(prec ) = 0.13917E+00
  weight for this iteration     100.00

 eigenvalues of (default mixing * dielectric matrix)
  average eigenvalue GAMMA=   0.7144
  2.3844  1.2480  0.8536  0.5706  0.4865  0.1148  0.2862  0.2558  0.2301

 Free energy of the ion-electron system (eV)
  ---------------------------------------------------
  alpha Z        PSCENC =       975.10247152
  Ewald energy   TEWEN  =     91196.19239917
  -Hartree energ DENC   =   -119890.52301293
  -exchange      EXHF   =         0.00000000
  -V(xc)+E(xc)   XCENC  =       178.02819130
  PAW double counting   =     29998.47238478   -29083.50858840
  entropy T*S    EENTRO =        -0.00715897
  eigenvalues    EBANDS =      -863.88690187
  atomic energy  EATOM  =     27259.89416086
  Solvation  Ediel_sol  =         0.00000000
  ---------------------------------------------------
  free energy    TOTEN  =      -230.23605455 eV

  energy without entropy =     -230.22889558  energy(sigma->0) =     -230.23366823


--------------------------------------------------------------------------------------------------------




--------------------------------------- Iteration      1(  15)  ---------------------------------------


    POTLOK:  cpu time    0.1744: real time    0.1766
    SETDIJ:  cpu time    0.0113: real time    0.0114
    EDDIAG:  cpu time    2.3590: real time    2.3901
  RMM-DIIS:  cpu time    8.5015: real time    8.6185
    ORTHCH:  cpu time    0.3306: real time    0.3342
       DOS:  cpu time    0.0012: real time    0.0012
    CHARGE:  cpu time    0.7953: real time    0.8042
    MIXING:  cpu time    0.0099: real time    0.0099
    --------------------------------------------
      LOOP:  cpu time   12.1831: real time   12.3462

 eigenvalue-minimisations  :  1832
 total energy-change (2. order) : 0.1231125E-01  (-0.2916162E-02)
 number of electron     376.0000050 magnetization 
 augmentation part      112.9553573 magnetization 

 Broyden mixing:
  rms(total) = 0.54378E-01    rms(broyden)= 0.54368E-01
  rms(prec ) = 0.66905E-01
  weight for this iteration     100.00

 eigenvalues of (default mixing * dielectric matrix)
  average eigenvalue GAMMA=   0.7048
  2.4825  1.2458  0.8035  0.8035  0.4712  0.1148  0.3657  0.2672  0.2672  0.2261

 Free energy of the ion-electron system (eV)
  ---------------------------------------------------
  alpha Z        PSCENC =       975.10247152
  Ewald energy   TEWEN  =     91196.19239917
  -Hartree energ DENC   =   -119892.08716570
  -exchange      EXHF   =         0.00000000
  -V(xc)+E(xc)   XCENC  =       178.02510360
  PAW double counting   =     30058.31268918   -29144.01212528
  entropy T*S    EENTRO =        -0.01643854
  eigenvalues    EBANDS =      -861.63483811
  atomic energy  EATOM  =     27259.89416086
  Solvation  Ediel_sol  =         0.00000000
  ---------------------------------------------------
  free energy    TOTEN  =      -230.22374330 eV

  energy without entropy =     -230.20730476  energy(sigma->0) =     -230.21826378


--------------------------------------------------------------------------------------------------------




--------------------------------------- Iteration      1(  16)  ---------------------------------------


    POTLOK:  cpu time    0.2057: real time    0.2078
    SETDIJ:  cpu time    0.0143: real time    0.0144
    EDDIAG:  cpu time    2.1066: real time    2.1289
  RMM-DIIS:  cpu time    9.3109: real time    9.4184
    ORTHCH:  cpu time    0.2954: real time    0.2976
       DOS:  cpu time    0.0011: real time    0.0012
    CHARGE:  cpu time    0.5934: real time    0.5983
    MIXING:  cpu time    0.0088: real time    0.0089
    --------------------------------------------
      LOOP:  cpu time   12.5362: real time   12.6755

 eigenvalue-minimisations  :  1827
 total energy-change (2. order) : 0.4818843E-02  (-0.6771192E-03)
 number of electron     376.0000050 magnetization 
 augmentation part      112.9579229 magnetization 

 Broyden mixing:
  rms(total) = 0.19751E-01    rms(broyden)= 0.19745E-01
  rms(prec ) = 0.23979E-01
  weight for this iteration     100.00

 eigenvalues of (default mixing * dielectric matrix)
  average eigenvalue GAMMA=   0.7158
  2.4973  1.2245  0.9266  0.9266  0.5768  0.5158  0.1148  0.3355  0.2718  0.2589
  0.2255

 Free energy of the ion-electron system (eV)
  ---------------------------------------------------
  alpha Z        PSCENC =       975.10247152
  Ewald energy   TEWEN  =     91196.19239917
  -Hartree energ DENC   =   -119892.57664159
  -exchange      EXHF   =         0.00000000
  -V(xc)+E(xc)   XCENC  =       178.02915116
  PAW double counting   =     30080.68396367   -29166.60205334
  entropy T*S    EENTRO =        -0.01508507
  eigenvalues    EBANDS =      -860.92729083
  atomic energy  EATOM  =     27259.89416086
  Solvation  Ediel_sol  =         0.00000000
  ---------------------------------------------------
  free energy    TOTEN  =      -230.21892445 eV

  energy without entropy =     -230.20383939  energy(sigma->0) =     -230.21389610


--------------------------------------------------------------------------------------------------------




--------------------------------------- Iteration      1(  17)  ---------------------------------------


    POTLOK:  cpu time    0.2129: real time    0.2148
    SETDIJ:  cpu time    0.0105: real time    0.0106
    EDDIAG:  cpu time    2.5576: real time    2.5763
  RMM-DIIS:  cpu time    8.9820: real time    9.0491
    ORTHCH:  cpu time    0.3286: real time    0.3308
       DOS:  cpu time    0.0012: real time    0.0012
    CHARGE:  cpu time    1.0186: real time    1.0257
    MIXING:  cpu time    0.0104: real time    0.0104
    --------------------------------------------
      LOOP:  cpu time   13.1219: real time   13.2189

 eigenvalue-minimisations  :  1821
 total energy-change (2. order) :-0.2050545E-03  (-0.1750669E-03)
 number of electron     376.0000050 magnetization 
 augmentation part      112.9579464 magnetization 

 Broyden mixing:
  rms(total) = 0.19063E-01    rms(broyden)= 0.19060E-01
  rms(prec ) = 0.23322E-01
  weight for this iteration     100.00

 eigenvalues of (default mixing * dielectric matrix)
  average eigenvalue GAMMA=   0.7401
  2.4715  1.3341  1.3341  1.0025  0.7256  0.4931  0.1148  0.3569  0.2254  0.2986
  0.2623  0.2623

 Free energy of the ion-electron system (eV)
  ---------------------------------------------------
  alpha Z        PSCENC =       975.10247152
  Ewald energy   TEWEN  =     91196.19239917
  -Hartree energ DENC   =   -119893.36916134
  -exchange      EXHF   =         0.00000000
  -V(xc)+E(xc)   XCENC  =       178.03462611
  PAW double counting   =     30082.15176817   -29168.04378564
  entropy T*S    EENTRO =        -0.01672191
  eigenvalues    EBANDS =      -860.16488644
  atomic energy  EATOM  =     27259.89416086
  Solvation  Ediel_sol  =         0.00000000
  ---------------------------------------------------
  free energy    TOTEN  =      -230.21912951 eV

  energy without entropy =     -230.20240760  energy(sigma->0) =     -230.21355554


--------------------------------------------------------------------------------------------------------




--------------------------------------- Iteration      1(  18)  ---------------------------------------


    POTLOK:  cpu time    0.2107: real time    0.2121
    SETDIJ:  cpu time    0.0129: real time    0.0130
    EDDIAG:  cpu time    2.4471: real time    2.4636
  RMM-DIIS:  cpu time    7.9926: real time    8.0468
    ORTHCH:  cpu time    0.2818: real time    0.2834
       DOS:  cpu time    0.0012: real time    0.0012
    CHARGE:  cpu time    0.5614: real time    0.5647
    MIXING:  cpu time    0.0087: real time    0.0088
    --------------------------------------------
      LOOP:  cpu time   11.5166: real time   11.5938

 eigenvalue-minimisations  :  1804
 total energy-change (2. order) :-0.1348773E-03  (-0.9889507E-04)
 number of electron     376.0000050 magnetization 
 augmentation part      112.9548573 magnetization 

 Broyden mixing:
  rms(total) = 0.13367E-01    rms(broyden)= 0.13366E-01
  rms(prec ) = 0.16537E-01
  weight for this iteration     100.00

 eigenvalues of (default mixing * dielectric matrix)
  average eigenvalue GAMMA=   0.7345
  2.4655  1.6570  1.3322  0.8625  0.8625  0.4567  0.4567  0.1148  0.3373  0.2780
  0.2248  0.2548  0.2454

 Free energy of the ion-electron system (eV)
  ---------------------------------------------------
  alpha Z        PSCENC =       975.10247152
  Ewald energy   TEWEN  =     91196.19239917
  -Hartree energ DENC   =   -119894.55754950
  -exchange      EXHF   =         0.00000000
  -V(xc)+E(xc)   XCENC  =       178.04078581
  PAW double counting   =     30079.91674214   -29165.72263081
  entropy T*S    EENTRO =        -0.01631318
  eigenvalues    EBANDS =      -859.06933040
  atomic energy  EATOM  =     27259.89416086
  Solvation  Ediel_sol  =         0.00000000
  ---------------------------------------------------
  free energy    TOTEN  =      -230.21926439 eV

  energy without entropy =     -230.20295121  energy(sigma->0) =     -230.21382666


--------------------------------------------------------------------------------------------------------




--------------------------------------- Iteration      1(  19)  ---------------------------------------


    POTLOK:  cpu time    0.1888: real time    0.1901
    SETDIJ:  cpu time    0.0103: real time    0.0104
    EDDIAG:  cpu time    2.0860: real time    2.1016
  RMM-DIIS:  cpu time    6.5917: real time    6.6397
    ORTHCH:  cpu time    0.3119: real time    0.3140
       DOS:  cpu time    0.0013: real time    0.0013
    --------------------------------------------
      LOOP:  cpu time    9.1898: real time    9.2571

 eigenvalue-minimisations  :  1351
 total energy-change (2. order) : 0.2642708E-05  (-0.4136779E-04)
 number of electron     376.0000050 magnetization 
 augmentation part      112.9548573 magnetization 

 Free energy of the ion-electron system (eV)
  ---------------------------------------------------
  alpha Z        PSCENC =       975.10247152
  Ewald energy   TEWEN  =     91196.19239917
  -Hartree energ DENC   =   -119895.17434150
  -exchange      EXHF   =         0.00000000
  -V(xc)+E(xc)   XCENC  =       178.04383615
  PAW double counting   =     30079.49929231   -29165.26958985
  entropy T*S    EENTRO =        -0.01596991
  eigenvalues    EBANDS =      -858.49152050
  atomic energy  EATOM  =     27259.89416086
  Solvation  Ediel_sol  =         0.00000000
  ---------------------------------------------------
  free energy    TOTEN  =      -230.21926174 eV

  energy without entropy =     -230.20329183  energy(sigma->0) =     -230.21393844


--------------------------------------------------------------------------------------------------------




 average (electrostatic) potential at core
  the test charge radii are     0.6991  0.7215  1.2059
  (the norm of the test charge is              1.0000)
       1 -56.2592       2 -74.4510       3 -76.1377       4 -72.3599       5 -72.3712
       6 -72.3499       7 -72.3660       8 -72.3907       9 -72.3620      10 -72.3517
      11 -72.3603      12 -72.3339      13 -72.9332      14 -73.0299      15 -73.0016
      16 -73.0502      17 -73.0082      18 -73.0266      19 -73.1133      20 -73.0653
      21 -73.0651      22 -73.0175      23 -73.0493      24 -72.9064      25 -73.0224
      26 -73.0166      27 -73.0792      28 -73.0179      29 -73.0337      30 -72.9300
      31 -72.4487      32 -72.3259      33 -72.4808      34 -72.3566      35 -72.4491
      36 -73.2973      37 -72.3779      38 -73.0646      39 -72.4341
 
 
 
 E-fermi :   1.0602     XC(G=0):  -6.6214     alpha+bet : -6.8913


 k-point     1 :       0.0000    0.0000    0.0000
  band No.  band energies     occupation 
      1     -22.0320      2.00000
      2     -16.4490      2.00000
      3      -8.7222      2.00000
      4      -8.1695      2.00000
      5      -6.8033      2.00000
      6      -5.9555      2.00000
      7      -5.8164      2.00000
      8      -5.7687      2.00000
      9      -5.7538      2.00000
     10      -5.7465      2.00000
     11      -5.6773      2.00000
     12      -5.6726      2.00000
     13      -5.6347      2.00000
     14      -5.6094      2.00000
     15      -5.4069      2.00000
     16      -5.2433      2.00000
     17      -5.1302      2.00000
     18      -5.1197      2.00000
     19      -5.0837      2.00000
     20      -5.0689      2.00000
     21      -5.0596      2.00000
     22      -5.0185      2.00000
     23      -4.6546      2.00000
     24      -4.6164      2.00000
     25      -4.6017      2.00000
     26      -4.5758      2.00000
     27      -4.5415      2.00000
     28      -4.5369      2.00000
     29      -4.4162      2.00000
     30      -4.4014      2.00000
     31      -4.3851      2.00000
     32      -4.3704      2.00000
     33      -4.3377      2.00000
     34      -4.2758      2.00000
     35      -4.1807      2.00000
     36      -4.1698      2.00000
     37      -4.1592      2.00000
     38      -4.1335      2.00000
     39      -4.1152      2.00000
     40      -4.0988      2.00000
     41      -4.0773      2.00000
     42      -4.0719      2.00000
     43      -4.0515      2.00000
     44      -4.0385      2.00000
     45      -4.0314      2.00000
     46      -3.9931      2.00000
     47      -3.5522      2.00000
     48      -3.5002      2.00000
     49      -3.4638      2.00000
     50      -3.4564      2.00000
     51      -3.4383      2.00000
     52      -3.4135      2.00000
     53      -3.3649      2.00000
     54      -3.3575      2.00000
     55      -3.3324      2.00000
     56      -3.3075      2.00000
     57      -3.2862      2.00000
     58      -3.2613      2.00000
     59      -3.1887      2.00000
     60      -3.1129      2.00000
     61      -2.9465      2.00000
     62      -2.8260      2.00000
     63      -2.7564      2.00000
     64      -2.6634      2.00000
     65      -2.6335      2.00000
     66      -2.5964      2.00000
     67      -2.5654      2.00000
     68      -2.5315      2.00000
     69      -2.5196      2.00000
     70      -2.4934      2.00000
     71      -2.4586      2.00000
     72      -2.4480      2.00000
     73      -2.4303      2.00000
     74      -2.4133      2.00000
     75      -2.4082      2.00000
     76      -2.3950      2.00000
     77      -2.3889      2.00000
     78      -2.3742      2.00000
     79      -2.3662      2.00000
     80      -2.3552      2.00000
     81      -2.3493      2.00000
     82      -2.3330      2.00000
     83      -2.2914      2.00000
     84      -2.2708      2.00000
     85      -2.2459      2.00000
     86      -2.1629      2.00000
     87      -2.1580      2.00000
     88      -2.1487      2.00000
     89      -2.1317      2.00000
     90      -2.0763      2.00000
     91      -2.0553      2.00000
     92      -2.0473      2.00000
     93      -2.0327      2.00000
     94      -1.9875      2.00000
     95      -1.9713      2.00000
     96      -1.9458      2.00000
     97      -1.9054      2.00000
     98      -1.8017      2.00000
     99      -1.7878      2.00000
    100      -1.7663      2.00000
    101      -1.6731      2.00000
    102      -1.6613      2.00000
    103      -1.6516      2.00000
    104      -1.6283      2.00000
    105      -1.5889      2.00000
    106      -1.5823      2.00000
    107      -1.5753      2.00000
    108      -1.5685      2.00000
    109      -1.5317      2.00000
    110      -1.5294      2.00000
    111      -1.5165      2.00000
    112      -1.4975      2.00000
    113      -1.4738      2.00000
    114      -1.3179      2.00000
    115      -1.3080      2.00000
    116      -1.1572      2.00000
    117      -1.0836      2.00000
    118      -1.0496      2.00000
    119      -0.9944      2.00000
    120      -0.9777      2.00000
    121      -0.9456      2.00000
    122      -0.9301      2.00000
    123      -0.9020      2.00000
    124      -0.8941      2.00000
    125      -0.8723      2.00000
    126      -0.8534      2.00000
    127      -0.8131      2.00000
    128      -0.7596      2.00000
    129      -0.7108      2.00000
    130      -0.7018      2.00000
    131      -0.6960      2.00000
    132      -0.6829      2.00000
    133      -0.6621      2.00000
    134      -0.5849      2.00000
    135      -0.5372      2.00000
    136      -0.5087      2.00000
    137      -0.4672      2.00000
    138      -0.4385      2.00000
    139      -0.4187      2.00000
    140      -0.4097      2.00000
    141      -0.2965      2.00000
    142      -0.2852      2.00000
    143      -0.2197      2.00000
    144      -0.2135      2.00000
    145      -0.1967      2.00000
    146      -0.1616      2.00000
    147      -0.1017      2.00000
    148      -0.0731      2.00000
    149      -0.0047      2.00000
    150       0.0275      2.00000
    151       0.0596      2.00000
    152       0.0833      2.00000
    153       0.0911      2.00000
    154       0.1106      2.00000
    155       0.1160      2.00000
    156       0.1775      2.00000
    157       0.1831      2.00000
    158       0.2249      2.00000
    159       0.2507      2.00000
    160       0.2778      2.00000
    161       0.2844      2.00000
    162       0.2970      2.00000
    163       0.2998      2.00000
    164       0.3194      2.00000
    165       0.3286      2.00000
    166       0.3518      2.00001
    167       0.3607      2.00001
    168       0.3670      2.00001
    169       0.4020      2.00003
    170       0.4223      2.00006
    171       0.4795      2.00032
    172       0.4963      2.00049
    173       0.5713      2.00295
    174       0.5747      2.00318
    175       0.5916      2.00454
    176       0.5992      2.00529
    177       0.6231      2.00838
    178       0.6480      2.01306
    179       0.6702      2.01871
    180       0.6782      2.02113
    181       0.7111      2.03319
    182       0.7374      2.04480
    183       0.7735      2.06095
    184       0.7778      2.06265
    185       0.7804      2.06360
    186       0.7816      2.06403
    187       0.7930      2.06765
    188       0.7956      2.06832
    189       0.8096      2.07067
    190       0.8102      2.07072
    191       0.8228      2.07046
    192       0.8362      2.06705
    193       0.8443      2.06311
    194       0.8666      2.04298
    195       0.9097      1.95391
    196       1.0454      1.12517
    197       1.0611      0.99317
    198       1.1459      0.34351
    199       1.1676      0.22093
    200       1.1843      0.14202
    201       1.2016      0.07546
    202       1.2216      0.01639
    203       1.2280      0.00143
    204       1.3789     -0.04674
    205       1.4611     -0.01577
    206       1.8779     -0.00000
    207       1.9621     -0.00000
    208       2.0199     -0.00000
    209       2.0522     -0.00000
    210       2.1375     -0.00000
    211       2.5148     -0.00000
    212       3.5129     -0.00000
    213       4.0144     -0.00000
    214       4.3401     -0.00000
    215       4.3650     -0.00000
    216       4.4066     -0.00000
    217       4.5891     -0.00000
    218       4.8930     -0.00000
    219       5.4003     -0.00000
    220       5.6726     -0.00000
    221       5.8159     -0.00000
    222       5.8257     -0.00000
    223       5.8391     -0.00000
    224       5.9174     -0.00000
    225       5.9472     -0.00000
    226       6.0593     -0.00000
    227       6.5447      0.00000
    228       6.8796      0.00000

 k-point     2 :       0.5000    0.0000    0.0000
  band No.  band energies     occupation 
      1     -22.0318      2.00000
      2     -16.4486      2.00000
      3      -8.7024      2.00000
      4      -7.3405      2.00000
      5      -7.2728      2.00000
      6      -6.0911      2.00000
      7      -5.9852      2.00000
      8      -5.9190      2.00000
      9      -5.8681      2.00000
     10      -5.7219      2.00000
     11      -5.4811      2.00000
     12      -5.4298      2.00000
     13      -5.3367      2.00000
     14      -5.2950      2.00000
     15      -5.0018      2.00000
     16      -4.9626      2.00000
     17      -4.9233      2.00000
     18      -4.9140      2.00000
     19      -4.9007      2.00000
     20      -4.8827      2.00000
     21      -4.8597      2.00000
     22      -4.8465      2.00000
     23      -4.8254      2.00000
     24      -4.8015      2.00000
     25      -4.7734      2.00000
     26      -4.7534      2.00000
     27      -4.7416      2.00000
     28      -4.7046      2.00000
     29      -4.6416      2.00000
     30      -4.5095      2.00000
     31      -4.4249      2.00000
     32      -4.3790      2.00000
     33      -4.3726      2.00000
     34      -4.3679      2.00000
     35      -4.3169      2.00000
     36      -4.1093      2.00000
     37      -4.0630      2.00000
     38      -4.0270      2.00000
     39      -4.0130      2.00000
     40      -3.9874      2.00000
     41      -3.9737      2.00000
     42      -3.9314      2.00000
     43      -3.9110      2.00000
     44      -3.7723      2.00000
     45      -3.7257      2.00000
     46      -3.7031      2.00000
     47      -3.6604      2.00000
     48      -3.6493      2.00000
     49      -3.6122      2.00000
     50      -3.5958      2.00000
     51      -3.4683      2.00000
     52      -3.4343      2.00000
     53      -3.4099      2.00000
     54      -3.3810      2.00000
     55      -3.3467      2.00000
     56      -3.2710      2.00000
     57      -3.2559      2.00000
     58      -3.2132      2.00000
     59      -3.1838      2.00000
     60      -3.1497      2.00000
     61      -3.1260      2.00000
     62      -3.0842      2.00000
     63      -3.0559      2.00000
     64      -3.0287      2.00000
     65      -2.9757      2.00000
     66      -2.9494      2.00000
     67      -2.9158      2.00000
     68      -2.8483      2.00000
     69      -2.8269      2.00000
     70      -2.7778      2.00000
[...]
     89      -2.1639      2.00000
     90      -2.1478      2.00000
     91      -2.1266      2.00000
     92      -2.1041      2.00000
     93      -2.0758      2.00000
     94      -2.0071      2.00000
     95      -1.9632      2.00000
     96      -1.9460      2.00000
     97      -1.9113      2.00000
     98      -1.9065      2.00000
     99      -1.8708      2.00000
    100      -1.8272      2.00000
    101      -1.7906      2.00000
    102      -1.7563      2.00000
    103      -1.7413      2.00000
    104      -1.7179      2.00000
    105      -1.7137      2.00000
    106      -1.6804      2.00000
    107      -1.6591      2.00000
    108      -1.6497      2.00000
    109      -1.5893      2.00000
    110      -1.5566      2.00000
    111      -1.5188      2.00000
    112      -1.4510      2.00000
    113      -1.4480      2.00000
    114      -1.3330      2.00000
    115      -1.3123      2.00000
    116      -1.2757      2.00000
    117      -1.2196      2.00000
    118      -1.1891      2.00000
    119      -1.1371      2.00000
    120      -1.0783      2.00000
    121      -1.0493      2.00000
    122      -1.0437      2.00000
    123      -1.0194      2.00000
    124      -1.0065      2.00000
    125      -0.9940      2.00000
    126      -0.9613      2.00000
    127      -0.9485      2.00000
    128      -0.9328      2.00000
    129      -0.9184      2.00000
    130      -0.8921      2.00000
    131      -0.8702      2.00000
    132      -0.8091      2.00000
    133      -0.7737      2.00000
    134      -0.7395      2.00000
    135      -0.7265      2.00000
    136      -0.7051      2.00000
    137      -0.6995      2.00000
    138      -0.6491      2.00000
    139      -0.5923      2.00000
    140      -0.5618      2.00000
    141      -0.5083      2.00000
    142      -0.4472      2.00000
    143      -0.4106      2.00000
    144      -0.3157      2.00000
    145      -0.2599      2.00000
    146      -0.2031      2.00000
    147      -0.2013      2.00000
    148      -0.1511      2.00000
    149      -0.1092      2.00000
    150      -0.0632      2.00000
    151      -0.0395      2.00000
    152       0.0318      2.00000
    153       0.0470      2.00000
    154       0.0706      2.00000
    155       0.0841      2.00000
    156       0.1060      2.00000
    157       0.1163      2.00000
    158       0.1717      2.00000
    159       0.1948      2.00000
    160       0.2028      2.00000
    161       0.2390      2.00000
    162       0.2926      2.00000
    163       0.3103      2.00000
    164       0.3472      2.00000
    165       0.3580      2.00000
    166       0.3894      2.00001
    167       0.4963      2.00023
    168       0.5855      2.00215
    169       0.5913      2.00245
    170       0.6113      2.00378
    171       0.6537      2.00872
    172       0.6715      2.01197
    173       0.7084      2.02166
    174       0.7754      2.04920
    175       0.7815      2.05200
    176       0.8028      2.06126
    177       0.8500      2.07061
    178       0.8689      2.06521
    179       0.9065      2.02662
    180       0.9189      2.00331
    181       0.9391      1.95135
    182       1.0048      1.64600
    183       1.0446      1.36403
    184       1.0800      1.07418
    185       1.0892      0.99663
    186       1.0982      0.92037
    187       1.1307      0.65353
    188       1.1374      0.60194
    189       1.1578      0.45312
    190       1.1721      0.35808
    191       1.3089     -0.06533
    192       1.3250     -0.07028
    193       1.3525     -0.06853
    194       1.3894     -0.05504
    195       1.4116     -0.04485
    196       1.4865     -0.01658
    197       1.6053     -0.00159
    198       1.6974     -0.00015
    199       1.8109     -0.00000
    200       1.9810     -0.00000
    201       2.2550     -0.00000
    202       2.3167     -0.00000
    203       2.7914     -0.00000
    204       2.9291     -0.00000
    205       2.9594     -0.00000
    206       2.9790     -0.00000
    207       2.9887     -0.00000
    208       3.1967     -0.00000
    209       3.4071     -0.00000
    210       3.5162     -0.00000
    211       3.5474     -0.00000
    212       3.6083     -0.00000
    213       3.7290     -0.00000
    214       3.8040     -0.00000
    215       3.9399     -0.00000
    216       4.1652     -0.00000
    217       4.2015     -0.00000
    218       4.4025     -0.00000
    219       4.4597     -0.00000
    220       4.6121     -0.00000
    221       4.6473     -0.00000
    222       4.8264     -0.00000
    223       5.1838     -0.00000
    224       5.4935     -0.00000
    225       5.9347     -0.00000
    226       6.5256     -0.00000
    227       6.5605      0.00000
    228       6.6197      0.00000


--------------------------------------------------------------------------------------------------------


 soft charge-density along one line, spin component           1
         0         1         2         3         4         5         6         7         8         9
 total charge-density along one line
 
 pseudopotential strength for first ion, spin component:           1
 10.098   0.015   0.004   0.011  -0.000  -0.004  -0.010   0.001
  0.015  -0.002  -0.000  -0.000  -0.000  -0.000  -0.000   0.000
  0.004  -0.000  -4.243  -0.008   0.001  -0.011  -0.003   0.000
  0.011  -0.000  -0.008  -4.261   0.004  -0.003  -0.017   0.001
 -0.000  -0.000   0.001   0.004  -4.241   0.000   0.001  -0.010
 -0.004  -0.000  -0.011  -0.003   0.000  -0.770  -0.000   0.000
 -0.010  -0.000  -0.003  -0.017   0.001  -0.000  -0.770   0.000
  0.001   0.000   0.000   0.001  -0.010   0.000   0.000  -0.770
 total augmentation occupancy for first ion, spin component:           1
  1.638  -0.905   0.016   0.022  -0.060   0.034   0.089  -0.029
 -0.905   1.281  -0.212  -0.580   0.122  -0.086  -0.241   0.044
  0.016  -0.212   0.857   0.197  -0.002   0.118   0.055  -0.006
  0.022  -0.580   0.197   1.342  -0.029   0.055   0.251  -0.015
 -0.060   0.122  -0.002  -0.029   0.801  -0.006  -0.016   0.102
  0.034  -0.086   0.118   0.055  -0.006   0.021   0.022  -0.004
  0.089  -0.241   0.055   0.251  -0.016   0.022   0.072  -0.008
 -0.029   0.044  -0.006  -0.015   0.102  -0.004  -0.008   0.015


------------------------ aborting loop because EDIFF is reached ----------------------------------------


    CHARGE:  cpu time    0.7370: real time    0.7453
    FORLOC:  cpu time    0.0620: real time    0.0628
    FORNL :  cpu time    3.5925: real time    3.6299
    STRESS:  cpu time   12.6803: real time   12.7969
    FORCOR:  cpu time    0.2313: real time    0.2328
    FORHAR:  cpu time    0.1027: real time    0.1035
    MIXING:  cpu time    0.0067: real time    0.0068
    OFIELD:  cpu time    0.0001: real time    0.0001

  FORCE on cell =-STRESS in cart. coord.  units (eV):
  Direction    XX          YY          ZZ          XY          YZ          ZX
  --------------------------------------------------------------------------------------
  Alpha Z   975.10247   975.10247   975.10247
  Ewald  111019.68766111019.37005************  -184.75113   248.92102   -91.54196
  Hartree117786.07862117760.57102************  -124.84663   108.09042   -50.07529
  E(xc)   -1665.95884 -1665.69726 -1673.13302    -0.41521     0.69350    -0.24615
  Local  ************************239446.00324   300.92897  -333.70795   134.16783
  n-local   122.85910   122.14354    89.09876    -0.51622     0.80238     0.31537
  augment  1896.06827  1893.94562  1931.54392     1.97467    -4.04089     0.97339
  Kinetic  5525.23630  5516.21684  5597.80091     8.58715   -20.63787     7.22464
  Fock        0.00000     0.00000     0.00000     0.00000     0.00000     0.00000
  -------------------------------------------------------------------------------------
  Total     -36.26205   -38.62355    -3.10066     0.96160     0.12062     0.81784
  in kB     -43.18870   -46.00129    -3.69293     1.14528     0.14366     0.97406
  external pressure =      -30.96 kB  Pullay stress =        0.00 kB


 VOLUME and BASIS-vectors are now :
 -----------------------------------------------------------------------------
  energy-cutoff  :      450.00
  volume of cell :     1345.22
      direct lattice vectors                 reciprocal lattice vectors
     7.296955120 -4.212899000  0.000000000     0.137043463  0.000000000  0.000000000
     0.000000000  8.425798000  0.000000000     0.068521732  0.118683121  0.000000000
     0.000000000  0.000000000 21.879635000     0.000000000  0.000000000  0.045704602

  length of vectors
     8.425798004  8.425798000 21.879635000     0.137043463  0.137043463  0.045704602


 FORCES acting on ions
    electron-ion (+dipol)            ewald-force                    non-local-force                 convergence-correction
 -----------------------------------------------------------------------------------------------
   0.395E+01 0.965E+01 -.873E+03   -.408E+01 -.148E+02 0.859E+03   0.662E-01 0.347E+01 0.109E+02   0.197E-03 0.485E-02 0.503E-01
   -.883E+02 0.581E+02 -.159E+04   0.900E+02 -.561E+02 0.161E+04   -.112E+01 -.183E+01 -.229E+02   -.588E-02 0.147E-02 0.868E-02
   0.663E+02 -.108E+03 -.155E+04   -.767E+02 0.130E+03 0.161E+04   0.104E+02 -.208E+02 -.585E+02   0.152E-01 -.175E-01 -.173E-01
   0.290E+00 0.272E+00 0.234E+04   -.316E+00 -.256E+00 -.234E+04   0.300E-01 -.379E-01 -.121E+01   -.108E-01 -.370E-01 -.112E-01
   -.149E+00 0.195E+00 0.234E+04   0.182E+00 -.250E+00 -.234E+04   -.410E-02 -.310E-01 -.112E+01   -.748E-01 0.416E-01 -.276E-01
   0.192E+00 0.254E+00 0.234E+04   -.330E+00 -.273E+00 -.234E+04   0.204E-01 0.316E-02 -.114E+01   0.900E-01 0.318E-02 -.302E-01
   0.483E+00 0.671E+00 0.234E+04   -.473E+00 -.636E+00 -.234E+04   0.116E-01 0.111E-01 -.118E+01   -.189E-01 0.282E-01 -.255E-01
   -.608E-02 0.653E+00 0.234E+04   0.839E-02 -.642E+00 -.234E+04   0.133E-02 0.231E-01 -.125E+01   -.148E-01 -.112E-01 -.322E-01
   0.587E+00 0.568E+00 0.234E+04   -.642E+00 -.641E+00 -.234E+04   0.622E-02 0.136E-01 -.122E+01   0.822E-01 0.670E-01 0.186E-01
   -.669E+00 -.101E+01 0.234E+04   0.812E+00 0.893E+00 -.234E+04   -.629E-01 0.101E+00 -.115E+01   -.713E-01 -.308E-01 -.542E-01
   -.355E+00 -.787E+00 0.234E+04   0.299E+00 0.913E+00 -.234E+04   -.133E-01 -.208E-01 -.124E+01   0.938E-01 -.702E-01 0.438E-02
   -.357E+00 -.903E+00 0.234E+04   0.460E+00 0.892E+00 -.234E+04   -.585E-02 0.571E-02 -.107E+01   -.753E-01 0.899E-02 0.132E-01
   -.644E+01 -.736E+01 0.856E+03   0.649E+01 0.736E+01 -.856E+03   0.152E+00 0.525E-01 -.468E+00   -.120E+00 0.367E-01 0.302E-01
   -.432E+01 -.507E+01 0.857E+03   0.418E+01 0.516E+01 -.857E+03   0.973E-01 0.111E+00 -.186E+00   0.726E-01 -.552E-01 0.536E-01
   0.929E+00 -.903E+01 0.857E+03   -.819E+00 0.903E+01 -.857E+03   -.463E-01 0.200E+00 -.398E+00   -.117E-01 -.849E-01 -.374E-02
   -.176E+01 0.559E+01 0.860E+03   0.178E+01 -.567E+01 -.860E+03   0.542E-01 0.247E-01 -.379E+00   -.174E-01 -.217E-01 0.163E-01
   0.413E+01 0.400E+01 0.856E+03   -.430E+01 -.410E+01 -.856E+03   0.446E-01 -.203E-01 -.235E+00   0.546E-01 0.947E-01 0.971E-01
   0.417E+01 0.506E+01 0.858E+03   -.424E+01 -.509E+01 -.858E+03   -.110E-01 -.114E-01 -.298E+00   0.667E-02 0.377E-02 -.529E-02
   -.103E+01 0.206E+01 0.868E+03   0.109E+01 -.196E+01 -.868E+03   -.220E-01 -.106E+00 -.614E+00   -.411E-01 -.148E-01 -.535E-02
   0.213E+01 0.945E+00 0.864E+03   -.225E+01 -.884E+00 -.864E+03   -.218E-01 -.459E-01 -.523E+00   0.113E+00 -.399E-01 0.628E-01
   0.198E+01 0.422E+01 0.868E+03   -.186E+01 -.415E+01 -.867E+03   -.105E-01 -.203E+00 -.615E+00   -.577E-01 0.817E-01 0.196E-01
   0.718E+01 0.111E+01 -.635E+03   -.732E+01 -.118E+01 0.635E+03   -.154E+00 0.156E+00 0.828E+00   0.237E-01 -.473E-01 0.755E-01
   -.785E+01 -.443E+00 -.632E+03   0.781E+01 0.596E+00 0.632E+03   0.183E+00 -.728E-01 0.576E+00   0.584E-01 -.641E-01 0.734E-01
   -.672E+01 0.951E+01 -.666E+03   0.641E+01 -.906E+01 0.666E+03   0.501E+00 -.680E+00 -.715E-01   -.253E-02 -.215E-01 0.810E-01
   -.290E+01 0.827E+01 -.643E+03   0.242E+01 -.755E+01 0.643E+03   0.528E+00 -.622E+00 -.798E-01   -.147E-01 -.684E-02 0.510E-01
   0.812E+01 -.455E+01 -.653E+03   -.755E+01 0.438E+01 0.653E+03   -.553E+00 0.152E+00 -.366E+00   0.186E-01 0.651E-01 0.133E+00
   0.122E+01 -.923E+01 -.626E+03   -.125E+01 0.905E+01 0.626E+03   -.968E-01 0.159E+00 0.114E+01   -.587E-01 0.467E-01 0.553E-02
   -.153E+01 -.137E+02 -.622E+03   0.166E+01 0.138E+02 0.622E+03   -.222E+00 0.365E+00 0.116E+01   -.343E-01 -.594E-01 -.409E-01
   0.460E+01 0.632E+01 -.644E+03   -.463E+01 -.637E+01 0.644E+03   -.130E+00 -.211E+00 -.734E-01   0.830E-01 0.749E-02 0.107E+00
   -.439E+01 0.501E+01 -.645E+03   0.441E+01 -.532E+01 0.644E+03   0.223E+00 0.152E+00 0.422E+00   -.772E-01 0.873E-01 0.538E-01
   -.190E+02 -.107E+02 -.215E+04   0.194E+02 0.110E+02 0.214E+04   -.631E+00 -.730E-01 0.158E+01   0.336E-01 -.760E-01 0.524E-01
   0.200E+02 0.388E+02 -.214E+04   -.203E+02 -.394E+02 0.214E+04   0.274E+00 0.579E+00 0.124E+01   0.191E-01 -.803E-02 0.741E-01
   0.319E+02 -.151E+02 -.214E+04   -.323E+02 0.149E+02 0.214E+04   0.328E+00 0.291E+00 0.124E+01   0.229E-01 0.432E-01 0.517E-01
   -.361E+01 0.156E+01 -.217E+04   0.352E+01 -.191E+01 0.217E+04   0.404E-01 0.229E+00 0.848E+00   -.197E-01 0.451E-01 0.717E-01
   0.178E+02 0.234E+02 -.216E+04   -.180E+02 -.236E+02 0.216E+04   0.180E+00 -.396E-01 0.106E+01   0.364E-01 0.342E-01 0.725E-01
   0.757E+02 0.528E+02 -.200E+04   -.784E+02 -.510E+02 0.200E+04   0.248E+01 -.116E+01 -.344E+01   0.162E-01 -.383E-02 0.842E-01
   -.585E+02 -.525E+02 -.209E+04   0.599E+02 0.549E+02 0.209E+04   -.136E+01 -.236E+01 0.182E+01   -.487E-01 -.314E-01 0.125E+00
   -.698E+02 0.872E+02 -.202E+04   0.700E+02 -.876E+02 0.202E+04   -.254E+00 0.480E+00 -.601E+00   0.454E-02 -.261E-02 0.748E-01
   0.155E+02 -.650E+02 -.210E+04   -.151E+02 0.661E+02 0.210E+04   -.417E+00 -.889E+00 0.142E+01   -.425E-01 -.207E-01 0.149E-01
 -----------------------------------------------------------------------------------------------
   -.105E+02 0.228E+02 0.748E+02   -.142E-13 0.156E-12 0.318E-11   0.105E+02 -.226E+02 -.761E+02   0.267E-01 -.235E-01 0.132E+01
 
 
 POSITION                                       TOTAL-FORCE (eV/Angst)
 -----------------------------------------------------------------------------------
      5.09070      0.66812     10.42167        -0.061165     -1.677426     -2.203764
      6.65188     -0.57198     10.24297         0.599196      0.146794     -0.310907
      4.91308      1.05164     11.48356         0.014113      0.856917      1.987473
      7.20031     -1.38846      1.62732        -0.008339     -0.062687      0.133643
      2.33567      1.42014      1.62732        -0.046562     -0.048761      0.183077
      4.76799      0.01584      1.62732        -0.028664     -0.016549      0.153516
      7.20031      1.42015      1.62732         0.001651      0.069863      0.132995
      2.33567      4.22875      1.62732        -0.012489      0.019838      0.174031
      4.76799      2.82445      1.62732         0.032285      0.003319      0.135846
      2.33567      7.03734      1.62732         0.007133     -0.047012      0.035839
      4.76799      5.63304      1.62732         0.022752      0.030610      0.120619
      7.20031      4.22874      1.62732         0.020783      0.000193      0.008387
      1.52490      0.01584      3.92052         0.085022      0.078047     -0.207348
      3.95722     -1.38846      3.92052         0.029482      0.141634      0.011907
      6.38953     -2.79276      3.92052         0.050281      0.108960     -0.188074
      1.52490      2.82445      3.92052         0.049045     -0.086885     -0.144666
      3.95722      1.42015      3.92052        -0.071450     -0.030283      0.054310
      6.38953      0.01585      3.92052        -0.073817     -0.034715      0.044686
      1.52490      5.63305      3.92052        -0.002839     -0.022506     -0.417815
      3.95722      4.22874      3.92052        -0.022477     -0.028252     -0.265491
      6.38953      2.82445      3.92052         0.051257     -0.056633     -0.502083
      0.72697      4.21431      6.16964        -0.273183      0.031803      0.387514
      3.14482      5.63572      6.16457         0.198641      0.011915      0.161174
      5.54789     -1.35185      6.24065         0.182103     -0.253999     -0.036959
      0.68218      1.44420      6.19135         0.034897      0.080705      0.362616
      3.15363      0.01380      6.23427         0.037540      0.045659     -0.325106
      0.72358      7.02168      6.14028        -0.184001      0.017091      0.640541
      5.59848      4.20420      6.13385        -0.122320      0.330369      0.595556
      3.16173      2.82770      6.20571        -0.075980     -0.257886     -0.245083
      5.57624      1.40498      6.19857         0.173865     -0.069520      0.121120
      2.38664      4.21142      8.42628        -0.140300      0.130070      0.179750
      4.77121      5.59372      8.47125        -0.023002      0.001250     -0.272226
      2.32793      1.39316      8.47382        -0.015086      0.090667     -0.072886
      7.21405      4.21497      8.50102        -0.067129     -0.081682     -0.263401
      2.32647      7.02862      8.46487        -0.016337     -0.209932      0.067136
      4.68579      0.00404      8.67226        -0.185785      0.583665     -0.247535
      7.27012      1.45028      8.51957        -0.022182     -0.057262     -0.494106
      7.23498     -1.43715      8.56183        -0.070855      0.081525      0.541648
      4.81865      2.82271      8.45611        -0.066083      0.181094     -0.035935
 -----------------------------------------------------------------------------------
    total drift:                                0.052099      0.149861     -0.015930
  FORCES: max atom, RMS     2.770212    0.638400
  Number: max atom                 1
  FORCE total and by dimension    3.986804    2.203764


--------------------------------------------------------------------------------------------------------



  FREE ENERGIE OF THE ION-ELECTRON SYSTEM (eV)
  ---------------------------------------------------
  free  energy   TOTEN  =      -230.50706550 eV

  energy  without entropy=     -230.48804057  energy(sigma->0) =     -230.50072386
 
 d Force = 0.8949791E-01[ 0.252E-01, 0.154E+00]  d Energy = 0.9156204E-01-0.206E-02
 d Force =-0.3593045E+02[-0.362E+02,-0.356E+02]  d Ewald  =-0.3592898E+02-0.147E-02


--------------------------------------------------------------------------------------------------------


    POTLOK:  cpu time    0.2214: real time    0.3509


--------------------------------------------------------------------------------------------------------


 stress matrix after NEB project (eV)
    -36.26205      0.96160      0.81784
      0.96160    -38.62355      0.12062
      0.81784      0.12062     -3.10066
  FORCES: max atom, RMS     2.770212    0.638400
  FORCE total and by dimension    3.986804    2.203764
  Stress total and by dimension   53.099389   38.623552
 Quasi-Newton relaxation of ions (Broydens 2nd method)
  g(Force)  = 0.307E+00   g(Stress)= 0.000E+00

 retain information from N=  2 steps
 eigenvalues of (default step * inverse Hessian matrix)
  average eigenvalue of G=   0.5867
 eigenvalue spectrum of G is  1.0972  0.0761
  RESET_HESSIAN           0


--------------------------------------------------------------------------------------------------------


    WAVPRE:  cpu time    0.0786: real time    0.3644
    FEWALD:  cpu time    0.0014: real time    0.0014

 real space projection operators:
  total allocation   :      13550.44 KBytes
  max/ min on nodes  :       6780.55       6769.89

    ORTHCH:  cpu time    1.8121: real time    1.8397
     LOOP+:  cpu time  132.6387: real time  135.2631


--------------------------------------- Iteration      4(   1)  ---------------------------------------


    POTLOK:  cpu time    0.2157: real time    0.2554
    SETDIJ:  cpu time    0.0108: real time    0.0109
