metal                                   
           1
     7.296955   -4.212899    0.000000
     0.000000    8.425798    0.000000
     0.000000    0.000000   21.879635
   C    O    Pt
   1   2  36
Direct configuration=     1
   0.69938209  0.43309495  0.47569954
   0.90866236  0.38600884  0.46925842
   0.67124554  0.45995083  0.52558807
   0.98675500  0.32859100  0.07437600
   0.32008800  0.32859100  0.07437600
   0.65342200  0.32859100  0.07437600
   0.98675500  0.66192500  0.07437600
   0.32008800  0.66192500  0.07437600
   0.65342200  0.66192500  0.07437600
   0.32008800  0.99525800  0.07437600
   0.65342200  0.99525800  0.07437600
   0.98675500  0.99525800  0.07437600
   0.20897700  0.10636900  0.17918600
   0.54231100  0.10636900  0.17918600
   0.87564400  0.10636900  0.17918600
   0.20897700  0.43970300  0.17918600
   0.54231100  0.43970300  0.17918600
   0.87564400  0.43970300  0.17918600
   0.20897700  0.77303600  0.17918600
   0.54231100  0.77303600  0.17918600
   0.87564400  0.77303600  0.17918600
   0.10210329  0.55077942  0.28102861
   0.42880005  0.88295311  0.28127694
   0.75924368  0.22092218  0.28529073
   0.09322273  0.21762092  0.28211528
   0.43185390  0.21691343  0.28575421
   0.10069020  0.88369979  0.27884881
   0.76803151  0.88059816  0.27867391
   0.43364684  0.55454176  0.28430263
   0.76275763  0.54871531  0.28294172
   0.32823698  0.66293027  0.38467047
   0.65387931  0.99117522  0.38792680
   0.31899912  0.32439110  0.38739681
   0.98926999  0.99560396  0.38929299
   0.31943359  0.99543404  0.38675465
   0.64305973  0.31914793  0.39700358
   0.99623749  0.67044681  0.39048551
   0.99221062  0.32441782  0.38995835
   0.66026979  0.66425165  0.38648426
Direct configuration=     2
   0.69866929  0.43007300  0.47551993
   0.91020042  0.38691976  0.46854790
   0.67207487  0.46110657  0.52566366
   0.98675500  0.32859100  0.07437600
   0.32008800  0.32859100  0.07437600
   0.65342200  0.32859100  0.07437600
   0.98675500  0.66192500  0.07437600
   0.32008800  0.66192500  0.07437600
   0.65342200  0.66192500  0.07437600
   0.32008800  0.99525800  0.07437600
   0.65342200  0.99525800  0.07437600
   0.98675500  0.99525800  0.07437600
   0.20897700  0.10636900  0.17918600
   0.54231100  0.10636900  0.17918600
   0.87564400  0.10636900  0.17918600
   0.20897700  0.43970300  0.17918600
   0.54231100  0.43970300  0.17918600
   0.87564400  0.43970300  0.17918600
   0.20897700  0.77303600  0.17918600
   0.54231100  0.77303600  0.17918600
   0.87564400  0.77303600  0.17918600
   0.10057232  0.55030466  0.28157881
   0.43019089  0.88387476  0.28156388
   0.75981109  0.22017553  0.28525719
   0.09335887  0.21789377  0.28260536
   0.43205148  0.21745533  0.28527695
   0.09978077  0.88323370  0.27991961
   0.76758858  0.88179802  0.27967701
   0.43348591  0.55314110  0.28389359
   0.76361281  0.54877310  0.28315925
   0.32753236  0.66320209  0.38494033
   0.65389964  0.99092420  0.38747965
   0.31903142  0.32465639  0.38734956
   0.98888221  0.99496150  0.38884165
   0.31898543  0.99427634  0.38682338
   0.64273715  0.32062901  0.39673640
   0.99632617  0.67038742  0.38986141
   0.99178044  0.32493824  0.39075568
   0.66041975  0.66480785  0.38649164
Direct configuration=     3
   0.69764768  0.42811886  0.47631840
   0.91159650  0.38791404  0.46815090
   0.67330561  0.46146510  0.52485176
   0.98675500  0.32859100  0.07437600
   0.32008800  0.32859100  0.07437600
   0.65342200  0.32859100  0.07437600
   0.98675500  0.66192500  0.07437600
   0.32008800  0.66192500  0.07437600
   0.65342200  0.66192500  0.07437600
   0.32008800  0.99525800  0.07437600
   0.65342200  0.99525800  0.07437600
   0.98675500  0.99525800  0.07437600
   0.20897700  0.10636900  0.17918600
   0.54231100  0.10636900  0.17918600
   0.87564400  0.10636900  0.17918600
   0.20897700  0.43970300  0.17918600
   0.54231100  0.43970300  0.17918600
   0.87564400  0.43970300  0.17918600
   0.20897700  0.77303600  0.17918600
   0.54231100  0.77303600  0.17918600
   0.87564400  0.77303600  0.17918600
   0.09962656  0.54998023  0.28198111
   0.43097769  0.88435338  0.28174901
   0.76030224  0.21970944  0.28522645
   0.09348786  0.21814601  0.28297300
   0.43218491  0.21773060  0.28493481
   0.09916213  0.88293615  0.28063915
   0.76723518  0.88258466  0.28034496
   0.43329438  0.55224756  0.28362928
   0.76418767  0.54884134  0.28330328
   0.32707326  0.66336061  0.38511975
   0.65386323  0.99081186  0.38717530
   0.31902712  0.32485834  0.38729277
   0.98863853  0.99456558  0.38853552
   0.31882747  0.99359257  0.38688330
   0.64215701  0.32155811  0.39636212
   0.99632232  0.67028459  0.38938372
   0.99150691  0.32518794  0.39131500
   0.66036500  0.66519029  0.38648324
