 vasp.5.4.4 16052018 (build Apr 24 2014 20:13:14) complex standard
 Contain Constrained Minimization Technique (TS), Periodic NBO, VASPsol, libbeef, VASP2WANNIER90, Constrained Cell Relaxation
 executed on Center for Computational Chemistry by phu@node11 date 2025.11.24 21:37:34
 running on    8 total cores
 distrk:  each k-point on    8 cores,    1 groups
 distr:  one band on NCORES_PER_BAND=   2 cores,    4 groups


--------------------------------------------------------------------------------------------------------


 INCAR:
 POTCAR:   PAW_PBE C 08Apr2002                    
 POTCAR:   PAW_PBE O 08Apr2002                    
 POTCAR:    PAW_PBE Pt 04Feb2005                  
 POTCAR:   PAW_PBE C 08Apr2002                    
   VRHFIN =C: s2p2                                                              
   LEXCH  = PE                                                                  
   EATOM  =   147.1560 eV,   10.8157 Ry                                         
                                                                                
   TITEL  = PAW_PBE C 08Apr2002                                                 
   LULTRA =        F    use ultrasoft PP ?                                      
   IUNSCR =        0    unscreen: 0-lin 1-nonlin 2-no                           
   RPACOR =     .000    partial core radius                                     
   POMASS =   12.011; ZVAL   =    4.000    mass and valenz                      
   RCORE  =    1.500    outmost cutoff radius                                   
   RWIGS  =    1.630; RWIGS  =     .863    wigner-seitz radius (au A)           
   ENMAX  =  400.000; ENMIN  =  300.000 eV                                      
   ICORE  =        2    local potential                                         
   LCOR   =        T    correct aug charges                                     
   LPAW   =        T    paw PP                                                  
   EAUG   =  644.873                                                            
   DEXC   =     .000                                                            
   RMAX   =    2.266    core radius for proj-oper                               
   RAUG   =    1.300    factor for augmentation sphere                          
   RDEP   =    1.501    radius for radial grids                                 
   RDEPT  =    1.300    core radius for aug-charge                              
   QCUT   =   -5.516; QGAM   =   11.032    optimization parameters              
                                                                                
   Description                                                                  
     l     E      TYP  RCUT    TYP  RCUT                                        
     0   .000     23  1.200                                                     
     0   .000     23  1.200                                                     
     1   .000     23  1.500                                                     
     1  2.500     23  1.500                                                     
     2   .000      7  1.500                                                     
  local pseudopotential read in
  atomic valenz-charges read in
  non local Contribution for L=           0  read in
    real space projection operators read in
  non local Contribution for L=           0  read in
    real space projection operators read in
  non local Contribution for L=           1  read in
    real space projection operators read in
  non local Contribution for L=           1  read in
    real space projection operators read in
    PAW grid and wavefunctions read in
 
   number of l-projection  operators is LMAX  =           4
   number of lm-projection operators is LMMAX =           8
 
 POTCAR:   PAW_PBE O 08Apr2002                    
   VRHFIN =O: s2p4                                                              
   LEXCH  = PE                                                                  
   EATOM  =   432.3788 eV,   31.7789 Ry                                         
                                                                                
   TITEL  = PAW_PBE O 08Apr2002                                                 
   LULTRA =        F    use ultrasoft PP ?                                      
   IUNSCR =        0    unscreen: 0-lin 1-nonlin 2-no                           
   RPACOR =     .000    partial core radius                                     
   POMASS =   16.000; ZVAL   =    6.000    mass and valenz                      
   RCORE  =    1.520    outmost cutoff radius                                   
   RWIGS  =    1.550; RWIGS  =     .820    wigner-seitz radius (au A)           
   ENMAX  =  400.000; ENMIN  =  300.000 eV                                      
   ICORE  =        2    local potential                                         
   LCOR   =        T    correct aug charges                                     
   LPAW   =        T    paw PP                                                  
   EAUG   =  605.392                                                            
   DEXC   =     .000                                                            
   RMAX   =    2.264    core radius for proj-oper                               
   RAUG   =    1.300    factor for augmentation sphere                          
   RDEP   =    1.550    radius for radial grids                                 
   QCUT   =   -5.520; QGAM   =   11.041    optimization parameters              
                                                                                
   Description                                                                  
     l     E      TYP  RCUT    TYP  RCUT                                        
     0   .000     23  1.200                                                     
     0  -.700     23  1.200                                                     
     1   .000     23  1.520                                                     
     1   .600     23  1.520                                                     
     2   .000      7  1.500                                                     
  local pseudopotential read in
  atomic valenz-charges read in
  non local Contribution for L=           0  read in
    real space projection operators read in
  non local Contribution for L=           0  read in
    real space projection operators read in
  non local Contribution for L=           1  read in
    real space projection operators read in
  non local Contribution for L=           1  read in
    real space projection operators read in
    PAW grid and wavefunctions read in
 
   number of l-projection  operators is LMAX  =           4
   number of lm-projection operators is LMMAX =           8
 
 POTCAR:    PAW_PBE Pt 04Feb2005                  
   VRHFIN =Pt: s1d9                                                             
   LEXCH  = PE                                                                  
   EATOM  =   729.1182 eV,   53.5887 Ry                                         
                                                                                
   TITEL  = PAW_PBE Pt 04Feb2005                                                
   LULTRA =        F    use ultrasoft PP ?                                      
   IUNSCR =        1    unscreen: 0-lin 1-nonlin 2-no                           
   RPACOR =    2.330    partial core radius                                     
   POMASS =  195.080; ZVAL   =   10.000    mass and valenz                      
   RCORE  =    2.600    outmost cutoff radius                                   
   RWIGS  =    2.750; RWIGS  =    1.455    wigner-seitz radius (au A)           
   ENMAX  =  230.283; ENMIN  =  172.712 eV                                      
   ICORE  =        3    local potential                                         
   LCOR   =        T    correct aug charges                                     
   LPAW   =        T    paw PP                                                  
   EAUG   =  358.966                                                            
   DEXC   =     .000                                                            
   RMAX   =    3.038    core radius for proj-oper                               
   RAUG   =    1.300    factor for augmentation sphere                          
   RDEP   =    2.761    radius for radial grids                                 
   QCUT   =   -4.114; QGAM   =    8.228    optimization parameters              
                                                                                
   Description                                                                  
     l     E      TYP  RCUT    TYP  RCUT                                        
     2   .000     23  2.500                                                     
     2   .000     23  2.500                                                     
     0   .000     23  2.500                                                     
     0   .000     23  2.500                                                     
     1  -.200     23  2.600                                                     
     1  1.500     23  2.600                                                     
     3   .000     23  2.500                                                     
  local pseudopotential read in
  partial core-charges read in
  atomic valenz-charges read in
  non local Contribution for L=           2  read in
    real space projection operators read in
  non local Contribution for L=           2  read in
    real space projection operators read in
  non local Contribution for L=           0  read in
    real space projection operators read in
  non local Contribution for L=           0  read in
    real space projection operators read in
  non local Contribution for L=           1  read in
    real space projection operators read in
  non local Contribution for L=           1  read in
    real space projection operators read in
    PAW grid and wavefunctions read in
 
   number of l-projection  operators is LMAX  =           6
   number of lm-projection operators is LMMAX =          18
 
 Optimization of the real space projectors (new method)

 maximal supplied QI-value         = 25.13
 optimisation between [QCUT,QGAM] = [ 10.81, 21.61] = [ 32.71,130.83] Ry 
 Optimized for a Real-space Cutoff    1.23 Angstroem

   l    n(q)    QCUT    max X(q) W(low)/X(q) W(high)/X(q)  e(spline) 
   0      8    10.807     5.582    0.53E-04    0.84E-04    0.44E-07
   0      8    10.807    69.432    0.35E-03    0.71E-03    0.24E-06
   1      7    10.807     2.780    0.44E-04    0.88E-04    0.89E-07
   1      7    10.807     4.549    0.14E-03    0.28E-03    0.13E-06
 Optimization of the real space projectors (new method)

 maximal supplied QI-value         = 24.76
 optimisation between [QCUT,QGAM] = [ 10.64, 21.54] = [ 31.73,129.89] Ry 
 Optimized for a Real-space Cutoff    1.23 Angstroem

   l    n(q)    QCUT    max X(q) W(low)/X(q) W(high)/X(q)  e(spline) 
   0      8    10.645     4.192    0.69E-04    0.93E-04    0.58E-07
   0      8    10.645     8.473    0.40E-03    0.65E-03    0.17E-06
   1      7    10.645     2.474    0.80E-04    0.12E-03    0.30E-07
   1      7    10.645     3.912    0.24E-03    0.53E-03    0.16E-06
 Optimization of the real space projectors (new method)

 maximal supplied QI-value         = 14.36
 optimisation between [QCUT,QGAM] = [ 10.77, 21.69] = [ 32.49,131.70] Ry 
 Optimized for a Real-space Cutoff    1.46 Angstroem

   l    n(q)    QCUT    max X(q) W(low)/X(q) W(high)/X(q)  e(spline) 
   2      9    10.771     3.903    0.38E-04    0.12E-03    0.82E-07
   2      9    10.771    18.372    0.13E-03    0.32E-03    0.28E-06
   0     10    10.771    13.697    0.11E-04    0.86E-05    0.85E-08
   0     10    10.771    65.529    0.40E-04    0.12E-03    0.14E-06
   1      9    10.771     7.604    0.48E-04    0.31E-04    0.38E-07
   1      9    10.771    12.136    0.35E-03    0.16E-03    0.23E-06
 PAW_PBE C 08Apr2002                    :
 energy of atom  1       EATOM= -147.1560
 kinetic energy error for atom=    0.0116 (will be added to EATOM!!)
 PAW_PBE O 08Apr2002                    :
 energy of atom  2       EATOM= -432.3788
 kinetic energy error for atom=    0.0389 (will be added to EATOM!!)
  PAW_PBE Pt 04Feb2005                  :
 energy of atom  3       EATOM= -729.1182
 kinetic energy error for atom=    0.0051 (will be added to EATOM!!)
 
 
 POSCAR: C    O    Pt                            
  positions in direct lattice
  No initial velocities read in
 exchange correlation table for  LEXCH =        8
   RHO(1)=    0.500       N(1)  =     2000
   RHO(2)=  100.500       N(2)  =     4000

 VTST: version 3.2, (02/03/18)

 CHAIN: initializing optimizer
 
 OPT: Using VASP QUASI-newton optimizer
 CHAIN: Read ICHAIN            0
 
 POSCAR: C    O    Pt                            
  positions in direct lattice
  No initial velocities read in
 


--------------------------------------------------------------------------------------------------------


 ion  position               nearest neighbor table
   1  0.699  0.437  0.472-   3 1.16  36 2.00  39 2.72
   2  0.908  0.387  0.461-  38 1.92  36 2.52  37 2.68
   3  0.671  0.464  0.522-   1 1.16
   4  0.987  0.329  0.074-  15 2.81  16 2.81  12 2.81   5 2.81  11 2.81   6 2.81  18 2.81   8 2.81
                             7 2.81
   5  0.320  0.329  0.074-  13 2.81  10 2.81   4 2.81  12 2.81  16 2.81  17 2.81   8 2.81   9 2.81
                             6 2.81
   6  0.653  0.329  0.074-  14 2.81  18 2.81  11 2.81   4 2.81  17 2.81   7 2.81  10 2.81   9 2.81
                             5 2.81
   7  0.987  0.662  0.074-  18 2.81  21 2.81  19 2.81  12 2.81   8 2.81  10 2.81   9 2.81   6 2.81
                             4 2.81
   8  0.320  0.662  0.074-  16 2.81  19 2.81  10 2.81   7 2.81  20 2.81   4 2.81  11 2.81   5 2.81
                             9 2.81
   9  0.653  0.662  0.074-  17 2.81  20 2.81  21 2.81  11 2.81  12 2.81   7 2.81   6 2.81   5 2.81
                             8 2.81
  10  0.320  0.995  0.074-  13 2.81  19 2.81   5 2.81   8 2.81  12 2.81   7 2.81  14 2.81   6 2.81
                            11 2.81
  11  0.653  0.995  0.074-  14 2.81  20 2.81  15 2.81   9 2.81   6 2.81  12 2.81   4 2.81   8 2.81
                            10 2.81
  12  0.987  0.995  0.074-  15 2.81  21 2.81  13 2.81   7 2.81   4 2.81  10 2.81   5 2.81  11 2.81
                             9 2.81
  13  0.209  0.106  0.179-  27 2.80  10 2.81   5 2.81  12 2.81  19 2.81  15 2.81  21 2.81  16 2.81
                            17 2.81  14 2.81  26 2.87  25 2.91
  14  0.542  0.106  0.179-   6 2.81  11 2.81  20 2.81  15 2.81  10 2.81  18 2.81  19 2.81  17 2.81
                            13 2.81  23 2.81  26 2.84  24 2.84
  15  0.876  0.106  0.179-   4 2.81  12 2.81  11 2.81  21 2.81  13 2.81  20 2.81  14 2.81  16 2.81
                            18 2.81  28 2.82  24 2.84  25 2.91
  16  0.209  0.440  0.179-  22 2.73  29 2.74   8 2.81   4 2.81  19 2.81  18 2.81   5 2.81  15 2.81
                            20 2.81  13 2.81  17 2.81  25 2.88
  17  0.542  0.440  0.179-  29 2.77   9 2.81  20 2.81  21 2.81  18 2.81   6 2.81   5 2.81  14 2.81
                            13 2.81  16 2.81  30 2.84  26 2.88
  18  0.876  0.440  0.179-  22 2.72   7 2.81   6 2.81  21 2.81  16 2.81  19 2.81  17 2.81   4 2.81
                            14 2.81  15 2.81  30 2.81  24 2.83
  19  0.209  0.773  0.179-  22 2.73  10 2.81   8 2.81   7 2.81  16 2.81  13 2.81  21 2.81  18 2.81
                            14 2.81  20 2.81  27 2.81  23 2.81
  20  0.542  0.773  0.179-  29 2.74  23 2.80   9 2.81  11 2.81  17 2.81  14 2.81  15 2.81  21 2.81
                             8 2.81  16 2.81  19 2.81  28 2.81
  21  0.876  0.773  0.179-  27 2.78  12 2.81   7 2.81   9 2.81  18 2.81  15 2.81  19 2.81  13 2.81
                            17 2.81  20 2.81  30 2.81  28 2.84
  22  0.097  0.549  0.279-  18 2.72  16 2.73  19 2.73  25 2.77  30 2.78  37 2.78  29 2.79  24 2.79
                            31 2.81  23 2.82  27 2.83  38 3.00
  23  0.432  0.884  0.284-  35 2.68  32 2.71  31 2.73  28 2.77  26 2.77  29 2.78  20 2.80  14 2.81
                            19 2.81  24 2.82  22 2.82  27 2.85
  24  0.766  0.219  0.285-  32 2.76  26 2.78  22 2.79  28 2.79  36 2.79  30 2.80  25 2.80  23 2.82
                            18 2.83  15 2.84  14 2.84  38 2.89
  25  0.101  0.223  0.289-  38 2.66  33 2.68  34 2.74  22 2.77  29 2.78  24 2.80  27 2.84  26 2.84
                            28 2.85  16 2.88  15 2.91  13 2.91
  26  0.433  0.213  0.287-  35 2.67  36 2.74  33 2.77  23 2.77  24 2.78  27 2.82  14 2.84  25 2.84
                            30 2.85  13 2.87  17 2.88  29 2.88
  27  0.094  0.884  0.283-  37 2.71  34 2.72  35 2.76  30 2.76  21 2.78  13 2.80  19 2.81  28 2.81
                            26 2.82  22 2.83  25 2.84  23 2.85
  28  0.761  0.885  0.285-  32 2.67  23 2.77  24 2.79  34 2.79  29 2.80  20 2.81  27 2.81  15 2.82
                            30 2.84  21 2.84  25 2.85  39 2.87
  29  0.429  0.553  0.281-  31 2.71  20 2.74  16 2.74  17 2.77  23 2.78  25 2.78  22 2.79  28 2.80
                            33 2.86  30 2.87  26 2.88  39 2.99
  30  0.769  0.553  0.285-  37 2.73  27 2.76  22 2.78  24 2.80  18 2.81  21 2.81  28 2.84  17 2.84
                            26 2.85  36 2.85  29 2.87  39 2.88
  31  0.324  0.657  0.383-  29 2.71  23 2.73  33 2.75  32 2.76  37 2.79  35 2.80  39 2.81  22 2.81
                            38 2.82
  32  0.650  0.985  0.384-  28 2.67  23 2.71  39 2.74  24 2.76  31 2.76  35 2.77  36 2.84  34 2.87
                            38 2.87
  33  0.319  0.329  0.388-  38 2.65  25 2.68  31 2.75  26 2.77  36 2.80  34 2.82  29 2.86  39 2.87
                            35 2.88
  34  0.991  0.988  0.387-  27 2.72  37 2.73  38 2.74  25 2.74  39 2.75  35 2.79  28 2.79  33 2.82
                            32 2.87
  35  0.324  0.990  0.383-  26 2.67  23 2.68  37 2.74  27 2.76  32 2.77  36 2.77  34 2.79  31 2.80
                            33 2.88
  36  0.648  0.321  0.390-   1 2.00   2 2.52  26 2.74  35 2.77  24 2.79  33 2.80  32 2.84  30 2.85
                            39 2.85  37 2.93  38 2.98
  37  0.997  0.667  0.384-   2 2.68  27 2.71  34 2.73  30 2.73  35 2.74  22 2.78  31 2.79  39 2.84
                            36 2.93  38 2.97
  38  0.999  0.316  0.392-   2 1.92  33 2.65  25 2.66  34 2.74  31 2.82  32 2.87  24 2.89  37 2.97
                            36 2.98  22 3.00
  39  0.661  0.666  0.394-   1 2.72  32 2.74  34 2.75  31 2.81  37 2.84  36 2.85  33 2.87  28 2.87
                            30 2.88  29 2.99
 

IMPORTANT INFORMATION: All symmetrisations will be switched off!
NOSYMM: (Re-)initialisation of all symmetry stuff for point group C_1.

 
 
 KPOINTS: mesh auto                               

Automatic generation of k-mesh.
Space group operators:
 irot       det(A)        alpha          n_x          n_y          n_z        tau_x        tau_y        tau_z
    1     1.000000     0.000000     1.000000     0.000000     0.000000     0.000000     0.000000     0.000000
 
 Subroutine IBZKPT returns following result:
 ===========================================
 
 Found      4 irreducible k-points:
 
 Following reciprocal coordinates:
            Coordinates               Weight
  0.000000  0.000000  0.000000      1.000000
  0.500000  0.000000  0.000000      1.000000
 -0.000000  0.500000  0.000000      1.000000
  0.500000  0.500000  0.000000      1.000000
 
 Following cartesian coordinates:
            Coordinates               Weight
  0.000000  0.000000  0.000000      1.000000
  0.068522  0.000000  0.000000      1.000000
  0.034261  0.059342  0.000000      1.000000
  0.102783  0.059342  0.000000      1.000000
 


--------------------------------------------------------------------------------------------------------




 Dimension of arrays:
   k-points           NKPTS =      4   k-points in BZ     NKDIM =      4   number of bands    NBANDS=    228
   number of dos      NEDOS =    301   number of ions     NIONS =     39
   non local maximal  LDIM  =      6   non local SUM 2l+1 LMDIM =     18
   total plane-waves  NPLWV = 276480
   max r-space proj   IRMAX =   2756   max aug-charges    IRDMAX=  12646
   dimension x,y,z NGX =    48 NGY =   48 NGZ =  120
   dimension x,y,z NGXF=    96 NGYF=   96 NGZF=  240
   support grid    NGXF=    96 NGYF=   96 NGZF=  240
   ions per type =               1   2  36
   NGX,Y,Z   is equivalent  to a cutoff of   9.47,  9.47,  9.12 a.u.
   NGXF,Y,Z  is equivalent  to a cutoff of  18.94, 18.94, 18.24 a.u.

 SYSTEM =  metal                                   
 POSCAR =  C    O    Pt                            

 Startparameter for this run:
   NWRITE =      2    write-flag & timer
   PREC   = normal    normal or accurate (medium, high low for compatibility)
   ISTART =      0    job   : 0-new  1-cont  2-samecut
   ICHARG =      2    charge: 1-file 2-atom 10-const
   ISPIN  =      1    spin polarized calculation?
   LNONCOLLINEAR =      F non collinear calculations
   LSORBIT =      F    spin-orbit coupling
   INIWAV =      1    electr: 0-lowe 1-rand  2-diag
   LASPH  =      F    aspherical Exc in radial PAW
   METAGGA=      F    non-selfconsistent MetaGGA calc.

 Electronic Relaxation 1
   ENCUT  =  450.0 eV  33.07 Ry    5.75 a.u.  14.57 14.57 37.84*2*pi/ulx,y,z
   ENINI  =  450.0     initial cutoff
   ENAUG  =  644.9 eV  augmentation charge cutoff
   NELM   =     60;   NELMIN=  8; NELMDL= -5     # of ELM steps 
   EDIFF  = 0.1E-03   stopping-criterion for ELM
   LREAL  =      T    real-space projection
   NLSPLINE    = F    spline interpolate recip. space projectors
   LCOMPAT=      F    compatible to vasp.4.4
   GGA_COMPAT  = T    GGA compatible to vasp.4.4-vasp.4.6
   LMAXPAW     = -100 max onsite density
   LMAXMIX     =    2 max onsite mixed and CHGCAR
   VOSKOWN=      0    Vosko Wilk Nusair interpolation
   ROPT   =   -0.00050  -0.00050  -0.00050
 Ionic relaxation
   EDIFFG = -.5E-01   stopping-criterion for IOM
   NSW    =   5000    number of steps for IOM
   NBLOCK =      1;   KBLOCK =   5000    inner block; outer block 
   IBRION =      1    ionic relax: 0-MD 1-quasi-New 2-CG
   NFREE  =      0    steps in history (QN), initial steepest desc. (CG)
   ISIF   =      2    stress and relaxation
   IWAVPR =     11    prediction:  0-non 1-charg 2-wave 3-comb
   ISYM   =      0    0-nonsym 1-usesym 2-fastsym
   LCORR  =      T    Harris-Foulkes like correction to forces

   POTIM  = 0.2000    time-step for ionic-motion
   TEIN   =    0.0    initial temperature
   TEBEG  =    0.0;   TEEND  =   0.0 temperature during run
   SMASS  =  -3.00    Nose mass-parameter (am)
   estimated Nose-frequenzy (Omega)   =  0.10E-29 period in steps =****** mass=  -0.162E-26a.u.
   SCALEE = 1.0000    scale energy and forces
   NPACO  =    256;   APACO  = 16.0  distance and # of slots for P.C.
   PSTRESS=    0.0 pullay stress

  Mass of Ions in am
   POMASS =  12.01 16.00195.08
  Ionic Valenz
   ZVAL   =   4.00  6.00 10.00
  Atomic Wigner-Seitz radii
   RWIGS  =  -1.00 -1.00 -1.00
  virtual crystal weights 
   VCA    =   1.00  1.00  1.00
   NELECT =     376.0000    total number of electrons
   NUPDOWN=      -1.0000    fix difference up-down

 DOS related values:
   EMIN   =  10.00;   EMAX   =-10.00  energy-range for DOS
   EFERMI =   0.00
   ISMEAR =     1;   SIGMA  =   0.20  broadening in eV -4-tet -1-fermi 0-gaus

 Electronic relaxation 2 (details)
   IALGO  =     68    algorithm
   LDIAG  =      T    sub-space diagonalisation (order eigenvalues)
   LSUBROT=      F    optimize rotation matrix (better conditioning)
   TURBO    =      0    0=normal 1=particle mesh
   IRESTART =      0    0=no restart 2=restart with 2 vectors
   NREBOOT  =      0    no. of reboots
   NMIN     =      0    reboot dimension
   EREF     =   0.00    reference energy to select bands
   IMIX   =      4    mixing-type and parameters
     AMIX     =   0.40;   BMIX     =  1.00
     AMIX_MAG =   1.60;   BMIX_MAG =  1.00
     AMIN     =   0.10
     WC   =   100.;   INIMIX=   1;  MIXPRE=   1;  MAXMIX= -45

 Intra band minimization:
   WEIMIN = 0.0010     energy-eigenvalue tresh-hold
   EBREAK =  0.11E-06  absolut break condition
   DEPER  =   0.30     relativ break condition  

   TIME   =   0.40     timestep for ELM

  volume/ion in A,a.u.               =      34.49       232.77
  Fermi-wavevector in a.u.,A,eV,Ry     =   1.070385  2.022734 15.588510  1.145723
  Thomas-Fermi vector in A             =   2.206093
 
 Write flags
   LWAVE        =      F    write WAVECAR
   LDOWNSAMPLE  =      F    k-point downsampling of WAVECAR
   LCHARG       =      F    write CHGCAR
   LVTOT        =      F    write LOCPOT, total local potential
   LVHAR        =      F    write LOCPOT, Hartree potential only
   LELF         =      F    write electronic localiz. function (ELF)
   LORBIT       =      0    0 simple, 1 ext, 2 COOP (PROOUT), +10 PAW based schemes


 Dipole corrections
   LMONO  =      F    monopole corrections only (constant potential shift)
   LDIPOL =      F    correct potential (dipole corrections)
   IDIPOL =      0    1-x, 2-y, 3-z, 4-all directions 
   EPSILON=  1.0000000 bulk dielectric constant

 Exchange correlation treatment:
   GGA     =    --    GGA type
   LEXCH   =     8    internal setting for exchange type
   VOSKOWN=      0    Vosko Wilk Nusair interpolation
   LHFCALC =     F    Hartree Fock is set to
   LHFONE  =     F    Hartree Fock one center treatment
   AEXX    =    0.0000 exact exchange contribution

 Linear response parameters
   LEPSILON=     F    determine dielectric tensor
   LRPA    =     F    only Hartree local field effects (RPA)
   LNABLA  =     F    use nabla operator in PAW spheres
   LVEL    =     F    velocity operator in full k-point grid
   LINTERFAST=   F  fast interpolation
   KINTER  =     0    interpolate to denser k-point grid
   CSHIFT  =0.1000    complex shift for real part using Kramers Kronig
   OMEGAMAX=  -1.0    maximum frequency
   DEG_THRESHOLD= 0.2000000E-02 threshold for treating states as degnerate
   RTIME   =   -0.100 relaxation time in fs
  (WPLASMAI=    0.000 imaginary part of plasma frequency in eV, 0.658/RTIME)
   DFIELD  = 0.0000000 0.0000000 0.0000000 field for delta impulse in time
 
 Orbital magnetization related:
   ORBITALMAG=     F  switch on orbital magnetization
   LCHIMAG   =     F  perturbation theory with respect to B field
   DQ        =  0.001000  dq finite difference perturbation B field
   LLRAUG    =     F  two centre corrections for induced B field



--------------------------------------------------------------------------------------------------------


 quasi-Newton-method for relaxation of ions
   using selective dynamics as specified on POSCAR
 charge density and potential will be updated during run
 non-spin polarized calculation
 RMM-DIIS sequential band-by-band and
  variant of blocked Davidson during initial phase
 perform sub-space diagonalisation
    before iterative eigenvector-optimisation
 modified Broyden-mixing scheme, WC =      100.0
 initial mixing is a Kerker type mixing with AMIX =  0.4000 and BMIX =      1.0000
 Hartree-type preconditioning will be used
 using additional bands           40
 real space projection scheme for non local part
 use partial core corrections
 calculate Harris-corrections to forces 
   (improved forces if not selfconsistent)
 use gradient corrections 
 use of overlap-Matrix (Vanderbilt PP)
 Methfessel and Paxton  Order N= 1 SIGMA  =   0.20


--------------------------------------------------------------------------------------------------------


  energy-cutoff  :      450.00
  volume of cell :     1345.22
      direct lattice vectors                 reciprocal lattice vectors
     7.296955120 -4.212899000  0.000000000     0.137043463  0.000000000  0.000000000
     0.000000000  8.425798000  0.000000000     0.068521732  0.118683121  0.000000000
     0.000000000  0.000000000 21.879635000     0.000000000  0.000000000  0.045704602

  length of vectors
     8.425798004  8.425798000 21.879635000     0.137043463  0.137043463  0.045704602


 
 k-points in units of 2pi/SCALE and weight: mesh auto                               
   0.00000000  0.00000000  0.00000000       0.250
   0.06852173  0.00000000  0.00000000       0.250
   0.03426087  0.05934156  0.00000000       0.250
   0.10278260  0.05934156  0.00000000       0.250
 
 k-points in reciprocal lattice and weights: mesh auto                               
   0.00000000  0.00000000  0.00000000       0.250
   0.50000000  0.00000000  0.00000000       0.250
  -0.00000000  0.50000000  0.00000000       0.250
   0.50000000  0.50000000  0.00000000       0.250
 
 position of ions in fractional coordinates (direct lattice) 
   0.69900566  0.43735361  0.47249941
   0.90823559  0.38655344  0.46106474
   0.67086911  0.46420950  0.52238795
   0.98675500  0.32859100  0.07437600
   0.32008800  0.32859100  0.07437600
   0.65342200  0.32859100  0.07437600
   0.98675500  0.66192500  0.07437600
   0.32008800  0.66192500  0.07437600
   0.65342200  0.66192500  0.07437600
   0.32008800  0.99525800  0.07437600
   0.65342200  0.99525800  0.07437600
   0.98675500  0.99525800  0.07437600
   0.20897700  0.10636900  0.17918600
   0.54231100  0.10636900  0.17918600
   0.87564400  0.10636900  0.17918600
   0.20897700  0.43970300  0.17918600
   0.54231100  0.43970300  0.17918600
   0.87564400  0.43970300  0.17918600
   0.20897700  0.77303600  0.17918600
   0.54231100  0.77303600  0.17918600
   0.87564400  0.77303600  0.17918600
   0.09668781  0.54948949  0.27935194
   0.43201033  0.88383753  0.28405377
   0.76569232  0.21878681  0.28547335
   0.10056684  0.22315644  0.28916159
   0.43283593  0.21299272  0.28694201
   0.09397497  0.88353871  0.28330435
   0.76118617  0.88530632  0.28478016
   0.42921449  0.55283586  0.28076819
   0.76920582  0.55283251  0.28477905
   0.32396854  0.65715717  0.38321577
   0.64979959  0.98543735  0.38446484
   0.31918351  0.32852960  0.38779393
   0.99122703  0.98788275  0.38675675
   0.32355299  0.98967819  0.38345404
   0.64774983  0.32134252  0.38984652
   0.99739222  0.66656029  0.38392474
   0.99876430  0.31596119  0.39189516
   0.66098001  0.66638893  0.39370696
 
 position of ions in cartesian coordinates  (Angst):
   5.10061292  0.74021296 10.33811472
   6.62735434 -0.56928360 10.08792815
   4.89530182  1.08503162 11.42965759
   7.20030695 -1.38845776  1.62731973
   2.33566777  1.42014298  1.62731973
   4.76799101  0.01584050  1.62731973
   7.20030695  1.42014719  1.62731973
   2.33566777  4.22874793  1.62731973
   4.76799101  2.82444545  1.62731973
   2.33566777  7.03734445  1.62731973
   4.76799101  5.63304198  1.62731973
   7.20030695  4.22874371  1.62731973
   1.52489579  0.01584471  3.92052428
   3.95721903 -1.38845776  3.92052428
   6.38953497 -2.79275602  3.92052428
   1.52489579  2.82444966  3.92052428
   3.95721903  1.42014719  3.92052428
   6.38953497  0.01584893  3.92052428
   1.52489579  5.63304619  3.92052428
   3.95721903  4.22874371  3.92052428
   6.38953497  2.82444545  3.92052428
   0.70552659  4.22255149  6.11211839
   3.15236000  5.62702062  6.21499280
   5.58722252 -1.38233098  6.24605264
   0.73383175  1.45659311  6.32675013
   3.15838434 -0.02886037  6.27818653
   0.68573111  7.04861167  6.19859584
   5.55434129  4.25261178  6.23088592
   3.13195889  2.84984601  6.14310554
   5.61286031  1.41746867  6.23086169
   2.36398388  4.17222688  8.38462123
   4.74155842  5.56555599  8.41195039
   2.32906772  1.42343616  8.48478958
   7.23293917  4.14776110  8.46209643
   2.36095163  6.97573242  8.38983450
   4.72660142 -0.02133745  8.52969950
   7.27792630  1.41438967  8.40013323
   7.28793824 -1.54546795  8.57452315
   4.82314147  2.83021645  8.61416456
 


--------------------------------------------------------------------------------------------------------


 k-point  1 :   0.0000 0.0000 0.0000  plane waves:   29241
 k-point  2 :   0.5000 0.0000 0.0000  plane waves:   29108
 k-point  3 :  -0.0000 0.5000 0.0000  plane waves:   29108
 k-point  4 :   0.5000 0.5000 0.0000  plane waves:   29108

 maximum and minimum number of plane-waves per node :     14624    14548

 maximum number of plane-waves:     29241
 maximum index in each direction: 
   IXMAX=   14   IYMAX=   14   IZMAX=   37
   IXMIN=  -15   IYMIN=  -15   IZMIN=  -37


 real space projection operators:
  total allocation   :      13557.81 KBytes
  max/ min on nodes  :       6786.17       6771.64


 parallel 3D FFT for wavefunctions:
    minimum data exchange during FFTs selected (reduces bandwidth)
 parallel 3D FFT for charge:
    minimum data exchange during FFTs selected (reduces bandwidth)


 total amount of memory used by VASP MPI-rank0   131961. kBytes
=======================================================================

   base      :      30000. kBytes
   nonlr-proj:      10153. kBytes
   fftplans  :      13556. kBytes
   grid      :      23353. kBytes
   one-center:        311. kBytes
   wavefun   :      54588. kBytes
 
     INWAV:  cpu time    0.0000: real time    0.0000
 Broyden mixing: mesh for mixing (old mesh)
   NGX = 29   NGY = 29   NGZ = 75
  (NGX  = 96   NGY  = 96   NGZ  =240)
  gives a total of  63075 points

 initial charge density was supplied:
 charge density of overlapping atoms calculated
 number of electron     376.0000000 magnetization 
 keeping initial charge density in first step


--------------------------------------------------------------------------------------------------------


 Maximum index for non-local projection operator         1325
 Maximum index for augmentation-charges         1558 (set IRDMAX)


--------------------------------------------------------------------------------------------------------


 First call to EWALD:  gamma=   0.161
 Maximum number of real-space cells 4x 4x 2
 Maximum number of reciprocal cells 2x 2x 5

    FEWALD:  cpu time    0.0023: real time    0.0024


--------------------------------------- Iteration      1(   1)  ---------------------------------------


    POTLOK:  cpu time    0.1756: real time    0.3203
    SETDIJ:  cpu time    0.0124: real time    0.0162
     EDDAV:  cpu time   11.2252: real time   11.3457
       DOS:  cpu time    0.0016: real time    0.0041
    --------------------------------------------
      LOOP:  cpu time   11.4149: real time   11.6863

 eigenvalue-minimisations  :  1824
 total energy-change (2. order) : 0.2425604E+04  (-0.1595758E+05)
 number of electron     376.0000000 magnetization 
 augmentation part      376.0000000 magnetization 

 Free energy of the ion-electron system (eV)
  ---------------------------------------------------
  alpha Z        PSCENC =       975.10247152
  Ewald energy   TEWEN  =     92067.03262426
  -Hartree energ DENC   =   -121151.80241691
  -exchange      EXHF   =         0.00000000
  -V(xc)+E(xc)   XCENC  =       190.26057777
  PAW double counting   =     24789.08602224   -23775.73976456
  entropy T*S    EENTRO =        -0.00534277
  eigenvalues    EBANDS =      2071.77531497
  atomic energy  EATOM  =     27259.89416086
  Solvation  Ediel_sol  =         0.00000000
  ---------------------------------------------------
  free energy    TOTEN  =      2425.60364738 eV

  energy without entropy =     2425.60899015  energy(sigma->0) =     2425.60542831


--------------------------------------------------------------------------------------------------------




--------------------------------------- Iteration      1(   2)  ---------------------------------------


     EDDAV:  cpu time   12.7206: real time   13.5250
       DOS:  cpu time    0.0011: real time    0.0011
    --------------------------------------------
      LOOP:  cpu time   12.7217: real time   13.5261

 eigenvalue-minimisations  :  2136
 total energy-change (2. order) :-0.2490895E+04  (-0.2311978E+04)
 number of electron     376.0000000 magnetization 
 augmentation part      376.0000000 magnetization 

 Free energy of the ion-electron system (eV)
  ---------------------------------------------------
  alpha Z        PSCENC =       975.10247152
  Ewald energy   TEWEN  =     92067.03262426
  -Hartree energ DENC   =   -121151.80241691
  -exchange      EXHF   =         0.00000000
  -V(xc)+E(xc)   XCENC  =       190.26057777
  PAW double counting   =     24789.08602224   -23775.73976456
  entropy T*S    EENTRO =        -0.00688555
  eigenvalues    EBANDS =      -419.11854138
  atomic energy  EATOM  =     27259.89416086
  Solvation  Ediel_sol  =         0.00000000
  ---------------------------------------------------
  free energy    TOTEN  =       -65.29175175 eV

  energy without entropy =      -65.28486620  energy(sigma->0) =      -65.28945657


--------------------------------------------------------------------------------------------------------




--------------------------------------- Iteration      1(   3)  ---------------------------------------


     EDDAV:  cpu time   13.3471: real time   13.4583
       DOS:  cpu time    0.0012: real time    0.0012
    --------------------------------------------
      LOOP:  cpu time   13.3484: real time   13.4595

 eigenvalue-minimisations  :  2184
 total energy-change (2. order) :-0.1754576E+03  (-0.1596086E+03)
 number of electron     376.0000000 magnetization 
 augmentation part      376.0000000 magnetization 

 Free energy of the ion-electron system (eV)
  ---------------------------------------------------
  alpha Z        PSCENC =       975.10247152
  Ewald energy   TEWEN  =     92067.03262426
  -Hartree energ DENC   =   -121151.80241691
  -exchange      EXHF   =         0.00000000
  -V(xc)+E(xc)   XCENC  =       190.26057777
  PAW double counting   =     24789.08602224   -23775.73976456
  entropy T*S    EENTRO =        -0.00539185
  eigenvalues    EBANDS =      -594.57764123
  atomic energy  EATOM  =     27259.89416086
  Solvation  Ediel_sol  =         0.00000000
  ---------------------------------------------------
  free energy    TOTEN  =      -240.74935791 eV

  energy without entropy =     -240.74396605  energy(sigma->0) =     -240.74756062


--------------------------------------------------------------------------------------------------------




--------------------------------------- Iteration      1(   4)  ---------------------------------------


     EDDAV:  cpu time   14.0178: real time   14.1122
       DOS:  cpu time    0.0011: real time    0.0011
    --------------------------------------------
      LOOP:  cpu time   14.0189: real time   14.1133

 eigenvalue-minimisations  :  2368
 total energy-change (2. order) :-0.7311688E+01  (-0.7056072E+01)
 number of electron     376.0000000 magnetization 
 augmentation part      376.0000000 magnetization 

 Free energy of the ion-electron system (eV)
  ---------------------------------------------------
  alpha Z        PSCENC =       975.10247152
  Ewald energy   TEWEN  =     92067.03262426
  -Hartree energ DENC   =   -121151.80241691
  -exchange      EXHF   =         0.00000000
  -V(xc)+E(xc)   XCENC  =       190.26057777
  PAW double counting   =     24789.08602224   -23775.73976456
  entropy T*S    EENTRO =         0.00021568
  eigenvalues    EBANDS =      -601.89493634
  atomic energy  EATOM  =     27259.89416086
  Solvation  Ediel_sol  =         0.00000000
  ---------------------------------------------------
  free energy    TOTEN  =      -248.06104548 eV

  energy without entropy =     -248.06126116  energy(sigma->0) =     -248.06111737


--------------------------------------------------------------------------------------------------------




--------------------------------------- Iteration      1(   5)  ---------------------------------------


     EDDAV:  cpu time   14.1671: real time   14.2650
       DOS:  cpu time    0.0011: real time    0.0011
    CHARGE:  cpu time    0.6652: real time    0.6696
    MIXING:  cpu time    0.0087: real time    0.0104
    --------------------------------------------
      LOOP:  cpu time   14.8422: real time   14.9462

 eigenvalue-minimisations  :  2368
 total energy-change (2. order) :-0.2038622E+00  (-0.2019158E+00)
 number of electron     376.0000069 magnetization 
 augmentation part      105.8178829 magnetization 

 Broyden mixing:
  rms(total) = 0.27389E+01    rms(broyden)= 0.27385E+01
  rms(prec ) = 0.30487E+01
  weight for this iteration     100.00

 Free energy of the ion-electron system (eV)
  ---------------------------------------------------
  alpha Z        PSCENC =       975.10247152
  Ewald energy   TEWEN  =     92067.03262426
  -Hartree energ DENC   =   -121151.80241691
  -exchange      EXHF   =         0.00000000
  -V(xc)+E(xc)   XCENC  =       190.26057777
  PAW double counting   =     24789.08602224   -23775.73976456
  entropy T*S    EENTRO =         0.00052173
  eigenvalues    EBANDS =      -602.09910457
  atomic energy  EATOM  =     27259.89416086
  Solvation  Ediel_sol  =         0.00000000
  ---------------------------------------------------
  free energy    TOTEN  =      -248.26490766 eV

  energy without entropy =     -248.26542939  energy(sigma->0) =     -248.26508157


--------------------------------------------------------------------------------------------------------




--------------------------------------- Iteration      1(   6)  ---------------------------------------


    POTLOK:  cpu time    0.1757: real time    0.1771
    SETDIJ:  cpu time    0.0124: real time    0.0124
    EDDIAG:  cpu time    1.9441: real time    1.9643
  RMM-DIIS:  cpu time    6.9902: real time    7.0418
    ORTHCH:  cpu time    0.2682: real time    0.2699
       DOS:  cpu time    0.0011: real time    0.0012
    CHARGE:  cpu time    0.7015: real time    0.7054
    MIXING:  cpu time    0.0060: real time    1.5738
    --------------------------------------------
      LOOP:  cpu time   10.0992: real time   11.7458

 eigenvalue-minimisations  :  1828
 total energy-change (2. order) : 0.1485006E+01  (-0.5513406E+01)
 number of electron     376.0000061 magnetization 
 augmentation part      112.8409096 magnetization 

 Broyden mixing:
  rms(total) = 0.30195E+01    rms(broyden)= 0.30186E+01
  rms(prec ) = 0.41837E+01
  weight for this iteration     100.00

 eigenvalues of (default mixing * dielectric matrix)
  average eigenvalue GAMMA=   0.4821
  0.4821

 Free energy of the ion-electron system (eV)
  ---------------------------------------------------
  alpha Z        PSCENC =       975.10247152
  Ewald energy   TEWEN  =     92067.03262426
  -Hartree energ DENC   =   -120692.97553179
  -exchange      EXHF   =         0.00000000
  -V(xc)+E(xc)   XCENC  =       183.19427606
  PAW double counting   =     26765.72592468   -25806.35259295
  entropy T*S    EENTRO =        -0.18989847
  eigenvalues    EBANDS =      -998.21133546
  atomic energy  EATOM  =     27259.89416086
  Solvation  Ediel_sol  =         0.00000000
  ---------------------------------------------------
  free energy    TOTEN  =      -246.77990128 eV

  energy without entropy =     -246.59000280  energy(sigma->0) =     -246.71660179


--------------------------------------------------------------------------------------------------------




--------------------------------------- Iteration      1(   7)  ---------------------------------------


    POTLOK:  cpu time    0.1529: real time    0.2872
    SETDIJ:  cpu time    0.0112: real time    0.0133
    EDDIAG:  cpu time    1.8709: real time    1.9817
  RMM-DIIS:  cpu time    6.8329: real time    6.8868
    ORTHCH:  cpu time    0.2612: real time    0.2626
       DOS:  cpu time    0.0013: real time    0.0013
    CHARGE:  cpu time    0.6872: real time    0.6920
    MIXING:  cpu time    0.0056: real time    0.0070
    --------------------------------------------
      LOOP:  cpu time    9.8233: real time   10.1318

 eigenvalue-minimisations  :  1828
 total energy-change (2. order) :-0.4118920E+00  (-0.3221158E+01)
 number of electron     376.0000077 magnetization 
 augmentation part      111.3863735 magnetization 

 Broyden mixing:
  rms(total) = 0.22768E+01    rms(broyden)= 0.22762E+01
  rms(prec ) = 0.41236E+01
  weight for this iteration     100.00

 eigenvalues of (default mixing * dielectric matrix)
  average eigenvalue GAMMA=   0.5296
  0.8299  0.2294

 Free energy of the ion-electron system (eV)
  ---------------------------------------------------
  alpha Z        PSCENC =       975.10247152
  Ewald energy   TEWEN  =     92067.03262426
  -Hartree energ DENC   =   -120878.34403821
  -exchange      EXHF   =         0.00000000
  -V(xc)+E(xc)   XCENC  =       181.02091642
  PAW double counting   =     27385.93930779   -26433.63255692
  entropy T*S    EENTRO =        -0.12137093
  eigenvalues    EBANDS =      -804.08330804
  atomic energy  EATOM  =     27259.89416086
  Solvation  Ediel_sol  =         0.00000000
  ---------------------------------------------------
  free energy    TOTEN  =      -247.19179324 eV

  energy without entropy =     -247.07042231  energy(sigma->0) =     -247.15133626


--------------------------------------------------------------------------------------------------------




--------------------------------------- Iteration      1(   8)  ---------------------------------------


    POTLOK:  cpu time    0.1569: real time    0.1581
    SETDIJ:  cpu time    0.0114: real time    0.0115
    EDDIAG:  cpu time    1.9124: real time    1.9265
  RMM-DIIS:  cpu time    6.6994: real time    6.7536
    ORTHCH:  cpu time    0.2630: real time    0.2664
       DOS:  cpu time    0.0012: real time    0.0012
    CHARGE:  cpu time    0.6908: real time    0.6976
    MIXING:  cpu time    0.0049: real time    0.0049
    --------------------------------------------
      LOOP:  cpu time    9.7401: real time    9.8199

 eigenvalue-minimisations  :  1825
 total energy-change (2. order) : 0.3614017E+01  (-0.1088083E+01)
 number of electron     376.0000074 magnetization 
 augmentation part      111.8269086 magnetization 

 Broyden mixing:
  rms(total) = 0.23204E+01    rms(broyden)= 0.23202E+01
  rms(prec ) = 0.37531E+01
  weight for this iteration     100.00

 eigenvalues of (default mixing * dielectric matrix)
  average eigenvalue GAMMA=   0.5117
  1.1259  0.2669  0.1423

 Free energy of the ion-electron system (eV)
  ---------------------------------------------------
  alpha Z        PSCENC =       975.10247152
  Ewald energy   TEWEN  =     92067.03262426
  -Hartree energ DENC   =   -120864.71210349
  -exchange      EXHF   =         0.00000000
  -V(xc)+E(xc)   XCENC  =       179.96297908
  PAW double counting   =     27937.73272441   -26993.95206208
  entropy T*S    EENTRO =        -0.00345050
  eigenvalues    EBANDS =      -804.63511993
  atomic energy  EATOM  =     27259.89416086
  Solvation  Ediel_sol  =         0.00000000
  ---------------------------------------------------
  free energy    TOTEN  =      -243.57777586 eV

  energy without entropy =     -243.57432536  energy(sigma->0) =     -243.57662570


--------------------------------------------------------------------------------------------------------




--------------------------------------- Iteration      1(   9)  ---------------------------------------


    POTLOK:  cpu time    0.1687: real time    0.1699
    SETDIJ:  cpu time    0.0117: real time    0.0118
    EDDIAG:  cpu time    1.9143: real time    1.9408
  RMM-DIIS:  cpu time    7.0052: real time    7.0642
    ORTHCH:  cpu time    0.3519: real time    0.3539
       DOS:  cpu time    0.0013: real time    0.0013
    CHARGE:  cpu time    0.7047: real time    0.7092
    MIXING:  cpu time    0.0059: real time    0.0059
    --------------------------------------------
      LOOP:  cpu time   10.1637: real time   10.2570

 eigenvalue-minimisations  :  1831
 total energy-change (2. order) : 0.1180155E+02  (-0.6751292E+00)
 number of electron     376.0000069 magnetization 
 augmentation part      112.6015266 magnetization 

 Broyden mixing:
  rms(total) = 0.88929E+00    rms(broyden)= 0.88903E+00
  rms(prec ) = 0.11164E+01
  weight for this iteration     100.00

 eigenvalues of (default mixing * dielectric matrix)
  average eigenvalue GAMMA=   0.5225
  1.2852  0.3334  0.3334  0.1382

 Free energy of the ion-electron system (eV)
  ---------------------------------------------------
  alpha Z        PSCENC =       975.10247152
  Ewald energy   TEWEN  =     92067.03262426
  -Hartree energ DENC   =   -120782.89497246
  -exchange      EXHF   =         0.00000000
  -V(xc)+E(xc)   XCENC  =       179.21868663
  PAW double counting   =     28689.64982992   -27757.50281629
  entropy T*S    EENTRO =        -0.08348675
  eigenvalues    EBANDS =      -862.19272038
  atomic energy  EATOM  =     27259.89416086
  Solvation  Ediel_sol  =         0.00000000
  ---------------------------------------------------
  free energy    TOTEN  =      -231.77622268 eV

  energy without entropy =     -231.69273593  energy(sigma->0) =     -231.74839376


--------------------------------------------------------------------------------------------------------




--------------------------------------- Iteration      1(  10)  ---------------------------------------


    POTLOK:  cpu time    0.1669: real time    0.1682
    SETDIJ:  cpu time    0.0111: real time    0.0112
    EDDIAG:  cpu time    2.0090: real time    2.0244
  RMM-DIIS:  cpu time    6.8749: real time    6.9366
    ORTHCH:  cpu time    0.3170: real time    0.3189
       DOS:  cpu time    0.0011: real time    0.0011
    CHARGE:  cpu time    0.6909: real time    0.6958
    MIXING:  cpu time    0.0059: real time    0.0059
    --------------------------------------------
      LOOP:  cpu time   10.0768: real time   10.1621

 eigenvalue-minimisations  :  1831
 total energy-change (2. order) : 0.1311653E+01  (-0.1976574E+00)
 number of electron     376.0000070 magnetization 
 augmentation part      112.7679502 magnetization 

 Broyden mixing:
  rms(total) = 0.48926E+00    rms(broyden)= 0.48920E+00
  rms(prec ) = 0.61287E+00
  weight for this iteration     100.00

 eigenvalues of (default mixing * dielectric matrix)
  average eigenvalue GAMMA=   0.5527
  1.4026  0.1397  0.4782  0.4782  0.2651

 Free energy of the ion-electron system (eV)
  ---------------------------------------------------
  alpha Z        PSCENC =       975.10247152
  Ewald energy   TEWEN  =     92067.03262426
  -Hartree energ DENC   =   -120772.05185620
  -exchange      EXHF   =         0.00000000
  -V(xc)+E(xc)   XCENC  =       179.05407402
  PAW double counting   =     29100.05597701   -28173.55565464
  entropy T*S    EENTRO =         0.00121481
  eigenvalues    EBANDS =      -865.99758091
  atomic energy  EATOM  =     27259.89416086
  Solvation  Ediel_sol  =         0.00000000
  ---------------------------------------------------
  free energy    TOTEN  =      -230.46456926 eV

  energy without entropy =     -230.46578407  energy(sigma->0) =     -230.46497420


--------------------------------------------------------------------------------------------------------




--------------------------------------- Iteration      1(  11)  ---------------------------------------


    POTLOK:  cpu time    0.1662: real time    0.1674
    SETDIJ:  cpu time    0.0116: real time    0.0117
    EDDIAG:  cpu time    1.9998: real time    2.0140
  RMM-DIIS:  cpu time    6.8675: real time    6.9361
    ORTHCH:  cpu time    0.2663: real time    0.2685
       DOS:  cpu time    0.0013: real time    0.0013
    CHARGE:  cpu time    0.7722: real time    0.7794
    MIXING:  cpu time    0.0063: real time    0.0064
    --------------------------------------------
      LOOP:  cpu time   10.0913: real time   10.1847

 eigenvalue-minimisations  :  1831
 total energy-change (2. order) : 0.2091310E+00  (-0.5048580E-01)
 number of electron     376.0000068 magnetization 
 augmentation part      112.9050559 magnetization 

 Broyden mixing:
  rms(total) = 0.36135E+00    rms(broyden)= 0.36099E+00
  rms(prec ) = 0.47587E+00
  weight for this iteration     100.00

 eigenvalues of (default mixing * dielectric matrix)
  average eigenvalue GAMMA=   0.5818
  1.5726  0.8593  0.1389  0.3440  0.3440  0.2320

 Free energy of the ion-electron system (eV)
  ---------------------------------------------------
  alpha Z        PSCENC =       975.10247152
  Ewald energy   TEWEN  =     92067.03262426
  -Hartree energ DENC   =   -120769.36745969
  -exchange      EXHF   =         0.00000000
  -V(xc)+E(xc)   XCENC  =       179.03891934
  PAW double counting   =     29414.77177486   -28492.32818830
  entropy T*S    EENTRO =        -0.02691392
  eigenvalues    EBANDS =      -864.37282719
  atomic energy  EATOM  =     27259.89416086
  Solvation  Ediel_sol  =         0.00000000
  ---------------------------------------------------
  free energy    TOTEN  =      -230.25543826 eV

  energy without entropy =     -230.22852433  energy(sigma->0) =     -230.24646695


--------------------------------------------------------------------------------------------------------




--------------------------------------- Iteration      1(  12)  ---------------------------------------


    POTLOK:  cpu time    0.1684: real time    0.1700
    SETDIJ:  cpu time    0.0116: real time    0.0119
    EDDIAG:  cpu time    1.9496: real time    1.9719
  RMM-DIIS:  cpu time    6.9734: real time    7.0260
    ORTHCH:  cpu time    0.2645: real time    0.2660
       DOS:  cpu time    0.0012: real time    0.0012
    CHARGE:  cpu time    0.8649: real time    0.8704
    MIXING:  cpu time    0.0075: real time    0.0075
    --------------------------------------------
      LOOP:  cpu time   10.2410: real time   10.3249

 eigenvalue-minimisations  :  1845
 total energy-change (2. order) : 0.1897764E+00  (-0.2215668E-01)
 number of electron     376.0000068 magnetization 
 augmentation part      112.9498881 magnetization 

 Broyden mixing:
  rms(total) = 0.17439E+00    rms(broyden)= 0.17436E+00
  rms(prec ) = 0.19157E+00
  weight for this iteration     100.00

 eigenvalues of (default mixing * dielectric matrix)
  average eigenvalue GAMMA=   0.6779
  1.9465  1.0731  0.6301  0.4310  0.1389  0.2800  0.2456

 Free energy of the ion-electron system (eV)
  ---------------------------------------------------
  alpha Z        PSCENC =       975.10247152
  Ewald energy   TEWEN  =     92067.03262426
  -Hartree energ DENC   =   -120761.08685823
  -exchange      EXHF   =         0.00000000
  -V(xc)+E(xc)   XCENC  =       178.98177046
  PAW double counting   =     29711.77692015   -28792.95147105
  entropy T*S    EENTRO =        -0.01863859
  eigenvalues    EBANDS =      -868.79664123
  atomic energy  EATOM  =     27259.89416086
  Solvation  Ediel_sol  =         0.00000000
  ---------------------------------------------------
  free energy    TOTEN  =      -230.06566185 eV

  energy without entropy =     -230.04702326  energy(sigma->0) =     -230.05944899


--------------------------------------------------------------------------------------------------------




--------------------------------------- Iteration      1(  13)  ---------------------------------------


    POTLOK:  cpu time    0.1704: real time    0.1717
    SETDIJ:  cpu time    0.0114: real time    0.0115
    EDDIAG:  cpu time    1.9595: real time    1.9736
  RMM-DIIS:  cpu time    6.6894: real time    6.7396
    ORTHCH:  cpu time    0.2686: real time    0.2701
       DOS:  cpu time    0.0013: real time    0.0013
    CHARGE:  cpu time    0.6274: real time    0.6313
    MIXING:  cpu time    0.0077: real time    0.0078
    --------------------------------------------
      LOOP:  cpu time    9.7358: real time    9.8067

 eigenvalue-minimisations  :  1836
 total energy-change (2. order) :-0.5831819E-03  (-0.9597783E-02)
 number of electron     376.0000067 magnetization 
 augmentation part      112.9741067 magnetization 

 Broyden mixing:
  rms(total) = 0.17658E+00    rms(broyden)= 0.17657E+00
  rms(prec ) = 0.21712E+00
  weight for this iteration     100.00

 eigenvalues of (default mixing * dielectric matrix)
  average eigenvalue GAMMA=   0.7083
  2.1973  1.1582  0.8306  0.4678  0.1389  0.3264  0.3165  0.2308

 Free energy of the ion-electron system (eV)
  ---------------------------------------------------
  alpha Z        PSCENC =       975.10247152
  Ewald energy   TEWEN  =     92067.03262426
  -Hartree energ DENC   =   -120760.77752694
  -exchange      EXHF   =         0.00000000
  -V(xc)+E(xc)   XCENC  =       178.88588443
  PAW double counting   =     29987.95018883   -29072.42269991
  entropy T*S    EENTRO =        -0.02327740
  eigenvalues    EBANDS =      -865.70807070
  atomic energy  EATOM  =     27259.89416086
  Solvation  Ediel_sol  =         0.00000000
  ---------------------------------------------------
  free energy    TOTEN  =      -230.06624503 eV

  energy without entropy =     -230.04296763  energy(sigma->0) =     -230.05848590


--------------------------------------------------------------------------------------------------------




--------------------------------------- Iteration      1(  14)  ---------------------------------------


    POTLOK:  cpu time    0.1570: real time    0.1581
    SETDIJ:  cpu time    0.0117: real time    0.0118
    EDDIAG:  cpu time    1.8984: real time    1.9119
  RMM-DIIS:  cpu time    6.6839: real time    6.7319
    ORTHCH:  cpu time    0.2548: real time    0.2563
       DOS:  cpu time    0.0014: real time    0.0014
    CHARGE:  cpu time    0.6888: real time    0.6931
    MIXING:  cpu time    0.0075: real time    0.0075
    --------------------------------------------
      LOOP:  cpu time    9.7035: real time    9.7719

 eigenvalue-minimisations  :  1831
 total energy-change (2. order) : 0.2845369E-01  (-0.8159973E-02)
 number of electron     376.0000068 magnetization 
 augmentation part      112.9497616 magnetization 

 Broyden mixing:
  rms(total) = 0.10155E+00    rms(broyden)= 0.10154E+00
  rms(prec ) = 0.12806E+00
  weight for this iteration     100.00

 eigenvalues of (default mixing * dielectric matrix)
  average eigenvalue GAMMA=   0.7310
  2.4342  1.2579  0.8044  0.7392  0.3961  0.1389  0.3036  0.2755  0.2290

 Free energy of the ion-electron system (eV)
  ---------------------------------------------------
  alpha Z        PSCENC =       975.10247152
  Ewald energy   TEWEN  =     92067.03262426
  -Hartree energ DENC   =   -120765.35297520
  -exchange      EXHF   =         0.00000000
  -V(xc)+E(xc)   XCENC  =       178.83019247
  PAW double counting   =     30127.30246512   -29213.36397419
  entropy T*S    EENTRO =        -0.01883042
  eigenvalues    EBANDS =      -859.46392578
  atomic energy  EATOM  =     27259.89416086
  Solvation  Ediel_sol  =         0.00000000
  ---------------------------------------------------
  free energy    TOTEN  =      -230.03779135 eV

  energy without entropy =     -230.01896093  energy(sigma->0) =     -230.03151454


--------------------------------------------------------------------------------------------------------




--------------------------------------- Iteration      1(  15)  ---------------------------------------


    POTLOK:  cpu time    0.1604: real time    0.1615
    SETDIJ:  cpu time    0.0118: real time    0.0119
    EDDIAG:  cpu time    1.8869: real time    1.9001
  RMM-DIIS:  cpu time    6.5452: real time    6.5914
    ORTHCH:  cpu time    0.2615: real time    0.2630
       DOS:  cpu time    0.0013: real time    0.0013
    CHARGE:  cpu time    0.6752: real time    0.6796
    MIXING:  cpu time    0.0078: real time    0.0078
    --------------------------------------------
      LOOP:  cpu time    9.5502: real time    9.6167

 eigenvalue-minimisations  :  1831
 total energy-change (2. order) : 0.8269876E-02  (-0.2797710E-02)
 number of electron     376.0000068 magnetization 
 augmentation part      112.9336544 magnetization 

 Broyden mixing:
  rms(total) = 0.71772E-01    rms(broyden)= 0.71727E-01
  rms(prec ) = 0.90202E-01
  weight for this iteration     100.00

 eigenvalues of (default mixing * dielectric matrix)
  average eigenvalue GAMMA=   0.7018
  2.4567  1.2672  0.8136  0.8136  0.4430  0.1389  0.3046  0.3046  0.2296  0.2456

 Free energy of the ion-electron system (eV)
  ---------------------------------------------------
  alpha Z        PSCENC =       975.10247152
  Ewald energy   TEWEN  =     92067.03262426
  -Hartree energ DENC   =   -120767.02756814
  -exchange      EXHF   =         0.00000000
  -V(xc)+E(xc)   XCENC  =       178.81522811
  PAW double counting   =     30205.54155345   -29292.43466246
  entropy T*S    EENTRO =        -0.01528988
  eigenvalues    EBANDS =      -856.93803920
  atomic energy  EATOM  =     27259.89416086
  Solvation  Ediel_sol  =         0.00000000
  ---------------------------------------------------
  free energy    TOTEN  =      -230.02952147 eV

  energy without entropy =     -230.01423159  energy(sigma->0) =     -230.02442484


--------------------------------------------------------------------------------------------------------




--------------------------------------- Iteration      1(  16)  ---------------------------------------


    POTLOK:  cpu time    0.1607: real time    0.1618
    SETDIJ:  cpu time    0.0123: real time    0.0124
    EDDIAG:  cpu time    1.9242: real time    1.9377
  RMM-DIIS:  cpu time    6.7916: real time    6.8401
    ORTHCH:  cpu time    0.2650: real time    0.2667
       DOS:  cpu time    0.0013: real time    0.0013
    CHARGE:  cpu time    0.7201: real time    0.7245
    MIXING:  cpu time    0.0094: real time    0.0094
    --------------------------------------------
      LOOP:  cpu time    9.8846: real time    9.9540

 eigenvalue-minimisations  :  1828
 total energy-change (2. order) : 0.8077926E-02  (-0.6868181E-03)
 number of electron     376.0000068 magnetization 
 augmentation part      112.9378772 magnetization 

 Broyden mixing:
  rms(total) = 0.19927E-01    rms(broyden)= 0.19916E-01
  rms(prec ) = 0.23746E-01
  weight for this iteration     100.00

 eigenvalues of (default mixing * dielectric matrix)
  average eigenvalue GAMMA=   0.6928
  2.4912  1.2758  0.8068  0.8068  0.5965  0.4237  0.1389  0.3056  0.3056  0.2277
  0.2419

 Free energy of the ion-electron system (eV)
  ---------------------------------------------------
  alpha Z        PSCENC =       975.10247152
  Ewald energy   TEWEN  =     92067.03262426
  -Hartree energ DENC   =   -120767.87838703
  -exchange      EXHF   =         0.00000000
  -V(xc)+E(xc)   XCENC  =       178.82536791
  PAW double counting   =     30212.68075857   -29299.62077145
  entropy T*S    EENTRO =        -0.01793771
  eigenvalues    EBANDS =      -856.03973047
  atomic energy  EATOM  =     27259.89416086
  Solvation  Ediel_sol  =         0.00000000
  ---------------------------------------------------
  free energy    TOTEN  =      -230.02144354 eV

  energy without entropy =     -230.00350583  energy(sigma->0) =     -230.01546431


--------------------------------------------------------------------------------------------------------




--------------------------------------- Iteration      1(  17)  ---------------------------------------


    POTLOK:  cpu time    0.1575: real time    0.1586
    SETDIJ:  cpu time    0.0110: real time    0.0111
    EDDIAG:  cpu time    1.9022: real time    1.9160
  RMM-DIIS:  cpu time    6.7588: real time    6.8076
    ORTHCH:  cpu time    0.2671: real time    0.2687
       DOS:  cpu time    0.0012: real time    0.0012
    CHARGE:  cpu time    0.7372: real time    0.7417
    MIXING:  cpu time    0.0077: real time    0.0078
    --------------------------------------------
      LOOP:  cpu time    9.8427: real time    9.9126

 eigenvalue-minimisations  :  1812
 total energy-change (2. order) : 0.3054909E-03  (-0.1517884E-03)
 number of electron     376.0000068 magnetization 
 augmentation part      112.9382163 magnetization 

 Broyden mixing:
  rms(total) = 0.13707E-01    rms(broyden)= 0.13705E-01
  rms(prec ) = 0.16868E-01
  weight for this iteration     100.00

 eigenvalues of (default mixing * dielectric matrix)
  average eigenvalue GAMMA=   0.7414
  2.5441  1.3191  1.1058  1.1058  0.8382  0.4515  0.1389  0.3182  0.3182  0.2920
  0.2379  0.2266

 Free energy of the ion-electron system (eV)
  ---------------------------------------------------
  alpha Z        PSCENC =       975.10247152
  Ewald energy   TEWEN  =     92067.03262426
  -Hartree energ DENC   =   -120768.26307493
  -exchange      EXHF   =         0.00000000
  -V(xc)+E(xc)   XCENC  =       178.83129267
  PAW double counting   =     30216.69382777   -29303.64542388
  entropy T*S    EENTRO =        -0.01717854
  eigenvalues    EBANDS =      -855.64983781
  atomic energy  EATOM  =     27259.89416086
  Solvation  Ediel_sol  =         0.00000000
  ---------------------------------------------------
  free energy    TOTEN  =      -230.02113805 eV

  energy without entropy =     -230.00395952  energy(sigma->0) =     -230.01541187


--------------------------------------------------------------------------------------------------------




--------------------------------------- Iteration      1(  18)  ---------------------------------------


    POTLOK:  cpu time    0.1675: real time    0.1687
    SETDIJ:  cpu time    0.0114: real time    0.0115
    EDDIAG:  cpu time    1.9042: real time    1.9178
  RMM-DIIS:  cpu time    6.5982: real time    6.6453
    ORTHCH:  cpu time    0.2691: real time    0.2706
       DOS:  cpu time    0.0012: real time    0.0012
    CHARGE:  cpu time    0.6766: real time    0.6808
    MIXING:  cpu time    0.0084: real time    0.0084
    --------------------------------------------
      LOOP:  cpu time    9.6366: real time    9.7044

 eigenvalue-minimisations  :  1761
 total energy-change (2. order) :-0.2328843E-03  (-0.8012133E-04)
 number of electron     376.0000068 magnetization 
 augmentation part      112.9367530 magnetization 

 Broyden mixing:
  rms(total) = 0.12276E-01    rms(broyden)= 0.12275E-01
  rms(prec ) = 0.15245E-01
  weight for this iteration     100.00

 eigenvalues of (default mixing * dielectric matrix)
  average eigenvalue GAMMA=   0.7478
  2.5613  1.8007  1.2775  0.8794  0.8794  0.4543  0.1389  0.3732  0.3158  0.3158
  0.2647  0.2342  0.2266

 Free energy of the ion-electron system (eV)
  ---------------------------------------------------
  alpha Z        PSCENC =       975.10247152
  Ewald energy   TEWEN  =     92067.03262426
  -Hartree energ DENC   =   -120769.73530683
  -exchange      EXHF   =         0.00000000
  -V(xc)+E(xc)   XCENC  =       178.84158882
  PAW double counting   =     30218.23597776   -29305.13944806
  entropy T*S    EENTRO =        -0.01736386
  eigenvalues    EBANDS =      -854.23607541
  atomic energy  EATOM  =     27259.89416086
  Solvation  Ediel_sol  =         0.00000000
  ---------------------------------------------------
  free energy    TOTEN  =      -230.02137094 eV

  energy without entropy =     -230.00400707  energy(sigma->0) =     -230.01558298


--------------------------------------------------------------------------------------------------------




--------------------------------------- Iteration      1(  19)  ---------------------------------------


    POTLOK:  cpu time    0.1667: real time    0.1678
    SETDIJ:  cpu time    0.0129: real time    0.0130
    EDDIAG:  cpu time    1.9526: real time    1.9655
  RMM-DIIS:  cpu time    4.8085: real time    4.8432
    ORTHCH:  cpu time    0.2759: real time    0.2777
       DOS:  cpu time    0.0012: real time    0.0012
    --------------------------------------------
      LOOP:  cpu time    7.2177: real time    7.2684

 eigenvalue-minimisations  :  1237
 total energy-change (2. order) : 0.7429417E-04  (-0.3412314E-04)
 number of electron     376.0000068 magnetization 
 augmentation part      112.9367530 magnetization 

 Free energy of the ion-electron system (eV)
  ---------------------------------------------------
  alpha Z        PSCENC =       975.10247152
  Ewald energy   TEWEN  =     92067.03262426
  -Hartree energ DENC   =   -120770.71788202
  -exchange      EXHF   =         0.00000000
  -V(xc)+E(xc)   XCENC  =       178.84819731
  PAW double counting   =     30216.59825077   -29303.44860477
  entropy T*S    EENTRO =        -0.01784945
  eigenvalues    EBANDS =      -853.31266514
  atomic energy  EATOM  =     27259.89416086
  Solvation  Ediel_sol  =         0.00000000
  ---------------------------------------------------
  free energy    TOTEN  =      -230.02129664 eV

  energy without entropy =     -230.00344720  energy(sigma->0) =     -230.01534683


--------------------------------------------------------------------------------------------------------




 average (electrostatic) potential at core
  the test charge radii are     0.6991  0.7215  1.2059
  (the norm of the test charge is              1.0000)
       1 -56.3569       2 -74.7808       3 -76.3738       4 -72.3044       5 -72.2978
       6 -72.2877       7 -72.2726       8 -72.2906       9 -72.2859      10 -72.2611
      11 -72.2992      12 -72.2783      13 -72.8146      14 -72.9275      15 -72.8714
      16 -72.9901      17 -72.9648      18 -72.9721      19 -72.9872      20 -72.9986
      21 -72.9439      22 -72.9708      23 -73.0384      24 -72.8874      25 -72.9885
      26 -72.9851      27 -73.0612      28 -72.9325      29 -72.9093      30 -72.8424
      31 -72.4628      32 -72.4838      33 -72.5075      34 -72.4842      35 -72.5372
      36 -73.2723      37 -72.5810      38 -73.2833      39 -72.2668
 
 
 
 E-fermi :   1.1228     XC(G=0):  -6.6073     alpha+bet : -6.8913


 k-point     1 :       0.0000    0.0000    0.0000
  band No.  band energies     occupation 
      1     -22.2262      2.00000
      2     -17.0229      2.00000
      3      -8.6931      2.00000
      4      -8.1109      2.00000
      5      -6.8563      2.00000
      6      -6.0681      2.00000
      7      -5.9720      2.00000
      8      -5.7706      2.00000
      9      -5.7340      2.00000
     10      -5.6905      2.00000
     11      -5.6508      2.00000
     12      -5.6185      2.00000
     13      -5.5454      2.00000
     14      -5.5347      2.00000
     15      -5.4492      2.00000
     16      -5.3287      2.00000
     17      -5.1106      2.00000
     18      -5.0926      2.00000
     19      -5.0699      2.00000
     20      -5.0522      2.00000
     21      -5.0500      2.00000
     22      -5.0099      2.00000
     23      -4.7727      2.00000
     24      -4.6886      2.00000
     25      -4.5866      2.00000
     26      -4.5630      2.00000
     27      -4.5329      2.00000
     28      -4.5196      2.00000
     29      -4.4225      2.00000
     30      -4.4105      2.00000
     31      -4.3971      2.00000
     32      -4.3417      2.00000
     33      -4.3152      2.00000
     34      -4.2507      2.00000
     35      -4.2129      2.00000
     36      -4.1668      2.00000
     37      -4.1545      2.00000
     38      -4.1139      2.00000
     39      -4.1038      2.00000
     40      -4.0580      2.00000
     41      -4.0426      2.00000
     42      -4.0393      2.00000
     43      -4.0265      2.00000
     44      -4.0069      2.00000
     45      -3.9626      2.00000
     46      -3.9456      2.00000
     47      -3.6691      2.00000
     48      -3.5975      2.00000
     49      -3.5478      2.00000
     50      -3.4940      2.00000
     51      -3.4633      2.00000
     52      -3.4245      2.00000
     53      -3.4018      2.00000
     54      -3.3807      2.00000
     55      -3.3672      2.00000
     56      -3.3483      2.00000
     57      -3.3097      2.00000
     58      -3.2116      2.00000
     59      -3.1508      2.00000
     60      -3.1388      2.00000
     61      -3.0542      2.00000
     62      -3.0113      2.00000
     63      -2.9529      2.00000
     64      -2.6427      2.00000
     65      -2.5936      2.00000
     66      -2.5797      2.00000
     67      -2.5515      2.00000
     68      -2.5010      2.00000
     69      -2.4868      2.00000
     70      -2.4792      2.00000
     71      -2.4653      2.00000
     72      -2.4386      2.00000
     73      -2.4254      2.00000
     74      -2.3930      2.00000
     75      -2.3806      2.00000
     76      -2.3683      2.00000
     77      -2.3604      2.00000
     78      -2.3446      2.00000
     79      -2.3283      2.00000
     80      -2.3105      2.00000
     81      -2.2924      2.00000
     82      -2.2808      2.00000
     83      -2.2580      2.00000
     84      -2.2334      2.00000
     85      -2.1961      2.00000
     86      -2.1622      2.00000
     87      -2.1330      2.00000
     88      -2.1049      2.00000
     89      -2.0688      2.00000
     90      -2.0594      2.00000
     91      -2.0400      2.00000
     92      -2.0147      2.00000
     93      -1.9842      2.00000
     94      -1.9805      2.00000
     95      -1.9308      2.00000
     96      -1.9073      2.00000
     97      -1.8918      2.00000
     98      -1.8632      2.00000
     99      -1.8392      2.00000
    100      -1.8056      2.00000
    101      -1.7386      2.00000
    102      -1.6103      2.00000
    103      -1.6044      2.00000
    104      -1.5916      2.00000
    105      -1.5856      2.00000
    106      -1.5667      2.00000
    107      -1.5090      2.00000
    108      -1.5007      2.00000
    109      -1.4831      2.00000
    110      -1.4771      2.00000
    111      -1.4585      2.00000
    112      -1.4538      2.00000
    113      -1.4295      2.00000
    114      -1.3245      2.00000
    115      -1.2947      2.00000
    116      -1.2377      2.00000
    117      -1.1530      2.00000
    118      -1.0957      2.00000
    119      -1.0514      2.00000
    120      -1.0268      2.00000
    121      -1.0171      2.00000
    122      -0.9735      2.00000
    123      -0.9581      2.00000
    124      -0.9376      2.00000
    125      -0.8854      2.00000
    126      -0.8257      2.00000
    127      -0.8014      2.00000
    128      -0.7495      2.00000
    129      -0.6849      2.00000
    130      -0.6714      2.00000
    131      -0.6501      2.00000
    132      -0.6289      2.00000
    133      -0.5861      2.00000
    134      -0.5507      2.00000
    135      -0.4652      2.00000
    136      -0.4251      2.00000
    137      -0.3772      2.00000
    138      -0.3690      2.00000
    139      -0.3307      2.00000
    140      -0.3259      2.00000
    141      -0.2668      2.00000
    142      -0.2200      2.00000
    143      -0.1869      2.00000
    144      -0.1655      2.00000
    145      -0.1492      2.00000
    146      -0.1243      2.00000
    147      -0.0840      2.00000
    148      -0.0672      2.00000
    149      -0.0090      2.00000
    150       0.0125      2.00000
    151       0.0963      2.00000
    152       0.1046      2.00000
    153       0.1242      2.00000
    154       0.1480      2.00000
    155       0.1565      2.00000
    156       0.1698      2.00000
    157       0.2380      2.00000
    158       0.2526      2.00000
    159       0.2867      2.00000
    160       0.3117      2.00000
    161       0.3201      2.00000
    162       0.3226      2.00000
    163       0.3540      2.00000
    164       0.3704      2.00000
    165       0.3840      2.00000
    166       0.3982      2.00000
    167       0.4286      2.00001
    168       0.4540      2.00002
    169       0.4796      2.00005
    170       0.5147      2.00015
    171       0.5377      2.00028
    172       0.5418      2.00031
    173       0.5847      2.00095
    174       0.6234      2.00235
    175       0.6702      2.00625
    176       0.6817      2.00780
    177       0.6827      2.00794
    178       0.6955      2.01003
    179       0.7048      2.01183
    180       0.7503      2.02431
    181       0.7648      2.02965
    182       0.7768      2.03452
    183       0.8369      2.06129
    184       0.8380      2.06172
    185       0.8420      2.06324
    186       0.8466      2.06490
    187       0.8569      2.06799
    188       0.8741      2.07081
    189       0.8775      2.07091
    190       0.8788      2.07091
    191       0.8838      2.07063
    192       0.8946      2.06850
    193       0.9080      2.06238
    194       0.9470      2.01515
    195       0.9687      1.96421
    196       1.1164      1.05387
    197       1.1311      0.93011
    198       1.2113      0.32605
    199       1.2218      0.26521
    200       1.2498      0.12957
    201       1.2631      0.07930
    202       1.2726      0.04842
    203       1.2956     -0.00941
    204       1.4606     -0.03804
    205       1.5070     -0.02047
    206       1.9840     -0.00000
    207       2.0518     -0.00000
    208       2.0865     -0.00000
    209       2.1094     -0.00000
    210       2.2567     -0.00000
    211       2.5426     -0.00000
    212       3.6088     -0.00000
    213       3.9873     -0.00000
    214       4.3473     -0.00000
    215       4.3965     -0.00000
    216       4.4823     -0.00000
    217       4.6052     -0.00000
    218       4.8997     -0.00000
    219       5.4525     -0.00000
    220       5.5423     -0.00000
    221       5.8597     -0.00000
    222       5.9116     -0.00000
    223       5.9472     -0.00000
    224       5.9819     -0.00000
    225       6.0277     -0.00000
    226       6.1751     -0.00000
    227       6.5653     -0.00000
    228       6.8173      0.00000

 k-point     2 :       0.5000    0.0000    0.0000
  band No.  band energies     occupation 
      1     -22.2261      2.00000
      2     -17.0225      2.00000
      3      -8.6749      2.00000
      4      -7.3005      2.00000
      5      -7.2105      2.00000
      6      -6.1728      2.00000
      7      -6.0833      2.00000
      8      -5.9589      2.00000
      9      -5.8501      2.00000
     10      -5.6956      2.00000
     11      -5.6075      2.00000
     12      -5.4429      2.00000
     13      -5.3736      2.00000
     14      -5.2657      2.00000
     15      -5.1008      2.00000
     16      -4.9641      2.00000
     17      -4.9396      2.00000
     18      -4.8981      2.00000
     19      -4.8723      2.00000
     20      -4.8460      2.00000
     21      -4.8198      2.00000
     22      -4.8049      2.00000
     23      -4.7842      2.00000
     24      -4.7552      2.00000
     25      -4.7359      2.00000
     26      -4.7139      2.00000
     27      -4.6882      2.00000
     28      -4.6484      2.00000
     29      -4.6141      2.00000
     30      -4.5620      2.00000
     31      -4.4061      2.00000
     32      -4.3776      2.00000
     33      -4.3476      2.00000
     34      -4.2979      2.00000
     35      -4.2660      2.00000
     36      -4.1733      2.00000
     37      -4.0998      2.00000
     38      -4.0602      2.00000
     39      -4.0173      2.00000
     40      -4.0067      2.00000
     41      -3.9865      2.00000
     42      -3.9310      2.00000
     43      -3.8974      2.00000
     44      -3.8170      2.00000
     45      -3.7863      2.00000
     46      -3.7186      2.00000
     47      -3.6915      2.00000
     48      -3.6801      2.00000
     49      -3.6371      2.00000
     50      -3.6097      2.00000
     51      -3.4968      2.00000
     52      -3.4842      2.00000
     53      -3.4377      2.00000
     54      -3.3916      2.00000
     55      -3.3723      2.00000
     56      -3.3472      2.00000
     57      -3.2839      2.00000
     58      -3.2127      2.00000
     59      -3.1912      2.00000
     60      -3.1661      2.00000
     61      -3.1093      2.00000
     62      -3.0723      2.00000
     63      -3.0291      2.00000
     64      -3.0169      2.00000
     65      -2.9817      2.00000
     66      -2.9569      2.00000
     67      -2.9341      2.00000
     68      -2.8661      2.00000
     69      -2.8599      2.00000
     70      -2.8166      2.00000
[...]
     83      -2.2721      2.00000
     84      -2.2520      2.00000
     85      -2.2175      2.00000
     86      -2.1750      2.00000
     87      -2.1656      2.00000
     88      -2.1467      2.00000
     89      -2.1366      2.00000
     90      -2.1158      2.00000
     91      -2.1049      2.00000
     92      -2.0842      2.00000
     93      -2.0285      2.00000
     94      -1.9544      2.00000
     95      -1.9409      2.00000
     96      -1.9142      2.00000
     97      -1.8916      2.00000
     98      -1.8708      2.00000
     99      -1.8472      2.00000
    100      -1.8332      2.00000
    101      -1.7564      2.00000
    102      -1.7349      2.00000
    103      -1.7112      2.00000
    104      -1.6924      2.00000
    105      -1.6533      2.00000
    106      -1.6443      2.00000
    107      -1.6281      2.00000
    108      -1.6004      2.00000
    109      -1.5640      2.00000
    110      -1.5322      2.00000
    111      -1.5206      2.00000
    112      -1.4476      2.00000
    113      -1.3877      2.00000
    114      -1.3496      2.00000
    115      -1.2925      2.00000
    116      -1.2579      2.00000
    117      -1.1989      2.00000
    118      -1.1894      2.00000
    119      -1.1505      2.00000
    120      -1.0768      2.00000
    121      -1.0461      2.00000
    122      -1.0300      2.00000
    123      -1.0088      2.00000
    124      -0.9866      2.00000
    125      -0.9660      2.00000
    126      -0.9583      2.00000
    127      -0.9451      2.00000
    128      -0.9203      2.00000
    129      -0.8986      2.00000
    130      -0.8803      2.00000
    131      -0.8026      2.00000
    132      -0.7865      2.00000
    133      -0.7455      2.00000
    134      -0.7062      2.00000
    135      -0.6844      2.00000
    136      -0.6666      2.00000
    137      -0.6508      2.00000
    138      -0.6167      2.00000
    139      -0.5905      2.00000
    140      -0.5194      2.00000
    141      -0.4651      2.00000
    142      -0.4493      2.00000
    143      -0.3711      2.00000
    144      -0.2578      2.00000
    145      -0.2140      2.00000
    146      -0.1674      2.00000
    147      -0.1421      2.00000
    148      -0.0858      2.00000
    149      -0.0759      2.00000
    150      -0.0458      2.00000
    151      -0.0076      2.00000
    152       0.0781      2.00000
    153       0.0821      2.00000
    154       0.1097      2.00000
    155       0.1220      2.00000
    156       0.1414      2.00000
    157       0.1575      2.00000
    158       0.2023      2.00000
    159       0.2245      2.00000
    160       0.2252      2.00000
    161       0.2709      2.00000
    162       0.3460      2.00000
    163       0.3603      2.00000
    164       0.3915      2.00000
    165       0.4113      2.00000
    166       0.4295      2.00001
    167       0.5464      2.00025
    168       0.6040      2.00111
    169       0.6187      2.00157
    170       0.6502      2.00318
    171       0.6610      2.00400
    172       0.7096      2.01026
    173       0.7466      2.01900
    174       0.8234      2.04971
    175       0.8274      2.05153
    176       0.8391      2.05679
    177       0.8758      2.06936
    178       0.9007      2.07009
    179       0.9508      2.03087
    180       0.9771      1.97630
    181       0.9889      1.94237
    182       1.0596      1.59480
    183       1.0865      1.40242
    184       1.1213      1.12121
    185       1.1284      1.06165
    186       1.1429      0.93889
    187       1.1661      0.74622
    188       1.1827      0.61372
    189       1.1883      0.57169
    190       1.2108      0.41132
    191       1.3455     -0.05897
    192       1.3531     -0.06395
    193       1.4019     -0.06791
    194       1.4277     -0.05877
    195       1.4547     -0.04659
    196       1.5122     -0.02294
    197       1.5946     -0.00551
    198       1.7729     -0.00006
    199       1.8609     -0.00000
    200       2.0159     -0.00000
    201       2.2647     -0.00000
    202       2.3840     -0.00000
    203       2.8348     -0.00000
    204       2.9471     -0.00000
    205       2.9864     -0.00000
    206       3.0020     -0.00000
    207       3.0483     -0.00000
    208       3.2421     -0.00000
    209       3.3938     -0.00000
    210       3.5285     -0.00000
    211       3.5877     -0.00000
    212       3.6589     -0.00000
    213       3.7434     -0.00000
    214       3.8553     -0.00000
    215       3.9612     -0.00000
    216       4.1883     -0.00000
    217       4.2607     -0.00000
    218       4.4335     -0.00000
    219       4.4500     -0.00000
    220       4.6558     -0.00000
    221       4.6835     -0.00000
    222       4.8485     -0.00000
    223       5.1641     -0.00000
    224       5.5448     -0.00000
    225       5.9018     -0.00000
    226       6.5580     -0.00000
    227       6.5729     -0.00000
    228       6.6905      0.00000


--------------------------------------------------------------------------------------------------------


 soft charge-density along one line, spin component           1
         0         1         2         3         4         5         6         7         8         9
 total charge-density along one line
 
 pseudopotential strength for first ion, spin component:           1
 10.106   0.016   0.004   0.012  -0.000  -0.004  -0.011   0.000
  0.016  -0.002  -0.000  -0.000  -0.000  -0.000  -0.000   0.000
  0.004  -0.000  -4.248  -0.007   0.001  -0.011  -0.002   0.000
  0.012  -0.000  -0.007  -4.268   0.004  -0.002  -0.018   0.001
 -0.000  -0.000   0.001   0.004  -4.246   0.000   0.001  -0.011
 -0.004  -0.000  -0.011  -0.002   0.000  -0.770  -0.000   0.000
 -0.011  -0.000  -0.002  -0.018   0.001  -0.000  -0.770   0.000
  0.000   0.000   0.000   0.001  -0.011   0.000   0.000  -0.770
 total augmentation occupancy for first ion, spin component:           1
  1.649  -0.915   0.006   0.031  -0.049   0.031   0.095  -0.025
 -0.915   1.327  -0.202  -0.623   0.107  -0.080  -0.254   0.038
  0.006  -0.202   0.853   0.191   0.003   0.116   0.051  -0.004
  0.031  -0.623   0.191   1.367  -0.031   0.051   0.257  -0.013
 -0.049   0.107   0.003  -0.031   0.790  -0.005  -0.014   0.101
  0.031  -0.080   0.116   0.051  -0.005   0.020   0.020  -0.003
  0.095  -0.254   0.051   0.257  -0.014   0.020   0.075  -0.007
 -0.025   0.038  -0.004  -0.013   0.101  -0.003  -0.007   0.014


------------------------ aborting loop because EDIFF is reached ----------------------------------------


    CHARGE:  cpu time    0.5554: real time    0.5589
    FORLOC:  cpu time    0.0476: real time    0.0479
    FORNL :  cpu time    3.0020: real time    3.0235
    STRESS:  cpu time    8.4844: real time    8.5441
    FORCOR:  cpu time    0.1805: real time    0.1816
    FORHAR:  cpu time    0.0789: real time    0.0793
    MIXING:  cpu time    0.0057: real time    0.0073
    OFIELD:  cpu time    0.0000: real time    0.0000

  FORCE on cell =-STRESS in cart. coord.  units (eV):
  Direction    XX          YY          ZZ          XY          YZ          ZX
  --------------------------------------------------------------------------------------
  Alpha Z   975.10247   975.10247   975.10247
  Ewald  111677.19278111727.75769************  -217.80070   242.01690  -107.43855
  Hartree118447.33313118451.52648************  -141.68015    98.67252   -57.49761
  E(xc)   -1666.58849 -1666.22564 -1673.86795    -0.49828     0.66745    -0.25548
  Local  ************************240854.88031   346.81916  -316.04714   156.65976
  n-local   125.13004   124.41240    93.61098    -1.55591     2.05272    -0.60636
  augment  1895.66015  1893.12533  1932.05853     3.42102    -4.82389     1.60414
  Kinetic  5526.24230  5516.12099  5601.94547    11.39084   -21.09610     7.32050
  Fock        0.00000     0.00000     0.00000     0.00000     0.00000     0.00000
  -------------------------------------------------------------------------------------
  Total     -33.98444   -36.55840     2.24720     0.09598     1.44246    -0.21361
  in kB     -40.47603   -43.54166     2.67645     0.11432     1.71799    -0.25442
  external pressure =      -27.11 kB  Pullay stress =        0.00 kB


 VOLUME and BASIS-vectors are now :
 -----------------------------------------------------------------------------
  energy-cutoff  :      450.00
  volume of cell :     1345.22
      direct lattice vectors                 reciprocal lattice vectors
     7.296955120 -4.212899000  0.000000000     0.137043463  0.000000000  0.000000000
     0.000000000  8.425798000  0.000000000     0.068521732  0.118683121  0.000000000
     0.000000000  0.000000000 21.879635000     0.000000000  0.000000000  0.045704602

  length of vectors
     8.425798004  8.425798000 21.879635000     0.137043463  0.137043463  0.045704602


 FORCES acting on ions
    electron-ion (+dipol)            ewald-force                    non-local-force                 convergence-correction
 -----------------------------------------------------------------------------------------------
   0.642E+01 0.132E+02 -.874E+03   -.675E+01 -.183E+02 0.859E+03   -.141E+00 0.384E+01 0.115E+02   -.287E-01 0.283E-01 0.649E-01
   -.725E+02 0.415E+02 -.161E+04   0.719E+02 -.366E+02 0.163E+04   0.127E+01 -.466E+01 -.241E+02   -.231E-01 0.155E-01 0.387E-01
   0.585E+02 -.931E+02 -.157E+04   -.675E+02 0.113E+03 0.164E+04   0.901E+01 -.191E+02 -.600E+02   -.481E-02 -.104E-01 -.454E-02
   0.683E+00 0.157E+01 0.234E+04   -.601E+00 -.153E+01 -.234E+04   0.117E-01 -.480E-01 -.118E+01   -.628E-01 -.462E-01 0.384E-01
   0.388E+00 0.120E+01 0.234E+04   -.399E+00 -.122E+01 -.234E+04   -.174E-02 -.323E-01 -.110E+01   -.451E-01 0.143E-01 0.167E-01
   0.610E+00 0.305E+00 0.234E+04   -.714E+00 -.223E+00 -.234E+04   0.213E-01 -.351E-01 -.113E+01   0.634E-01 -.451E-01 0.335E-01
   0.855E+00 -.550E+00 0.234E+04   -.756E+00 0.656E+00 -.234E+04   0.185E-02 0.988E-02 -.117E+01   -.808E-01 -.750E-01 -.254E-01
   -.374E+00 0.462E+00 0.235E+04   0.402E+00 -.370E+00 -.234E+04   0.104E-02 0.126E-01 -.129E+01   -.278E-01 -.764E-01 -.211E-01
   -.367E+00 0.284E+00 0.234E+04   0.365E+00 -.273E+00 -.234E+04   0.126E-01 0.153E-01 -.120E+01   0.118E-01 -.166E-01 0.676E-02
   -.274E+00 -.182E+01 0.234E+04   0.306E+00 0.158E+01 -.234E+04   -.758E-01 0.113E+00 -.106E+01   0.508E-01 0.616E-01 -.291E-01
   -.113E+01 -.553E+00 0.234E+04   0.101E+01 0.500E+00 -.234E+04   0.149E-02 -.450E-02 -.128E+01   0.126E+00 0.618E-01 0.240E-01
   -.323E+00 -.992E+00 0.234E+04   0.391E+00 0.877E+00 -.234E+04   -.100E-01 0.181E-01 -.106E+01   -.351E-01 0.121E+00 0.300E-02
   -.637E+00 -.851E+01 0.853E+03   0.529E+00 0.839E+01 -.852E+03   0.106E+00 0.103E+00 -.282E+00   -.689E-03 0.126E+00 -.177E-02
   -.277E+01 -.580E+01 0.861E+03   0.251E+01 0.578E+01 -.861E+03   0.150E+00 0.810E-01 -.123E+00   0.151E+00 0.440E-01 0.211E-01
   -.517E+01 0.117E+01 0.854E+03   0.528E+01 -.132E+01 -.854E+03   0.605E-01 0.325E-01 -.550E-01   -.358E-02 0.858E-01 -.304E-01
   0.320E+01 0.153E+02 0.868E+03   -.324E+01 -.154E+02 -.868E+03   -.178E-02 -.814E-01 -.448E+00   -.644E-01 -.738E-01 0.101E-01
   0.114E+01 0.759E+01 0.860E+03   -.123E+01 -.756E+01 -.859E+03   0.863E-01 -.974E-01 -.286E+00   0.693E-02 -.298E-01 0.418E-01
   0.107E+02 0.327E+01 0.868E+03   -.106E+02 -.323E+01 -.868E+03   -.153E+00 0.744E-01 -.369E+00   -.694E-01 -.117E+00 -.136E-01
   -.199E+01 -.747E+01 0.872E+03   0.206E+01 0.772E+01 -.872E+03   -.427E-01 -.233E-01 -.502E+00   -.908E-02 -.529E-01 0.263E-01
   -.745E+01 -.103E+01 0.870E+03   0.743E+01 0.111E+01 -.870E+03   0.563E-01 0.159E-01 -.493E+00   0.688E-01 -.140E-01 0.600E-01
   0.283E+01 -.451E+01 0.864E+03   -.270E+01 0.467E+01 -.864E+03   -.776E-01 -.541E-01 -.324E+00   -.799E-01 0.316E-01 0.134E-01
   0.141E+01 0.500E+01 -.602E+03   -.153E+01 -.498E+01 0.601E+03   0.180E+00 -.237E-01 0.107E+01   -.286E-01 -.833E-01 -.158E-01
   -.101E+01 -.427E+01 -.620E+03   0.953E+00 0.431E+01 0.619E+03   -.622E-01 0.218E-02 0.435E-01   0.957E-01 -.197E-01 0.767E-01
   -.232E+01 0.321E+01 -.647E+03   0.207E+01 -.282E+01 0.646E+03   0.187E+00 -.363E+00 -.307E-01   -.107E-01 0.223E-02 -.337E-01
   -.556E+00 0.173E+02 -.660E+03   0.726E-01 -.166E+02 0.660E+03   0.229E+00 -.895E+00 -.147E+01   0.110E-01 0.508E-01 0.163E-01
   0.845E+01 -.107E+02 -.641E+03   -.791E+01 0.106E+02 0.641E+03   -.551E+00 0.358E+00 -.569E+00   0.667E-01 0.272E-01 0.545E-01
   -.661E+01 -.160E+02 -.614E+03   0.641E+01 0.159E+02 0.613E+03   0.393E+00 -.189E-01 0.199E+00   -.280E-01 0.381E-01 0.676E-01
   -.736E+01 0.384E+01 -.640E+03   0.736E+01 -.387E+01 0.640E+03   0.254E+00 -.247E+00 0.128E+00   -.567E-01 0.411E-01 0.161E-01
   -.115E+02 0.144E+02 -.617E+03   0.116E+02 -.144E+02 0.617E+03   0.188E+00 -.312E+00 0.825E+00   0.585E-02 -.110E-01 0.107E-01
   0.164E+02 -.549E+01 -.638E+03   -.164E+02 0.544E+01 0.638E+03   -.279E+00 0.115E+00 0.169E+00   -.631E-01 -.356E-01 0.215E-01
   -.209E+02 -.166E+02 -.214E+04   0.214E+02 0.167E+02 0.214E+04   -.465E+00 0.116E+00 0.150E+01   0.530E-01 -.498E-01 -.326E-01
   0.152E+02 0.236E+02 -.215E+04   -.156E+02 -.244E+02 0.215E+04   0.592E+00 0.867E+00 0.163E+01   -.195E-01 -.129E-01 -.598E-01
   0.173E+02 0.834E+01 -.215E+04   -.179E+02 -.794E+01 0.215E+04   0.734E+00 -.684E+00 0.124E+01   0.350E-01 0.298E-01 -.235E-01
   -.887E+01 0.235E+01 -.218E+04   0.872E+01 -.272E+01 0.218E+04   0.102E+00 0.500E+00 0.125E+01   -.168E-01 0.700E-02 -.181E-01
   0.157E+02 0.848E+01 -.216E+04   -.158E+02 -.892E+01 0.216E+04   -.887E-01 0.476E+00 0.138E+01   0.567E-01 0.229E-01 -.281E-01
   0.736E+02 0.616E+02 -.198E+04   -.766E+02 -.602E+02 0.198E+04   0.276E+01 -.100E+01 -.165E+01   -.171E-01 0.926E-02 -.652E-01
   -.579E+02 -.446E+02 -.206E+04   0.593E+02 0.471E+02 0.206E+04   -.141E+01 -.251E+01 0.251E+01   -.465E-01 0.668E-02 -.104E-01
   -.546E+02 0.857E+02 -.206E+04   0.552E+02 -.865E+02 0.206E+04   -.717E+00 0.905E+00 -.944E+00   0.167E-01 -.224E-01 -.556E-01
   0.193E+02 -.735E+02 -.216E+04   -.191E+02 0.749E+02 0.215E+04   -.309E+00 -.133E+01 0.733E+00   -.338E-01 -.111E-01 0.104E-01
 -----------------------------------------------------------------------------------------------
   -.119E+02 0.240E+02 0.778E+02   0.213E-13 -.711E-13 0.182E-11   0.120E+02 -.238E+02 -.780E+02   -.367E-01 0.219E-01 0.204E+00
 
 
 POSITION                                       TOTAL-FORCE (eV/Angst)
 -----------------------------------------------------------------------------------
      5.06364      0.73289     10.33307        -0.503848     -1.274152     -3.311141
      6.64451     -0.55558     10.10164         0.598197      0.265886      0.156659
      4.91519      1.07343     11.40485        -0.018026      0.869478      2.890461
      7.20031     -1.38846      1.62732         0.028911     -0.062555      0.144947
      2.33567      1.42014      1.62732        -0.060660     -0.037785      0.175531
      4.76799      0.01584      1.62732        -0.021004     -0.002561      0.178173
      7.20031      1.42015      1.62732         0.017604      0.036204      0.098950
      2.33567      4.22875      1.62732        -0.001348      0.024039      0.073050
      4.76799      2.82445      1.62732         0.020525      0.005708      0.148079
      2.33567      7.03734      1.62732         0.005059     -0.067264      0.056160
      4.76799      5.63304      1.62732        -0.000148     -0.000024      0.119355
      7.20031      4.22874      1.62732         0.020480      0.020550      0.046812
      1.52490      0.01584      3.92052        -0.004696      0.108760      0.134010
      3.95722     -1.38846      3.92052         0.037188      0.104688      0.004628
      6.38953     -2.79276      3.92052         0.169493     -0.028257      0.086455
      1.52490      2.82445      3.92052        -0.108043     -0.215248     -0.247216
      3.95722      1.42015      3.92052        -0.001516     -0.101989      0.089199
      6.38953      0.01585      3.92052        -0.176620     -0.005607     -0.117309
      1.52490      5.63305      3.92052         0.015113      0.172019     -0.347541
      3.95722      4.22874      3.92052         0.106207      0.081447     -0.209297
      6.38953      2.82445      3.92052        -0.027801      0.141934     -0.135996
      0.70688      4.21956      6.13221         0.036111     -0.087214      0.441530
      3.14780      5.62668      6.18086        -0.028904      0.021842     -0.406832
      5.58745     -1.38061      6.23283        -0.079190      0.024407     -0.132548
      0.72038      1.45070      6.28205        -0.245213     -0.111850     -0.738827
      3.16321     -0.00679      6.24117         0.049274      0.287441     -0.577523
      0.69308      7.04584      6.17874         0.162658     -0.087200     -0.204498
      5.56580      4.23562      6.21180         0.203946     -0.246475     -0.284620
      3.15032      2.83010      6.15567         0.255221     -0.326463      0.313969
      5.59052      1.42171      6.21801        -0.300639      0.023009     -0.217158
      2.36477      4.17559      8.40200         0.073563      0.112377      0.306606
      4.74959      5.56849      8.43517         0.133758      0.083770      0.310210
      2.34780      1.41197      8.48967         0.215674     -0.264799     -0.032244
      7.22834      4.15357      8.48098        -0.067205      0.132847      0.286127
      2.35221      6.97694      8.42344        -0.099708      0.057081      0.495179
      4.71840      0.00340      8.56404        -0.234835      0.418275      0.544091
      7.27936      1.40887      8.41552         0.007192     -0.075611      0.274186
      7.28382     -1.54155      8.58448        -0.045515      0.014002      0.196701
      4.81592      2.82391      8.59090        -0.131255     -0.010708     -0.608319
 -----------------------------------------------------------------------------------
    total drift:                                0.085274      0.148376      0.047179
  FORCES: max atom, RMS     3.583432    0.820470
  Number: max atom                 1
  FORCE total and by dimension    5.123834    3.311141


--------------------------------------------------------------------------------------------------------



  FREE ENERGIE OF THE ION-ELECTRON SYSTEM (eV)
  ---------------------------------------------------
  free  energy   TOTEN  =      -230.40117439 eV

  energy  without entropy=     -230.37906969  energy(sigma->0) =     -230.39380616
 
 d Force = 0.8782256E-01[-0.294E-01, 0.205E+00]  d Energy = 0.9323832E-01-0.542E-02
 d Force = 0.4182165E+02[ 0.411E+02, 0.425E+02]  d Ewald  = 0.4182735E+02-0.571E-02


--------------------------------------------------------------------------------------------------------


    POTLOK:  cpu time    0.1722: real time    0.2872


--------------------------------------------------------------------------------------------------------


 stress matrix after NEB project (eV)
    -33.98444      0.09598     -0.21361
      0.09598    -36.55840      1.44246
     -0.21361      1.44246      2.24720
  FORCES: max atom, RMS     3.583432    0.820470
  FORCE total and by dimension    5.123834    3.311141
  Stress total and by dimension   50.007796   36.558401
 Quasi-Newton relaxation of ions (Broydens 2nd method)
  g(Force)  = 0.507E+00   g(Stress)= 0.000E+00

 retain information from N=  2 steps
 eigenvalues of (default step * inverse Hessian matrix)
  average eigenvalue of G=   0.9088
 eigenvalue spectrum of G is  0.9088  0.9088
  RESET_HESSIAN           0


--------------------------------------------------------------------------------------------------------


    WAVPRE:  cpu time    0.0764: real time    0.4958
    FEWALD:  cpu time    0.0013: real time    0.0013

 real space projection operators:
  total allocation   :      13553.42 KBytes
  max/ min on nodes  :       6785.92       6767.50

    ORTHCH:  cpu time    1.1683: real time    1.1885
     LOOP+:  cpu time   92.6646: real time   94.3098
