 running on    8 total cores
 distrk:  each k-point on    8 cores,    1 groups
 distr:  one band on    2 cores,    4 groups
 using from now: INCAR     
 vasp.5.4.4 16052018 (build Apr 24 2014 20:13:14) complex standard
 Contain Constrained Minimization Technique (TS), Periodic NBO, VASPsol, libbeef, VASP2WANNIER90, Constrained Cell Relaxation
 POSCAR found type information on POSCAR  C  O  Pt
 POSCAR found :  3 types and      39 ions
 scaLAPACK will be used
 LDA part: xc-table for Pade appr. of Perdew
 POSCAR found type information on POSCAR  C  O  Pt
 POSCAR found :  3 types and      39 ions
 POSCAR, INCAR and KPOINTS ok, starting setup
 FFT: planning ...
 WAVECAR not read
 entering main loop
       N       E                     dE             d eps       ncg     rms          rms(c)
DAV:   1     0.242560364738E+04    0.24256E+04   -0.15958E+05  1824   0.129E+03
DAV:   2    -0.652917517527E+02   -0.24909E+04   -0.23120E+04  2136   0.286E+02
DAV:   3    -0.240749357906E+03   -0.17546E+03   -0.15961E+03  2184   0.690E+01
DAV:   4    -0.248061045481E+03   -0.73117E+01   -0.70561E+01  2368   0.134E+01
DAV:   5    -0.248264907657E+03   -0.20386E+00   -0.20192E+00  2368   0.228E+00    0.274E+01
RMM:   6    -0.246779901277E+03    0.14850E+01   -0.55134E+01  1828   0.149E+01    0.302E+01
RMM:   7    -0.247191793239E+03   -0.41189E+00   -0.32212E+01  1828   0.895E+00    0.228E+01
RMM:   8    -0.243577775862E+03    0.36140E+01   -0.10881E+01  1825   0.493E+00    0.232E+01
RMM:   9    -0.231776222682E+03    0.11802E+02   -0.67513E+00  1831   0.430E+00    0.889E+00
RMM:  10    -0.230464569261E+03    0.13117E+01   -0.19766E+00  1831   0.232E+00    0.489E+00
RMM:  11    -0.230255438256E+03    0.20913E+00   -0.50486E-01  1831   0.110E+00    0.361E+00
RMM:  12    -0.230065661850E+03    0.18978E+00   -0.22157E-01  1845   0.755E-01    0.174E+00
RMM:  13    -0.230066245032E+03   -0.58318E-03   -0.95978E-02  1836   0.516E-01    0.177E+00
RMM:  14    -0.230037791346E+03    0.28454E-01   -0.81600E-02  1831   0.492E-01    0.102E+00
RMM:  15    -0.230029521470E+03    0.82699E-02   -0.27977E-02  1831   0.288E-01    0.718E-01
RMM:  16    -0.230021443544E+03    0.80779E-02   -0.68682E-03  1828   0.144E-01    0.199E-01
RMM:  17    -0.230021138053E+03    0.30549E-03   -0.15179E-03  1812   0.653E-02    0.137E-01
RMM:  18    -0.230021370937E+03   -0.23288E-03   -0.80121E-04  1761   0.470E-02    0.123E-01
RMM:  19    -0.230021296643E+03    0.74294E-04   -0.34123E-04  1237   0.327E-02
   1 F= -.23002130E+03 E0= -.23001535E+03  d E =-.230021E+03
 BRION: g(F)=  0.361E+00 g(S)=  0.000E+00
 bond charge predicted
       N       E                     dE             d eps       ncg     rms          rms(c)
DAV:   1    -0.230264014346E+03   -0.24264E+00   -0.35984E+01  1856   0.108E+01    0.734E-01
RMM:   2    -0.230406503874E+03   -0.14249E+00   -0.58963E-01  1833   0.167E+00    0.243E+00
RMM:   3    -0.230321564255E+03    0.84940E-01   -0.51790E-02  1854   0.394E-01    0.864E-01
RMM:   4    -0.230311861555E+03    0.97027E-02   -0.13568E-02  1836   0.199E-01    0.502E-01
RMM:   5    -0.230309312049E+03    0.25495E-02   -0.43242E-03  1831   0.110E-01    0.345E-01
RMM:   6    -0.230309400501E+03   -0.88452E-04   -0.58979E-03  1830   0.128E-01    0.339E-01
RMM:   7    -0.230308620325E+03    0.78018E-03   -0.42963E-03  1831   0.111E-01    0.201E-01
RMM:   8    -0.230308004789E+03    0.61554E-03   -0.11764E-03  1818   0.593E-02    0.968E-02
RMM:   9    -0.230307936067E+03    0.68723E-04   -0.25415E-04  1047   0.291E-02
   2 F= -.23030794E+03 E0= -.23030095E+03  d E =-.286639E+00
 BRION: g(F)=  0.227E+00 g(S)=  0.000E+00 retain N=  1 mean eig= 1.31
 eig:   1.306
 bond charge predicted
       N       E                     dE             d eps       ncg     rms          rms(c)
DAV:   1    -0.230360033497E+03   -0.52029E-01   -0.18579E+01  1840   0.818E+00    0.656E-01
RMM:   2    -0.230436905687E+03   -0.76872E-01   -0.58187E-01  1847   0.134E+00    0.135E+00
RMM:   3    -0.230412688054E+03    0.24218E-01   -0.25631E-02  1850   0.273E-01    0.731E-01
RMM:   4    -0.230406021822E+03    0.66662E-02   -0.62542E-03  1838   0.133E-01    0.451E-01
RMM:   5    -0.230404894350E+03    0.11275E-02   -0.74683E-03  1833   0.139E-01    0.459E-01
RMM:   6    -0.230403612926E+03    0.12814E-02   -0.78121E-03  1830   0.144E-01    0.401E-01
RMM:   7    -0.230401507587E+03    0.21053E-02   -0.28172E-03  1828   0.890E-02    0.137E-01
RMM:   8    -0.230401270673E+03    0.23691E-03   -0.61954E-04  1611   0.429E-02    0.877E-02
RMM:   9    -0.230401174388E+03    0.96285E-04   -0.17277E-04  1018   0.247E-02
   3 F= -.23040117E+03 E0= -.23039381E+03  d E =-.932383E-01
 BRION: g(F)=  0.507E+00 g(S)=  0.000E+00 retain N=  2 mean eig= 0.91
 eig:   0.909  0.909
 bond charge predicted
       N       E                     dE             d eps       ncg     rms          rms(c)
[mpiexec@node11] Sending Ctrl-C to processes as requested
[mpiexec@node11] Press Ctrl-C again to force abort
