<?xml version="1.0" encoding="ISO-8859-1"?>
<modeling>
 <generator>
  <i name="program" type="string"> vasp </i>
  <i name="version" type="string">5.4.4  </i>
  <i name="subversion" type="string">16052018 (build Apr 24 2014 20:13:14) complex standard parallel Constrained Minimization Technique (TS), Periodic NBO, VASPsol, libbeef, VASP2WANNIER90, Constrained Cell Relaxation </i>
  <i name="platform" type="string">Center for Computational Chemistry </i>
  <i name="user" type="string">phu </i>
  <i name="host" type="string">node11 </i>
  <i name="date" type="string">2025 11 24 </i>
  <i name="time" type="string">21:37:34 </i>
 </generator>
 <incar>
  <i type="string" name="SYSTEM"> metal</i>
  <i type="int" name="ISTART">     0</i>
  <i type="string" name="PREC">normal</i>
  <i type="string" name="ALGO">Fast</i>
  <i type="int" name="NSIM">     4</i>
  <i type="int" name="ISPIN">     1</i>
  <i type="int" name="NELMIN">     8</i>
  <i type="int" name="IBRION">     1</i>
  <i name="EDIFFG">     -0.05000000</i>
  <i type="int" name="NSW">  5000</i>
  <i type="int" name="ISIF">     2</i>
  <i type="int" name="ISYM">     0</i>
  <i name="ENCUT">    450.00000000</i>
  <i name="POTIM">      0.20000000</i>
  <i type="string" name="LREAL">A</i>
  <i type="int" name="ISMEAR">     1</i>
  <i name="SIGMA">      0.20000000</i>
  <i type="logical" name="LWAVE"> F  </i>
  <i type="logical" name="LCHARG"> F  </i>
  <v type="int" name="KPOINT_BSE">    -1     0     0     0</v>
  <i type="int" name="VOSKOWN">     0</i>
 </incar>
 <structure name="primitive_cell" >
  <crystal>
   <varray name="basis" >
    <v>       7.29695512      -4.21289900       0.00000000 </v>
    <v>       0.00000000       8.42579800       0.00000000 </v>
    <v>       0.00000000       0.00000000      21.87963500 </v>
   </varray>
   <i name="volume">   1345.21837528 </i>
   <varray name="rec_basis" >
    <v>       0.13704346       0.00000000       0.00000000 </v>
    <v>       0.06852173       0.11868312       0.00000000 </v>
    <v>       0.00000000       0.00000000       0.04570460 </v>
   </varray>
  </crystal>
  <varray name="positions" >
   <v>      -0.30099434       0.43735361       0.47249941 </v>
   <v>      -0.32913089       0.46420950      -0.47761205 </v>
   <v>      -0.35225017       0.32134252       0.38984652 </v>
   <v>      -0.09176441       0.38655344       0.46106474 </v>
   <v>      -0.33901999      -0.33361107       0.39370696 </v>
   <v>      -0.00260778      -0.33343971       0.38392474 </v>
   <v>       0.31918351       0.32852960       0.38779393 </v>
   <v>      -0.00123570       0.31596119       0.39189516 </v>
   <v>       0.32355299      -0.01032181       0.38345404 </v>
   <v>      -0.35020041      -0.01456265       0.38446484 </v>
   <v>      -0.23079418      -0.44716749       0.28477905 </v>
   <v>      -0.00877297      -0.01211725       0.38675675 </v>
   <v>       0.43283593       0.21299272       0.28694201 </v>
   <v>      -0.23430768       0.21878681       0.28547335 </v>
   <v>       0.32396854      -0.34284283       0.38321577 </v>
   <v>       0.42921449      -0.44716414       0.28076819 </v>
   <v>       0.09668781      -0.45051051       0.27935194 </v>
   <v>      -0.23881383      -0.11469368       0.28478016 </v>
   <v>       0.09397497      -0.11646129       0.28330435 </v>
   <v>       0.43201033      -0.11616247       0.28405377 </v>
   <v>       0.10056684       0.22315644       0.28916159 </v>
   <v>      -0.45768900       0.43970300       0.17918600 </v>
   <v>      -0.12435600       0.43970300       0.17918600 </v>
   <v>      -0.45768900       0.10636900       0.17918600 </v>
   <v>      -0.12435600      -0.22696400       0.17918600 </v>
   <v>       0.20897700       0.10636900       0.17918600 </v>
   <v>      -0.45768900      -0.22696400       0.17918600 </v>
   <v>      -0.12435600       0.10636900       0.17918600 </v>
   <v>       0.20897700      -0.22696400       0.17918600 </v>
   <v>       0.20897700       0.43970300       0.17918600 </v>
   <v>      -0.34657800       0.32859100       0.07437600 </v>
   <v>      -0.34657800      -0.33807500       0.07437600 </v>
   <v>      -0.01324500      -0.33807500       0.07437600 </v>
   <v>       0.32008800       0.32859100       0.07437600 </v>
   <v>      -0.01324500       0.32859100       0.07437600 </v>
   <v>       0.32008800      -0.00474200       0.07437600 </v>
   <v>      -0.34657800      -0.00474200       0.07437600 </v>
   <v>      -0.01324500      -0.00474200       0.07437600 </v>
   <v>       0.32008800      -0.33807500       0.07437600 </v>
  </varray>
 </structure>
 <varray name="primitive_index" >
  <v type="int" >        1 </v>
  <v type="int" >        3 </v>
  <v type="int" >       36 </v>
  <v type="int" >        2 </v>
  <v type="int" >       39 </v>
  <v type="int" >       37 </v>
  <v type="int" >       33 </v>
  <v type="int" >       38 </v>
  <v type="int" >       35 </v>
  <v type="int" >       32 </v>
  <v type="int" >       30 </v>
  <v type="int" >       34 </v>
  <v type="int" >       26 </v>
  <v type="int" >       24 </v>
  <v type="int" >       31 </v>
  <v type="int" >       29 </v>
  <v type="int" >       22 </v>
  <v type="int" >       28 </v>
  <v type="int" >       27 </v>
  <v type="int" >       23 </v>
  <v type="int" >       25 </v>
  <v type="int" >       17 </v>
  <v type="int" >       18 </v>
  <v type="int" >       14 </v>
  <v type="int" >       21 </v>
  <v type="int" >       13 </v>
  <v type="int" >       20 </v>
  <v type="int" >       15 </v>
  <v type="int" >       19 </v>
  <v type="int" >       16 </v>
  <v type="int" >        6 </v>
  <v type="int" >        9 </v>
  <v type="int" >        7 </v>
  <v type="int" >        5 </v>
  <v type="int" >        4 </v>
  <v type="int" >       10 </v>
  <v type="int" >       11 </v>
  <v type="int" >       12 </v>
  <v type="int" >        8 </v>
 </varray>
 <kpoints>
  <generation param="Gamma">
   <v type="int" name="divisions">       2        2        1 </v>
   <v name="usershift">      0.00000000       0.00000000       0.00000000 </v>
   <v name="genvec1">      0.50000000       0.00000000       0.00000000 </v>
   <v name="genvec2">     -0.00000000       0.50000000       0.00000000 </v>
   <v name="genvec3">      0.00000000       0.00000000       1.00000000 </v>
   <v name="shift">      0.00000000       0.00000000       0.00000000 </v>
  </generation>
  <varray name="kpointlist" >
   <v>       0.00000000       0.00000000       0.00000000 </v>
   <v>       0.50000000       0.00000000       0.00000000 </v>
   <v>      -0.00000000       0.50000000       0.00000000 </v>
   <v>       0.50000000       0.50000000       0.00000000 </v>
  </varray>
  <varray name="weights" >
   <v>       0.25000000 </v>
   <v>       0.25000000 </v>
   <v>       0.25000000 </v>
   <v>       0.25000000 </v>
  </varray>
 </kpoints>
 <parameters>
  <separator name="general" >
   <i type="string" name="SYSTEM">metal</i>
   <i type="logical" name="LCOMPAT"> F  </i>
  </separator>
  <separator name="electronic" >
   <i type="string" name="PREC">normal</i>
   <i name="ENMAX">    450.00000000</i>
   <i name="ENAUG">    644.87300000</i>
   <i name="EDIFF">      0.00010000</i>
   <i type="int" name="IALGO">    68</i>
   <i type="int" name="IWAVPR">    11</i>
   <i type="int" name="NBANDS">   228</i>
   <i name="NELECT">    376.00000000</i>
   <i type="int" name="TURBO">     0</i>
   <i type="int" name="IRESTART">     0</i>
   <i type="int" name="NREBOOT">     0</i>
   <i type="int" name="NMIN">     0</i>
   <i name="EREF">      0.00000000</i>
   <separator name="electronic smearing" >
    <i type="int" name="ISMEAR">     1</i>
    <i name="SIGMA">      0.20000000</i>
    <i name="KSPACING">      0.50000000</i>
    <i type="logical" name="KGAMMA"> T  </i>
   </separator>
   <separator name="electronic projectors" >
    <i type="logical" name="LREAL"> T  </i>
    <v name="ROPT">     -0.00050000     -0.00050000     -0.00050000</v>
    <i type="int" name="LMAXPAW">  -100</i>
    <i type="int" name="LMAXMIX">     2</i>
    <i type="logical" name="NLSPLINE"> F  </i>
   </separator>
   <separator name="electronic startup" >
    <i type="int" name="ISTART">     0</i>
    <i type="int" name="ICHARG">     2</i>
    <i type="int" name="INIWAV">     1</i>
   </separator>
   <separator name="electronic spin" >
    <i type="int" name="ISPIN">     1</i>
    <i type="logical" name="LNONCOLLINEAR"> F  </i>
    <v name="MAGMOM">      1.00000000      1.00000000      1.00000000      1.00000000      1.00000000      1.00000000      1.00000000      1.00000000      1.00000000      1.00000000      1.00000000      1.00000000      1.00000000      1.00000000      1.00000000      1.00000000      1.00000000      1.00000000      1.00000000      1.00000000
      1.00000000      1.00000000      1.00000000      1.00000000      1.00000000      1.00000000      1.00000000      1.00000000      1.00000000      1.00000000      1.00000000      1.00000000      1.00000000      1.00000000      1.00000000      1.00000000      1.00000000      1.00000000      1.00000000</v>
    <i name="NUPDOWN">     -1.00000000</i>
    <i type="logical" name="LSORBIT"> F  </i>
    <v name="SAXIS">      0.00000000      0.00000000      1.00000000</v>
    <i type="logical" name="LSPIRAL"> F  </i>
    <v name="QSPIRAL">      0.00000000      0.00000000      0.00000000</v>
    <i type="logical" name="LZEROZ"> F  </i>
   </separator>
   <separator name="electronic exchange-correlation" >
    <i type="logical" name="LASPH"> F  </i>
    <i type="logical" name="LMETAGGA"> F  </i>
   </separator>
   <separator name="electronic convergence" >
    <i type="int" name="NELM">    60</i>
    <i type="int" name="NELMDL">    -5</i>
    <i type="int" name="NELMIN">     8</i>
    <i name="ENINI">    450.00000000</i>
    <separator name="electronic convergence detail" >
     <i type="logical" name="LDIAG"> T  </i>
     <i type="logical" name="LSUBROT"> F  </i>
     <i name="WEIMIN">      0.00100000</i>
     <i name="EBREAK">      0.00000011</i>
     <i name="DEPER">      0.30000000</i>
     <i type="int" name="NRMM">     4</i>
     <i name="TIME">      0.40000000</i>
    </separator>
   </separator>
   <separator name="electronic mixer" >
    <i name="AMIX">      0.40000000</i>
    <i name="BMIX">      1.00000000</i>
    <i name="AMIN">      0.10000000</i>
    <i name="AMIX_MAG">      1.60000000</i>
    <i name="BMIX_MAG">      1.00000000</i>
    <separator name="electronic mixer details" >
     <i type="int" name="IMIX">     4</i>
     <i type="logical" name="MIXFIRST"> F  </i>
     <i type="int" name="MAXMIX">   -45</i>
     <i name="WC">    100.00000000</i>
     <i type="int" name="INIMIX">     1</i>
     <i type="int" name="MIXPRE">     1</i>
     <i type="int" name="MREMOVE">     5</i>
    </separator>
   </separator>
   <separator name="electronic dipolcorrection" >
    <i type="logical" name="LDIPOL"> F  </i>
    <i type="logical" name="LMONO"> F  </i>
    <i type="int" name="IDIPOL">     0</i>
    <i name="EPSILON">      1.00000000</i>
    <v name="DIPOL">   -100.00000000   -100.00000000   -100.00000000</v>
    <i name="EFIELD">      0.00000000</i>
   </separator>
  </separator>
  <separator name="grids" >
   <i type="int" name="NGX">    48</i>
   <i type="int" name="NGY">    48</i>
   <i type="int" name="NGZ">   120</i>
   <i type="int" name="NGXF">    96</i>
   <i type="int" name="NGYF">    96</i>
   <i type="int" name="NGZF">   240</i>
   <i type="logical" name="ADDGRID"> F  </i>
  </separator>
  <separator name="ionic" >
   <i type="int" name="NSW">  5000</i>
   <i type="int" name="IBRION">     1</i>
   <i type="int" name="MDALGO">     0</i>
   <i type="int" name="ISIF">     2</i>
   <i name="PSTRESS">      0.00000000</i>
   <i name="EDIFFG">     -0.05000000</i>
   <i type="int" name="NFREE">     0</i>
   <i name="POTIM">      0.20000000</i>
   <i name="SMASS">     -3.00000000</i>
   <i name="SCALEE">      1.00000000</i>
  </separator>
  <separator name="ionic md" >
   <i name="TEBEG">      0.00010000</i>
   <i name="TEEND">      0.00010000</i>
   <i type="int" name="NBLOCK">     1</i>
   <i type="int" name="KBLOCK">  5000</i>
   <i type="int" name="NPACO">   256</i>
   <i name="APACO">     16.00000000</i>
  </separator>
  <separator name="symmetry" >
   <i type="int" name="ISYM">     0</i>
   <i name="SYMPREC">      0.00001000</i>
  </separator>
  <separator name="dos" >
   <i type="int" name="LORBIT">     0</i>
   <v name="RWIGS">     -1.00000000     -1.00000000     -1.00000000</v>
   <i type="int" name="NEDOS">   301</i>
   <i name="EMIN">     10.00000000</i>
   <i name="EMAX">    -10.00000000</i>
   <i name="EFERMI">      0.00000000</i>
  </separator>
  <separator name="writing" >
   <i type="int" name="NWRITE">     2</i>
   <i type="logical" name="LWAVE"> F  </i>
   <i type="logical" name="LDOWNSAMPLE"> F  </i>
   <i type="logical" name="LCHARG"> F  </i>
   <i type="logical" name="LPARD"> F  </i>
   <i type="logical" name="LVTOT"> F  </i>
   <i type="logical" name="LVHAR"> F  </i>
   <i type="logical" name="LELF"> F  </i>
   <i type="logical" name="LOPTICS"> F  </i>
   <v name="STM">      0.00000000      0.00000000      0.00000000      0.00000000      0.00000000      0.00000000      0.00000000</v>
  </separator>
  <separator name="performance" >
   <i type="int" name="NPAR">     4</i>
   <i type="int" name="NSIM">     4</i>
   <i type="int" name="NBLK">    -1</i>
   <i type="logical" name="LPLANE"> T  </i>
   <i type="logical" name="LSCALAPACK"> T  </i>
   <i type="logical" name="LSCAAWARE"> F  </i>
   <i type="logical" name="LSCALU"> F  </i>
   <i type="logical" name="LASYNC"> F  </i>
   <i type="logical" name="LORBITALREAL"> F  </i>
  </separator>
  <separator name="miscellaneous" >
   <i type="int" name="IDIOT">     3</i>
   <i type="int" name="ISPECIAL">     0</i>
   <i type="logical" name="LMUSIC"> F  </i>
   <v name="POMASS">     12.01100000     16.00000000    195.08000000</v>
   <v name="DARWINR">      0.00000000      0.00000000      0.00000000</v>
   <v name="DARWINV">      1.00000000      1.00000000      1.00000000</v>
   <i type="logical" name="LCORR"> T  </i>
  </separator>
  <i type="logical" name="GGA_COMPAT"> T  </i>
  <i type="logical" name="LBERRY"> F  </i>
  <i type="int" name="ICORELEVEL">     0</i>
  <i type="logical" name="LDAU"> F  </i>
  <i type="int" name="I_CONSTRAINED_M">     0</i>
  <separator name="electronic exchange-correlation" >
   <i type="string" name="GGA">--</i>
   <i type="int" name="VOSKOWN">     0</i>
   <i type="logical" name="LHFCALC"> F  </i>
   <i type="string" name="PRECFOCK"></i>
   <i type="logical" name="LSYMGRAD"> F  </i>
   <i type="logical" name="LHFONE"> F  </i>
   <i type="logical" name="LRHFCALC"> F  </i>
   <i type="logical" name="LTHOMAS"> F  </i>
   <i type="logical" name="LMODELHF"> F  </i>
   <i name="ENCUT4O">     -1.00000000</i>
   <i type="int" name="EXXOEP">     0</i>
   <i type="int" name="FOURORBIT">     0</i>
   <i name="AEXX">      0.00000000</i>
   <i name="HFALPHA">      0.00000000</i>
   <i name="MCALPHA">      0.00000000</i>
   <i name="ALDAX">      1.00000000</i>
   <i name="AGGAX">      1.00000000</i>
   <i name="ALDAC">      1.00000000</i>
   <i name="AGGAC">      1.00000000</i>
   <i type="int" name="NKREDX">     1</i>
   <i type="int" name="NKREDY">     1</i>
   <i type="int" name="NKREDZ">     1</i>
   <i type="logical" name="SHIFTRED"> F  </i>
   <i type="logical" name="ODDONLY"> F  </i>
   <i type="logical" name="EVENONLY"> F  </i>
   <i type="int" name="LMAXFOCK">     0</i>
   <i type="int" name="NMAXFOCKAE">     0</i>
   <i type="logical" name="LFOCKAEDFT"> F  </i>
   <i name="HFSCREEN">      0.00000000</i>
   <i name="HFSCREENC">      0.00000000</i>
   <i type="int" name="NBANDSGWLOW">     0</i>
  </separator>
  <separator name="vdW DFT" >
   <i type="logical" name="LUSE_VDW"> F  </i>
   <i name="Zab_VDW">     -0.84910000</i>
   <i name="PARAM1">      0.12340000</i>
   <i name="PARAM2">      1.00000000</i>
   <i name="PARAM3">      0.00000000</i>
  </separator>
  <separator name="model GW" >
   <i type="int" name="MODEL_GW">     0</i>
   <i name="MODEL_EPS0">     20.69566731</i>
   <i name="MODEL_ALPHA">      1.00000000</i>
  </separator>
  <separator name="linear response parameters" >
   <i type="logical" name="LEPSILON"> F  </i>
   <i type="logical" name="LRPA"> F  </i>
   <i type="logical" name="LNABLA"> F  </i>
   <i type="logical" name="LVEL"> F  </i>
   <i type="int" name="KINTER">     0</i>
   <i name="CSHIFT">      0.10000000</i>
   <i name="OMEGAMAX">     -1.00000000</i>
   <i name="DEG_THRESHOLD">      0.00200000</i>
   <i name="RTIME">     -0.10000000</i>
   <i name="WPLASMAI">      0.00000000</i>
   <v name="DFIELD">      0.00000000      0.00000000      0.00000000</v>
   <v name="WPLASMA">      0.00000000      0.00000000      0.00000000      0.00000000      0.00000000      0.00000000      0.00000000      0.00000000      0.00000000</v>
  </separator>
  <separator name="orbital magnetization" >
   <i type="logical" name="NUCIND"> F  </i>
   <v name="MAGPOS">      0.00000000      0.00000000      0.00000000</v>
   <i type="logical" name="LNICSALL"> T  </i>
   <i type="logical" name="ORBITALMAG"> F  </i>
   <i type="logical" name="LMAGBLOCH"> F  </i>
   <i type="logical" name="LCHIMAG"> F  </i>
   <i type="logical" name="LGAUGE"> T  </i>
   <i type="int" name="MAGATOM">     0</i>
   <v name="MAGDIPOL">      0.00000000      0.00000000      0.00000000</v>
   <v name="AVECCONST">      0.00000000      0.00000000      0.00000000</v>
  </separator>
  <separator name="response functions" >
   <i type="logical" name="LADDER"> F  </i>
   <i type="logical" name="LRPAFORCE"> F  </i>
   <i type="logical" name="LFXC"> F  </i>
   <i type="logical" name="LHARTREE"> T  </i>
   <i type="int" name="IBSE">     0</i>
   <v type="int" name="KPOINT">    -1     0     0     0</v>
   <i type="logical" name="LTCTE"> F  </i>
   <i type="logical" name="LTETE"> F  </i>
   <i type="logical" name="LTRIPLET"> F  </i>
   <i type="logical" name="LFXCEPS"> F  </i>
   <i type="logical" name="LFXHEG"> F  </i>
   <i type="int" name="NATURALO">     2</i>
   <i type="logical" name="L2ORDER"> F  </i>
   <i type="logical" name="LMP2LT"> F  </i>
   <i type="logical" name="LUSEW"> F  </i>
   <i name="ENCUTGW">     -2.00000000</i>
   <i name="ENCUTGWSOFT">     -2.00000000</i>
   <i name="ENCUTLF">     -1.00000000</i>
   <i type="int" name="LMAXMP2">    -1</i>
   <i name="SCISSOR">      0.00000000</i>
   <i type="int" name="NOMEGA">     0</i>
   <i type="int" name="NOMEGAR">     0</i>
   <i type="int" name="NBANDSGW">    -1</i>
   <i type="int" name="NBANDSO">    -1</i>
   <i type="int" name="NBANDSV">    -1</i>
   <i type="int" name="NELM">     1</i>
   <i type="int" name="NELMHF">     1</i>
   <i type="int" name="DIM">     3</i>
   <i type="int" name="ANTIRES">     0</i>
   <i name="OMEGAMAX">    -30.00000000</i>
   <i name="OMEGAMIN">    -30.00000000</i>
   <i name="OMEGATL">   -200.00000000</i>
   <i type="int" name="OMEGAGRID">   140</i>
   <i name="CSHIFT">     -0.10000000</i>
   <i type="logical" name="SELFENERGY"> F  </i>
   <i type="logical" name="LSPECTRAL"> F  </i>
   <i type="logical" name="LSPECTRALGW"> F  </i>
   <i type="logical" name="LSINGLES"> F  </i>
   <i type="logical" name="LFERMIGW"> F  </i>
   <i type="logical" name="ODDONLYGW"> F  </i>
   <i type="logical" name="EVENONLYGW"> F  </i>
   <i type="int" name="NKREDLFX">     1</i>
   <i type="int" name="NKREDLFY">     1</i>
   <i type="int" name="NKREDLFZ">     1</i>
   <i type="int" name="MAXMEM">  2800</i>
   <i type="int" name="TELESCOPE">     0</i>
   <i type="int" name="TAUPAR">     1</i>
   <i type="int" name="OMEGAPAR">    -1</i>
   <i name="LAMBDA">      1.00000000</i>
  </separator>
  <separator name="External order field" >
   <i name="OFIELD_KAPPA">      0.00000000</i>
   <v name="OFIELD_K">      0.00000000      0.00000000      0.00000000</v>
   <i name="OFIELD_Q6_NEAR">      0.00000000</i>
   <i name="OFIELD_Q6_FAR">      0.00000000</i>
   <i name="OFIELD_A">      0.00000000</i>
  </separator>
  <separator name="solvation model" >
   <i type="logical" name="LSOL"> F  </i>
  </separator>
 </parameters>
 <atominfo>
  <atoms>      39 </atoms>
  <types>       3 </types>
  <array name="atoms" >
   <dimension dim="1">ion</dimension>
   <field type="string">element</field>
   <field type="int">atomtype</field>
   <set>
    <rc><c>C </c><c>   1</c></rc>
    <rc><c>O </c><c>   2</c></rc>
    <rc><c>O </c><c>   2</c></rc>
    <rc><c>Pt</c><c>   3</c></rc>
    <rc><c>Pt</c><c>   3</c></rc>
    <rc><c>Pt</c><c>   3</c></rc>
    <rc><c>Pt</c><c>   3</c></rc>
    <rc><c>Pt</c><c>   3</c></rc>
    <rc><c>Pt</c><c>   3</c></rc>
    <rc><c>Pt</c><c>   3</c></rc>
    <rc><c>Pt</c><c>   3</c></rc>
    <rc><c>Pt</c><c>   3</c></rc>
    <rc><c>Pt</c><c>   3</c></rc>
    <rc><c>Pt</c><c>   3</c></rc>
    <rc><c>Pt</c><c>   3</c></rc>
    <rc><c>Pt</c><c>   3</c></rc>
    <rc><c>Pt</c><c>   3</c></rc>
    <rc><c>Pt</c><c>   3</c></rc>
    <rc><c>Pt</c><c>   3</c></rc>
    <rc><c>Pt</c><c>   3</c></rc>
    <rc><c>Pt</c><c>   3</c></rc>
    <rc><c>Pt</c><c>   3</c></rc>
    <rc><c>Pt</c><c>   3</c></rc>
    <rc><c>Pt</c><c>   3</c></rc>
    <rc><c>Pt</c><c>   3</c></rc>
    <rc><c>Pt</c><c>   3</c></rc>
    <rc><c>Pt</c><c>   3</c></rc>
    <rc><c>Pt</c><c>   3</c></rc>
    <rc><c>Pt</c><c>   3</c></rc>
    <rc><c>Pt</c><c>   3</c></rc>
    <rc><c>Pt</c><c>   3</c></rc>
    <rc><c>Pt</c><c>   3</c></rc>
    <rc><c>Pt</c><c>   3</c></rc>
    <rc><c>Pt</c><c>   3</c></rc>
    <rc><c>Pt</c><c>   3</c></rc>
    <rc><c>Pt</c><c>   3</c></rc>
    <rc><c>Pt</c><c>   3</c></rc>
    <rc><c>Pt</c><c>   3</c></rc>
    <rc><c>Pt</c><c>   3</c></rc>
   </set>
  </array>
  <array name="atomtypes" >
   <dimension dim="1">type</dimension>
   <field type="int">atomspertype</field>
   <field type="string">element</field>
   <field>mass</field>
   <field>valence</field>
   <field type="string">pseudopotential</field>
   <set>
    <rc><c>   1</c><c>C </c><c>     12.01100000</c><c>      4.00000000</c><c> PAW_PBE C 08Apr2002                    </c></rc>
    <rc><c>   2</c><c>O </c><c>     16.00000000</c><c>      6.00000000</c><c> PAW_PBE O 08Apr2002                    </c></rc>
    <rc><c>  36</c><c>Pt</c><c>    195.08000000</c><c>     10.00000000</c><c>  PAW_PBE Pt 04Feb2005                  </c></rc>
   </set>
  </array>
 </atominfo>
 <structure name="initialpos" >
  <crystal>
   <varray name="basis" >
    <v>       7.29695512      -4.21289900       0.00000000 </v>
    <v>       0.00000000       8.42579800       0.00000000 </v>
    <v>       0.00000000       0.00000000      21.87963500 </v>
   </varray>
   <i name="volume">   1345.21837528 </i>
   <varray name="rec_basis" >
    <v>       0.13704346       0.00000000       0.00000000 </v>
    <v>       0.06852173       0.11868312       0.00000000 </v>
    <v>       0.00000000       0.00000000       0.04570460 </v>
   </varray>
  </crystal>
  <varray name="positions" >
   <v>       0.69900566       0.43735361       0.47249941 </v>
   <v>       0.90823559       0.38655344       0.46106474 </v>
   <v>       0.67086911       0.46420950       0.52238795 </v>
   <v>       0.98675500       0.32859100       0.07437600 </v>
   <v>       0.32008800       0.32859100       0.07437600 </v>
   <v>       0.65342200       0.32859100       0.07437600 </v>
   <v>       0.98675500       0.66192500       0.07437600 </v>
   <v>       0.32008800       0.66192500       0.07437600 </v>
   <v>       0.65342200       0.66192500       0.07437600 </v>
   <v>       0.32008800       0.99525800       0.07437600 </v>
   <v>       0.65342200       0.99525800       0.07437600 </v>
   <v>       0.98675500       0.99525800       0.07437600 </v>
   <v>       0.20897700       0.10636900       0.17918600 </v>
   <v>       0.54231100       0.10636900       0.17918600 </v>
   <v>       0.87564400       0.10636900       0.17918600 </v>
   <v>       0.20897700       0.43970300       0.17918600 </v>
   <v>       0.54231100       0.43970300       0.17918600 </v>
   <v>       0.87564400       0.43970300       0.17918600 </v>
   <v>       0.20897700       0.77303600       0.17918600 </v>
   <v>       0.54231100       0.77303600       0.17918600 </v>
   <v>       0.87564400       0.77303600       0.17918600 </v>
   <v>       0.09668781       0.54948949       0.27935194 </v>
   <v>       0.43201033       0.88383753       0.28405377 </v>
   <v>       0.76569232       0.21878681       0.28547335 </v>
   <v>       0.10056684       0.22315644       0.28916159 </v>
   <v>       0.43283593       0.21299272       0.28694201 </v>
   <v>       0.09397497       0.88353871       0.28330435 </v>
   <v>       0.76118617       0.88530632       0.28478016 </v>
   <v>       0.42921449       0.55283586       0.28076819 </v>
   <v>       0.76920582       0.55283251       0.28477905 </v>
   <v>       0.32396854       0.65715717       0.38321577 </v>
   <v>       0.64979959       0.98543735       0.38446484 </v>
   <v>       0.31918351       0.32852960       0.38779393 </v>
   <v>       0.99122703       0.98788275       0.38675675 </v>
   <v>       0.32355299       0.98967819       0.38345404 </v>
   <v>       0.64774983       0.32134252       0.38984652 </v>
   <v>       0.99739222       0.66656029       0.38392474 </v>
   <v>       0.99876430       0.31596119       0.39189516 </v>
   <v>       0.66098001       0.66638893       0.39370696 </v>
  </varray>
  <varray name="selective"  type="logical" >
   <v type="logical" >  T  T  T </v>
   <v type="logical" >  T  T  T </v>
   <v type="logical" >  T  T  T </v>
   <v type="logical" >  F  F  F </v>
   <v type="logical" >  F  F  F </v>
   <v type="logical" >  F  F  F </v>
   <v type="logical" >  F  F  F </v>
   <v type="logical" >  F  F  F </v>
   <v type="logical" >  F  F  F </v>
   <v type="logical" >  F  F  F </v>
   <v type="logical" >  F  F  F </v>
   <v type="logical" >  F  F  F </v>
   <v type="logical" >  F  F  F </v>
   <v type="logical" >  F  F  F </v>
   <v type="logical" >  F  F  F </v>
   <v type="logical" >  F  F  F </v>
   <v type="logical" >  F  F  F </v>
   <v type="logical" >  F  F  F </v>
   <v type="logical" >  F  F  F </v>
   <v type="logical" >  F  F  F </v>
   <v type="logical" >  F  F  F </v>
   <v type="logical" >  T  T  T </v>
   <v type="logical" >  T  T  T </v>
   <v type="logical" >  T  T  T </v>
   <v type="logical" >  T  T  T </v>
   <v type="logical" >  T  T  T </v>
   <v type="logical" >  T  T  T </v>
   <v type="logical" >  T  T  T </v>
   <v type="logical" >  T  T  T </v>
   <v type="logical" >  T  T  T </v>
   <v type="logical" >  T  T  T </v>
   <v type="logical" >  T  T  T </v>
   <v type="logical" >  T  T  T </v>
   <v type="logical" >  T  T  T </v>
   <v type="logical" >  T  T  T </v>
   <v type="logical" >  T  T  T </v>
   <v type="logical" >  T  T  T </v>
   <v type="logical" >  T  T  T </v>
   <v type="logical" >  T  T  T </v>
  </varray>
  <nose>
   <v>      -3.00000000       0.00000000       0.00010000       0.00010000 </v>
  </nose>
 </structure>
 <calculation>
  <scstep>
   <time name="dav">   11.23   11.35</time>
   <time name="total">   11.41   11.69</time>
   <energy>
    <i name="alphaZ">    975.10247152 </i>
    <i name="ewald">  92067.03262426 </i>
    <i name="hartreedc">-121151.80241691 </i>
    <i name="XCdc">    190.26057777 </i>
    <i name="pawpsdc">  24789.08602224 </i>
    <i name="pawaedc"> -23775.73976456 </i>
    <i name="eentropy">     -0.00534277 </i>
    <i name="bandstr">   2071.77531497 </i>
    <i name="atom">  27259.89416086 </i>
    <i name="e_fr_energy">   2425.60364738 </i>
    <i name="e_wo_entrp">   2425.60899015 </i>
    <i name="e_0_energy">   2425.60542831 </i>
   </energy>
  </scstep>
  <scstep>
   <time name="dav">   12.72   13.53</time>
   <time name="total">   12.72   13.53</time>
   <energy>
    <i name="e_fr_energy">    -65.29175175 </i>
    <i name="e_wo_entrp">    -65.28486620 </i>
    <i name="e_0_energy">    -65.28945657 </i>
   </energy>
  </scstep>
  <scstep>
   <time name="dav">   13.35   13.46</time>
   <time name="total">   13.35   13.46</time>
   <energy>
    <i name="e_fr_energy">   -240.74935791 </i>
    <i name="e_wo_entrp">   -240.74396605 </i>
    <i name="e_0_energy">   -240.74756062 </i>
   </energy>
  </scstep>
  <scstep>
   <time name="dav">   14.02   14.11</time>
   <time name="total">   14.02   14.11</time>
   <energy>
    <i name="e_fr_energy">   -248.06104548 </i>
    <i name="e_wo_entrp">   -248.06126116 </i>
    <i name="e_0_energy">   -248.06111737 </i>
   </energy>
  </scstep>
  <scstep>
   <time name="dav">   14.17   14.27</time>
   <time name="total">   14.84   14.95</time>
   <energy>
    <i name="e_fr_energy">   -248.26490766 </i>
    <i name="e_wo_entrp">   -248.26542939 </i>
    <i name="e_0_energy">   -248.26508157 </i>
   </energy>
  </scstep>
  <scstep>
   <time name="diag">    1.94    1.96</time>
   <time name="diis">    6.99    7.04</time>
   <time name="orth">    0.27    0.27</time>
   <time name="total">   10.10   11.75</time>
   <energy>
    <i name="e_fr_energy">   -246.77990128 </i>
    <i name="e_wo_entrp">   -246.59000280 </i>
    <i name="e_0_energy">   -246.71660179 </i>
   </energy>
  </scstep>
  <scstep>
   <time name="diag">    1.87    1.98</time>
   <time name="diis">    6.83    6.89</time>
   <time name="orth">    0.26    0.26</time>
   <time name="total">    9.82   10.13</time>
   <energy>
    <i name="e_fr_energy">   -247.19179324 </i>
    <i name="e_wo_entrp">   -247.07042231 </i>
    <i name="e_0_energy">   -247.15133626 </i>
   </energy>
  </scstep>
  <scstep>
   <time name="diag">    1.91    1.93</time>
   <time name="diis">    6.70    6.75</time>
   <time name="orth">    0.26    0.27</time>
   <time name="total">    9.74    9.82</time>
   <energy>
    <i name="e_fr_energy">   -243.57777586 </i>
    <i name="e_wo_entrp">   -243.57432536 </i>
    <i name="e_0_energy">   -243.57662570 </i>
   </energy>
  </scstep>
  <scstep>
   <time name="diag">    1.91    1.94</time>
   <time name="diis">    7.01    7.06</time>
   <time name="orth">    0.35    0.35</time>
   <time name="total">   10.16   10.26</time>
   <energy>
    <i name="e_fr_energy">   -231.77622268 </i>
    <i name="e_wo_entrp">   -231.69273593 </i>
    <i name="e_0_energy">   -231.74839376 </i>
   </energy>
  </scstep>
  <scstep>
   <time name="diag">    2.01    2.02</time>
   <time name="diis">    6.87    6.94</time>
   <time name="orth">    0.32    0.32</time>
   <time name="total">   10.08   10.16</time>
   <energy>
    <i name="e_fr_energy">   -230.46456926 </i>
    <i name="e_wo_entrp">   -230.46578407 </i>
    <i name="e_0_energy">   -230.46497420 </i>
   </energy>
  </scstep>
  <scstep>
   <time name="diag">    2.00    2.01</time>
   <time name="diis">    6.87    6.94</time>
   <time name="orth">    0.27    0.27</time>
   <time name="total">   10.09   10.18</time>
   <energy>
    <i name="e_fr_energy">   -230.25543826 </i>
    <i name="e_wo_entrp">   -230.22852433 </i>
    <i name="e_0_energy">   -230.24646695 </i>
   </energy>
  </scstep>
  <scstep>
   <time name="diag">    1.95    1.97</time>
   <time name="diis">    6.97    7.03</time>
   <time name="orth">    0.26    0.27</time>
   <time name="total">   10.24   10.32</time>
   <energy>
    <i name="e_fr_energy">   -230.06566185 </i>
    <i name="e_wo_entrp">   -230.04702326 </i>
    <i name="e_0_energy">   -230.05944899 </i>
   </energy>
  </scstep>
  <scstep>
   <time name="diag">    1.96    1.97</time>
   <time name="diis">    6.69    6.74</time>
   <time name="orth">    0.27    0.27</time>
   <time name="total">    9.74    9.81</time>
   <energy>
    <i name="e_fr_energy">   -230.06624503 </i>
    <i name="e_wo_entrp">   -230.04296763 </i>
    <i name="e_0_energy">   -230.05848590 </i>
   </energy>
  </scstep>
  <scstep>
   <time name="diag">    1.90    1.91</time>
   <time name="diis">    6.68    6.73</time>
   <time name="orth">    0.25    0.26</time>
   <time name="total">    9.70    9.77</time>
   <energy>
    <i name="e_fr_energy">   -230.03779135 </i>
    <i name="e_wo_entrp">   -230.01896093 </i>
    <i name="e_0_energy">   -230.03151454 </i>
   </energy>
  </scstep>
  <scstep>
   <time name="diag">    1.89    1.90</time>
   <time name="diis">    6.55    6.59</time>
   <time name="orth">    0.26    0.26</time>
   <time name="total">    9.55    9.62</time>
   <energy>
    <i name="e_fr_energy">   -230.02952147 </i>
    <i name="e_wo_entrp">   -230.01423159 </i>
    <i name="e_0_energy">   -230.02442484 </i>
   </energy>
  </scstep>
  <scstep>
   <time name="diag">    1.92    1.94</time>
   <time name="diis">    6.79    6.84</time>
   <time name="orth">    0.26    0.27</time>
   <time name="total">    9.88    9.95</time>
   <energy>
    <i name="e_fr_energy">   -230.02144354 </i>
    <i name="e_wo_entrp">   -230.00350583 </i>
    <i name="e_0_energy">   -230.01546431 </i>
   </energy>
  </scstep>
  <scstep>
   <time name="diag">    1.90    1.92</time>
   <time name="diis">    6.76    6.81</time>
   <time name="orth">    0.27    0.27</time>
   <time name="total">    9.84    9.91</time>
   <energy>
    <i name="e_fr_energy">   -230.02113805 </i>
    <i name="e_wo_entrp">   -230.00395952 </i>
    <i name="e_0_energy">   -230.01541187 </i>
   </energy>
  </scstep>
  <scstep>
   <time name="diag">    1.90    1.92</time>
   <time name="diis">    6.60    6.65</time>
   <time name="orth">    0.27    0.27</time>
   <time name="total">    9.64    9.70</time>
   <energy>
    <i name="e_fr_energy">   -230.02137094 </i>
    <i name="e_wo_entrp">   -230.00400707 </i>
    <i name="e_0_energy">   -230.01558298 </i>
   </energy>
  </scstep>
  <scstep>
   <time name="diag">    1.95    1.97</time>
   <time name="diis">    4.81    4.84</time>
   <time name="orth">    0.28    0.28</time>
   <time name="total">    7.22    7.27</time>
   <energy>
    <i name="alphaZ">    975.10247152 </i>
    <i name="ewald">  92067.03262426 </i>
    <i name="hartreedc">-120770.71788202 </i>
    <i name="XCdc">    178.84819731 </i>
    <i name="pawpsdc">  30216.59825077 </i>
    <i name="pawaedc"> -29303.44860477 </i>
    <i name="eentropy">     -0.01784945 </i>
    <i name="bandstr">   -853.31266514 </i>
    <i name="atom">  27259.89416086 </i>
    <i name="e_fr_energy">   -230.02129664 </i>
    <i name="e_wo_entrp">   -230.00344720 </i>
    <i name="e_0_energy">   -230.01534683 </i>
   </energy>
  </scstep>
  <structure>
   <crystal>
    <varray name="basis" >
     <v>       7.29695512      -4.21289900       0.00000000 </v>
     <v>       0.00000000       8.42579800       0.00000000 </v>
     <v>       0.00000000       0.00000000      21.87963500 </v>
    </varray>
    <i name="volume">   1345.21837528 </i>
    <varray name="rec_basis" >
     <v>       0.13704346       0.00000000       0.00000000 </v>
     <v>       0.06852173       0.11868312       0.00000000 </v>
     <v>       0.00000000       0.00000000       0.04570460 </v>
    </varray>
   </crystal>
   <varray name="positions" >
    <v>       0.69900566       0.43735361       0.47249941 </v>
    <v>       0.90823559       0.38655344       0.46106474 </v>
    <v>       0.67086911       0.46420950       0.52238795 </v>
    <v>       0.98675500       0.32859100       0.07437600 </v>
    <v>       0.32008800       0.32859100       0.07437600 </v>
    <v>       0.65342200       0.32859100       0.07437600 </v>
    <v>       0.98675500       0.66192500       0.07437600 </v>
    <v>       0.32008800       0.66192500       0.07437600 </v>
    <v>       0.65342200       0.66192500       0.07437600 </v>
    <v>       0.32008800       0.99525800       0.07437600 </v>
    <v>       0.65342200       0.99525800       0.07437600 </v>
    <v>       0.98675500       0.99525800       0.07437600 </v>
    <v>       0.20897700       0.10636900       0.17918600 </v>
    <v>       0.54231100       0.10636900       0.17918600 </v>
    <v>       0.87564400       0.10636900       0.17918600 </v>
    <v>       0.20897700       0.43970300       0.17918600 </v>
    <v>       0.54231100       0.43970300       0.17918600 </v>
    <v>       0.87564400       0.43970300       0.17918600 </v>
    <v>       0.20897700       0.77303600       0.17918600 </v>
    <v>       0.54231100       0.77303600       0.17918600 </v>
    <v>       0.87564400       0.77303600       0.17918600 </v>
    <v>       0.09668781       0.54948949       0.27935194 </v>
    <v>       0.43201033       0.88383753       0.28405377 </v>
    <v>       0.76569232       0.21878681       0.28547335 </v>
    <v>       0.10056684       0.22315644       0.28916159 </v>
    <v>       0.43283593       0.21299272       0.28694201 </v>
    <v>       0.09397497       0.88353871       0.28330435 </v>
    <v>       0.76118617       0.88530632       0.28478016 </v>
    <v>       0.42921449       0.55283586       0.28076819 </v>
    <v>       0.76920582       0.55283251       0.28477905 </v>
    <v>       0.32396854       0.65715717       0.38321577 </v>
    <v>       0.64979959       0.98543735       0.38446484 </v>
    <v>       0.31918351       0.32852960       0.38779393 </v>
    <v>       0.99122703       0.98788275       0.38675675 </v>
    <v>       0.32355299       0.98967819       0.38345404 </v>
    <v>       0.64774983       0.32134252       0.38984652 </v>
    <v>       0.99739222       0.66656029       0.38392474 </v>
    <v>       0.99876430       0.31596119       0.39189516 </v>
    <v>       0.66098001       0.66638893       0.39370696 </v>
   </varray>
  </structure>
  <varray name="forces" >
   <v>      -0.97078430      -0.45710704      -1.06189824 </v>
   <v>       0.43958949       0.39018731       0.40749682 </v>
   <v>       0.46951554      -0.13075987       0.01102071 </v>
   <v>       0.04149541      -0.06977832       0.14653468 </v>
   <v>      -0.05890776      -0.04009116       0.17599527 </v>
   <v>      -0.01543282       0.01105976       0.18295467 </v>
   <v>       0.02243154       0.03487343       0.07922371 </v>
   <v>       0.00895842       0.03784207       0.04760554 </v>
   <v>       0.02416036       0.00861537       0.12290113 </v>
   <v>       0.00141587      -0.08271660       0.06547764 </v>
   <v>      -0.00486087      -0.01795793       0.11765129 </v>
   <v>       0.02271201       0.01994517       0.05041355 </v>
   <v>       0.00620013       0.10711023       0.33002692 </v>
   <v>       0.00856882       0.09056660       0.12904981 </v>
   <v>       0.19743124      -0.03001834       0.22162063 </v>
   <v>      -0.15652535      -0.29962331      -0.31044529 </v>
   <v>      -0.00290225      -0.14462444       0.27176996 </v>
   <v>      -0.23920725      -0.02002364      -0.15689792 </v>
   <v>       0.08567498       0.26135855      -0.27734775 </v>
   <v>       0.12347208       0.15807876      -0.15401647 </v>
   <v>      -0.04246216       0.18021114       0.00440956 </v>
   <v>       0.03617015      -0.08013123       0.57953006 </v>
   <v>      -0.17321924      -0.03318817      -1.16690436 </v>
   <v>       0.04804661       0.04995839      -0.45832991 </v>
   <v>      -0.41838271      -0.17739834      -1.42692673 </v>
   <v>       0.16981188       0.74408460      -1.20730464 </v>
   <v>       0.20737431      -0.07131699      -0.69170881 </v>
   <v>       0.35564749      -0.55816041      -0.62542580 </v>
   <v>       0.60063387      -0.62261332       0.34044623 </v>
   <v>      -0.73531642       0.15857294      -0.40538162 </v>
   <v>      -0.00650810       0.07774653       0.55054980 </v>
   <v>       0.26271437       0.07752256       0.78185450 </v>
   <v>       0.63390424      -0.32330362       0.20712362 </v>
   <v>      -0.15508439       0.16696084       0.61661728 </v>
   <v>      -0.31038655       0.01328742       1.11235775 </v>
   <v>      -0.16046166       0.82855148       1.22282169 </v>
   <v>       0.04854649      -0.18950597       0.48643232 </v>
   <v>      -0.14119269       0.16484398       0.33856160 </v>
   <v>      -0.22284079      -0.23305841      -0.65785920 </v>
  </varray>
  <varray name="stress" >
   <v>     -38.63760089       0.37533164      -0.11588245 </v>
   <v>       0.37533154     -41.94400868       0.49202929 </v>
   <v>      -0.11588238       0.49202937       2.71567260 </v>
  </varray>
  <energy>
   <i name="e_fr_energy">   -230.02129664 </i>
   <i name="e_wo_entrp">   -230.01534683 </i>
   <i name="e_0_energy">     -0.01784945 </i>
  </energy>
  <time name="totalsc">  218.45  224.84</time>
 </calculation>
 <calculation>
  <scstep>
   <time name="dav">   11.81   11.94</time>
   <time name="total">   12.70   12.91</time>
   <energy>
    <i name="alphaZ">    975.10247152 </i>
    <i name="ewald">  91946.07514123 </i>
    <i name="hartreedc">-120652.98010995 </i>
    <i name="XCdc">    178.64686062 </i>
    <i name="pawpsdc">  30214.66703512 </i>
    <i name="pawaedc"> -29301.47940021 </i>
    <i name="eentropy">     -0.02095530 </i>
    <i name="bandstr">   -850.16921824 </i>
    <i name="atom">  27259.89416086 </i>
    <i name="e_fr_energy">   -230.26401435 </i>
    <i name="e_wo_entrp">   -230.24305905 </i>
    <i name="e_0_energy">   -230.25702925 </i>
   </energy>
  </scstep>
  <scstep>
   <time name="diag">    1.93    1.96</time>
   <time name="diis">    6.74    6.82</time>
   <time name="orth">    0.26    0.27</time>
   <time name="total">    9.77    9.87</time>
   <energy>
    <i name="e_fr_energy">   -230.40650387 </i>
    <i name="e_wo_entrp">   -230.37323037 </i>
    <i name="e_0_energy">   -230.39541271 </i>
   </energy>
  </scstep>
  <scstep>
   <time name="diag">    1.89    1.90</time>
   <time name="diis">    6.75    6.80</time>
   <time name="orth">    0.26    0.26</time>
   <time name="total">    9.73    9.80</time>
   <energy>
    <i name="e_fr_energy">   -230.32156425 </i>
    <i name="e_wo_entrp">   -230.30483245 </i>
    <i name="e_0_energy">   -230.31598699 </i>
   </energy>
  </scstep>
  <scstep>
   <time name="diag">    1.90    1.92</time>
   <time name="diis">    6.70    6.75</time>
   <time name="orth">    0.26    0.26</time>
   <time name="total">    9.73    9.80</time>
   <energy>
    <i name="e_fr_energy">   -230.31186156 </i>
    <i name="e_wo_entrp">   -230.28880848 </i>
    <i name="e_0_energy">   -230.30417720 </i>
   </energy>
  </scstep>
  <scstep>
   <time name="diag">    2.01    2.03</time>
   <time name="diis">    6.76    6.81</time>
   <time name="orth">    0.26    0.27</time>
   <time name="total">    9.91    9.98</time>
   <energy>
    <i name="e_fr_energy">   -230.30931205 </i>
    <i name="e_wo_entrp">   -230.28938826 </i>
    <i name="e_0_energy">   -230.30267079 </i>
   </energy>
  </scstep>
  <scstep>
   <time name="diag">    1.94    1.96</time>
   <time name="diis">    6.56    6.61</time>
   <time name="orth">    0.27    0.27</time>
   <time name="total">    9.65    9.72</time>
   <energy>
    <i name="e_fr_energy">   -230.30940050 </i>
    <i name="e_wo_entrp">   -230.28770061 </i>
    <i name="e_0_energy">   -230.30216721 </i>
   </energy>
  </scstep>
  <scstep>
   <time name="diag">    1.90    1.91</time>
   <time name="diis">    6.57    6.62</time>
   <time name="orth">    0.26    0.26</time>
   <time name="total">    9.59    9.66</time>
   <energy>
    <i name="e_fr_energy">   -230.30862033 </i>
    <i name="e_wo_entrp">   -230.28826393 </i>
    <i name="e_0_energy">   -230.30183486 </i>
   </energy>
  </scstep>
  <scstep>
   <time name="diag">    1.89    1.90</time>
   <time name="diis">    6.48    6.52</time>
   <time name="orth">    0.27    0.27</time>
   <time name="total">    9.62    9.69</time>
   <energy>
    <i name="e_fr_energy">   -230.30800479 </i>
    <i name="e_wo_entrp">   -230.28689526 </i>
    <i name="e_0_energy">   -230.30096828 </i>
   </energy>
  </scstep>
  <scstep>
   <time name="diag">    1.90    1.91</time>
   <time name="diis">    4.14    4.17</time>
   <time name="orth">    0.26    0.26</time>
   <time name="total">    6.46    6.51</time>
   <energy>
    <i name="alphaZ">    975.10247152 </i>
    <i name="ewald">  91946.07514123 </i>
    <i name="hartreedc">-120650.71303600 </i>
    <i name="XCdc">    178.61601527 </i>
    <i name="pawpsdc">  30175.81352956 </i>
    <i name="pawaedc"> -29262.35232783 </i>
    <i name="eentropy">     -0.02096488 </i>
    <i name="bandstr">   -852.72292581 </i>
    <i name="atom">  27259.89416086 </i>
    <i name="e_fr_energy">   -230.30793607 </i>
    <i name="e_wo_entrp">   -230.28697119 </i>
    <i name="e_0_energy">   -230.30094777 </i>
   </energy>
  </scstep>
  <structure>
   <crystal>
    <varray name="basis" >
     <v>       7.29695512      -4.21289900       0.00000000 </v>
     <v>       0.00000000       8.42579800       0.00000000 </v>
     <v>       0.00000000       0.00000000      21.87963500 </v>
    </varray>
    <i name="volume">   1345.21837528 </i>
    <varray name="rec_basis" >
     <v>       0.13704346       0.00000000       0.00000000 </v>
     <v>       0.06852173       0.11868312       0.00000000 </v>
     <v>       0.00000000       0.00000000       0.04570460 </v>
    </varray>
   </crystal>
   <varray name="positions" >
    <v>       0.69643838       0.43502309       0.47156286 </v>
    <v>       0.90939810       0.38802832       0.46142413 </v>
    <v>       0.67211076       0.46453085       0.52239767 </v>
    <v>       0.98675500       0.32859100       0.07437600 </v>
    <v>       0.32008800       0.32859100       0.07437600 </v>
    <v>       0.65342200       0.32859100       0.07437600 </v>
    <v>       0.98675500       0.66192500       0.07437600 </v>
    <v>       0.32008800       0.66192500       0.07437600 </v>
    <v>       0.65342200       0.66192500       0.07437600 </v>
    <v>       0.32008800       0.99525800       0.07437600 </v>
    <v>       0.65342200       0.99525800       0.07437600 </v>
    <v>       0.98675500       0.99525800       0.07437600 </v>
    <v>       0.20897700       0.10636900       0.17918600 </v>
    <v>       0.54231100       0.10636900       0.17918600 </v>
    <v>       0.87564400       0.10636900       0.17918600 </v>
    <v>       0.20897700       0.43970300       0.17918600 </v>
    <v>       0.54231100       0.43970300       0.17918600 </v>
    <v>       0.87564400       0.43970300       0.17918600 </v>
    <v>       0.20897700       0.77303600       0.17918600 </v>
    <v>       0.54231100       0.77303600       0.17918600 </v>
    <v>       0.87564400       0.77303600       0.17918600 </v>
    <v>       0.09678346       0.54935380       0.27986306 </v>
    <v>       0.43155225       0.88353248       0.28302460 </v>
    <v>       0.76581938       0.21896475       0.28506912 </v>
    <v>       0.09946042       0.22219694       0.28790309 </v>
    <v>       0.43328500       0.21492139       0.28587721 </v>
    <v>       0.09452338       0.88364958       0.28269429 </v>
    <v>       0.76212669       0.88449826       0.28422856 </v>
    <v>       0.43080289       0.55220413       0.28106845 </v>
    <v>       0.76726124       0.55222340       0.28442152 </v>
    <v>       0.32395133       0.65732663       0.38370134 </v>
    <v>       0.65049434       0.98596227       0.38515441 </v>
    <v>       0.32085989       0.32862735       0.38797660 </v>
    <v>       0.99081691       0.98806006       0.38730058 </v>
    <v>       0.32273216       0.98929820       0.38443510 </v>
    <v>       0.64732548       0.32302792       0.39092500 </v>
    <v>       0.99752061       0.66619047       0.38435376 </v>
    <v>       0.99839091       0.31615203       0.39219376 </v>
    <v>       0.66039070       0.66556051       0.39312675 </v>
   </varray>
  </structure>
  <varray name="forces" >
   <v>      -1.04706866       0.08622840       0.88692898 </v>
   <v>       0.49786859       0.35454150       0.33590561 </v>
   <v>       0.62141570      -0.52088248      -1.43662216 </v>
   <v>       0.03526657      -0.06261694       0.15034508 </v>
   <v>      -0.05983106      -0.03721116       0.18294725 </v>
   <v>      -0.01825178       0.00483819       0.18696623 </v>
   <v>       0.01898136       0.03390895       0.09366172 </v>
   <v>       0.00034194       0.02872033       0.06291029 </v>
   <v>       0.02114816       0.00514661       0.14265594 </v>
   <v>       0.00188637      -0.07287015       0.05922053 </v>
   <v>      -0.00398033      -0.00663980       0.11436734 </v>
   <v>       0.02161762       0.01857250       0.04860435 </v>
   <v>      -0.00121331       0.11220584       0.20507383 </v>
   <v>       0.02687960       0.10199974       0.05298964 </v>
   <v>       0.18329872      -0.03117580       0.13180283 </v>
   <v>      -0.12860761      -0.25031698      -0.27653863 </v>
   <v>      -0.00183717      -0.12077436       0.15501056 </v>
   <v>      -0.20412280      -0.00961400      -0.13807124 </v>
   <v>       0.04033001       0.20827185      -0.32720980 </v>
   <v>       0.11392100       0.11079937      -0.19609494 </v>
   <v>      -0.03598386       0.15612990      -0.08823435 </v>
   <v>       0.03753410      -0.08307861       0.51130541 </v>
   <v>      -0.07011236       0.01702452      -0.66666380 </v>
   <v>      -0.04016356       0.04363758      -0.25157185 </v>
   <v>      -0.30893666      -0.14201956      -0.98539293 </v>
   <v>       0.08912719       0.44259679      -0.78739544 </v>
   <v>       0.19219686      -0.08017976      -0.37383997 </v>
   <v>       0.26408314      -0.35721107      -0.40299546 </v>
   <v>       0.38859454      -0.44366774       0.34400847 </v>
   <v>      -0.46777398       0.06782886      -0.28891957 </v>
   <v>       0.05255763       0.10675212       0.38777947 </v>
   <v>       0.17008782       0.08273442       0.46663352 </v>
   <v>       0.37327632      -0.30031639       0.05065781 </v>
   <v>      -0.09199160       0.14870131       0.40114283 </v>
   <v>      -0.15811276       0.05465479       0.69701410 </v>
   <v>      -0.29319375       0.50233545       0.61671075 </v>
   <v>       0.02836490      -0.10712174       0.34467132 </v>
   <v>      -0.07976880       0.04209088       0.19682105 </v>
   <v>      -0.16782808      -0.10402335      -0.60658476 </v>
  </varray>
  <varray name="stress" >
   <v>     -39.99927676       0.51795537       0.56907620 </v>
   <v>       0.51795537     -43.46881930       0.09301187 </v>
   <v>       0.56907621       0.09301195      -1.46107668 </v>
  </varray>
  <energy>
   <i name="e_fr_energy">   -230.30793607 </i>
   <i name="e_wo_entrp">   -230.30094777 </i>
   <i name="e_0_energy">     -0.02096488 </i>
  </energy>
  <time name="totalsc">  102.25  103.50</time>
 </calculation>
 <calculation>
  <scstep>
   <time name="dav">   10.80   10.92</time>
   <time name="total">   11.46   11.67</time>
   <energy>
    <i name="alphaZ">    975.10247152 </i>
    <i name="ewald">  91904.24778656 </i>
    <i name="hartreedc">-120605.35959068 </i>
    <i name="XCdc">    178.69207556 </i>
    <i name="pawpsdc">  30175.56826070 </i>
    <i name="pawaedc"> -29262.10495090 </i>
    <i name="eentropy">     -0.02265319 </i>
    <i name="bandstr">   -856.37759394 </i>
    <i name="atom">  27259.89416086 </i>
    <i name="e_fr_energy">   -230.36003350 </i>
    <i name="e_wo_entrp">   -230.33738031 </i>
    <i name="e_0_energy">   -230.35248243 </i>
   </energy>
  </scstep>
  <scstep>
   <time name="diag">    1.67    1.69</time>
   <time name="diis">    5.47    5.53</time>
   <time name="orth">    0.25    0.25</time>
   <time name="total">    8.23    8.31</time>
   <energy>
    <i name="e_fr_energy">   -230.43690569 </i>
    <i name="e_wo_entrp">   -230.40896879 </i>
    <i name="e_0_energy">   -230.42759339 </i>
   </energy>
  </scstep>
  <scstep>
   <time name="diag">    1.92    1.94</time>
   <time name="diis">    5.29    5.36</time>
   <time name="orth">    0.27    0.27</time>
   <time name="total">    8.21    8.30</time>
   <energy>
    <i name="e_fr_energy">   -230.41268805 </i>
    <i name="e_wo_entrp">   -230.39347484 </i>
    <i name="e_0_energy">   -230.40628365 </i>
   </energy>
  </scstep>
  <scstep>
   <time name="diag">    1.60    1.62</time>
   <time name="diis">    6.36    6.43</time>
   <time name="orth">    0.26    0.26</time>
   <time name="total">    8.98    9.07</time>
   <energy>
    <i name="e_fr_energy">   -230.40602182 </i>
    <i name="e_wo_entrp">   -230.38269924 </i>
    <i name="e_0_energy">   -230.39824763 </i>
   </energy>
  </scstep>
  <scstep>
   <time name="diag">    1.88    1.90</time>
   <time name="diis">    6.43    6.50</time>
   <time name="orth">    0.25    0.25</time>
   <time name="total">    9.38    9.48</time>
   <energy>
    <i name="e_fr_energy">   -230.40489435 </i>
    <i name="e_wo_entrp">   -230.38558988 </i>
    <i name="e_0_energy">   -230.39845953 </i>
   </energy>
  </scstep>
  <scstep>
   <time name="diag">    1.86    1.88</time>
   <time name="diis">    6.23    6.29</time>
   <time name="orth">    0.25    0.25</time>
   <time name="total">    9.09    9.18</time>
   <energy>
    <i name="e_fr_energy">   -230.40361293 </i>
    <i name="e_wo_entrp">   -230.38033476 </i>
    <i name="e_0_energy">   -230.39585354 </i>
   </energy>
  </scstep>
  <scstep>
   <time name="diag">    1.91    1.93</time>
   <time name="diis">    5.78    5.83</time>
   <time name="orth">    0.27    0.28</time>
   <time name="total">    8.71    8.80</time>
   <energy>
    <i name="e_fr_energy">   -230.40150759 </i>
    <i name="e_wo_entrp">   -230.38002096 </i>
    <i name="e_0_energy">   -230.39434538 </i>
   </energy>
  </scstep>
  <scstep>
   <time name="diag">    1.81    1.83</time>
   <time name="diis">    5.69    5.73</time>
   <time name="orth">    0.34    0.34</time>
   <time name="total">    8.66    8.72</time>
   <energy>
    <i name="e_fr_energy">   -230.40127067 </i>
    <i name="e_wo_entrp">   -230.37902078 </i>
    <i name="e_0_energy">   -230.39385404 </i>
   </energy>
  </scstep>
  <scstep>
   <time name="diag">    1.82    1.83</time>
   <time name="diis">    3.90    3.93</time>
   <time name="orth">    0.26    0.26</time>
   <time name="total">    6.14    6.19</time>
   <energy>
    <i name="alphaZ">    975.10247152 </i>
    <i name="ewald">  91904.24778656 </i>
    <i name="hartreedc">-120614.86244633 </i>
    <i name="XCdc">    178.81367269 </i>
    <i name="pawpsdc">  30169.77236360 </i>
    <i name="pawaedc"> -29256.21777284 </i>
    <i name="eentropy">     -0.02210470 </i>
    <i name="bandstr">   -847.12930575 </i>
    <i name="atom">  27259.89416086 </i>
    <i name="e_fr_energy">   -230.40117439 </i>
    <i name="e_wo_entrp">   -230.37906969 </i>
    <i name="e_0_energy">   -230.39380616 </i>
   </energy>
  </scstep>
  <structure>
   <crystal>
    <varray name="basis" >
     <v>       7.29695512      -4.21289900       0.00000000 </v>
     <v>       0.00000000       8.42579800       0.00000000 </v>
     <v>       0.00000000       0.00000000      21.87963500 </v>
    </varray>
    <i name="volume">   1345.21837528 </i>
    <varray name="rec_basis" >
     <v>       0.13704346       0.00000000       0.00000000 </v>
     <v>       0.06852173       0.11868312       0.00000000 </v>
     <v>       0.00000000       0.00000000       0.04570460 </v>
    </varray>
   </crystal>
   <varray name="positions" >
    <v>       0.69393883       0.43395158       0.47226898 </v>
    <v>       0.91058661       0.38935554       0.46169156 </v>
    <v>       0.67359420       0.46419571       0.52125391 </v>
    <v>       0.98675500       0.32859100       0.07437600 </v>
    <v>       0.32008800       0.32859100       0.07437600 </v>
    <v>       0.65342200       0.32859100       0.07437600 </v>
    <v>       0.98675500       0.66192500       0.07437600 </v>
    <v>       0.32008800       0.66192500       0.07437600 </v>
    <v>       0.65342200       0.66192500       0.07437600 </v>
    <v>       0.32008800       0.99525800       0.07437600 </v>
    <v>       0.65342200       0.99525800       0.07437600 </v>
    <v>       0.98675500       0.99525800       0.07437600 </v>
    <v>       0.20897700       0.10636900       0.17918600 </v>
    <v>       0.54231100       0.10636900       0.17918600 </v>
    <v>       0.87564400       0.10636900       0.17918600 </v>
    <v>       0.20897700       0.43970300       0.17918600 </v>
    <v>       0.54231100       0.43970300       0.17918600 </v>
    <v>       0.87564400       0.43970300       0.17918600 </v>
    <v>       0.20897700       0.77303600       0.17918600 </v>
    <v>       0.54231100       0.77303600       0.17918600 </v>
    <v>       0.87564400       0.77303600       0.17918600 </v>
    <v>       0.09687306       0.54922684       0.28027013 </v>
    <v>       0.43138488       0.88348399       0.28249384 </v>
    <v>       0.76572351       0.21900703       0.28486883 </v>
    <v>       0.09872293       0.22153459       0.28711858 </v>
    <v>       0.43349777       0.21594278       0.28525034 </v>
    <v>       0.09498219       0.88371323       0.28239666 </v>
    <v>       0.76275711       0.88407498       0.28390771 </v>
    <v>       0.43173054       0.55175073       0.28134233 </v>
    <v>       0.76614458       0.55180529       0.28419150 </v>
    <v>       0.32407679       0.65761006       0.38401006 </v>
    <v>       0.65090038       0.98633633       0.38552591 </v>
    <v>       0.32175097       0.32845202       0.38801693 </v>
    <v>       0.99059731       0.98825768       0.38761995 </v>
    <v>       0.32235471       0.98922247       0.38499002 </v>
    <v>       0.64662557       0.32371648       0.39141599 </v>
    <v>       0.99758832       0.66600287       0.38462816 </v>
    <v>       0.99820048       0.31614383       0.39235046 </v>
    <v>       0.65999006       0.66514514       0.39264382 </v>
   </varray>
  </structure>
  <varray name="forces" >
   <v>      -0.50384779      -1.27415193      -3.31114128 </v>
   <v>       0.59819662       0.26588597       0.15665935 </v>
   <v>      -0.01802615       0.86947812       2.89046097 </v>
   <v>       0.02891146      -0.06255541       0.14494710 </v>
   <v>      -0.06065977      -0.03778458       0.17553069 </v>
   <v>      -0.02100444      -0.00256145       0.17817311 </v>
   <v>       0.01760352       0.03620356       0.09894961 </v>
   <v>      -0.00134815       0.02403851       0.07305038 </v>
   <v>       0.02052489       0.00570794       0.14807882 </v>
   <v>       0.00505913      -0.06726361       0.05615973 </v>
   <v>      -0.00014821      -0.00002440       0.11935531 </v>
   <v>       0.02048015       0.02054957       0.04681195 </v>
   <v>      -0.00469566       0.10876004       0.13401034 </v>
   <v>       0.03718806       0.10468802       0.00462827 </v>
   <v>       0.16949332      -0.02825662       0.08645522 </v>
   <v>      -0.10804342      -0.21524788      -0.24721626 </v>
   <v>      -0.00151629      -0.10198855       0.08919895 </v>
   <v>      -0.17661979      -0.00560663      -0.11730902 </v>
   <v>       0.01511271       0.17201912      -0.34754101 </v>
   <v>       0.10620654       0.08144660      -0.20929732 </v>
   <v>      -0.02780083       0.14193427      -0.13599636 </v>
   <v>       0.03611113      -0.08721377       0.44153006 </v>
   <v>      -0.02890386       0.02184235      -0.40683197 </v>
   <v>      -0.07918952       0.02440655      -0.13254763 </v>
   <v>      -0.24521334      -0.11184953      -0.73882650 </v>
   <v>       0.04927427       0.28744060      -0.57752325 </v>
   <v>       0.16265780      -0.08720041      -0.20449787 </v>
   <v>       0.20394637      -0.24647505      -0.28461958 </v>
   <v>       0.25522107      -0.32646256       0.31396869 </v>
   <v>      -0.30063939       0.02300851      -0.21715840 </v>
   <v>       0.07356319       0.11237737       0.30660573 </v>
   <v>       0.13375843       0.08376986       0.31020999 </v>
   <v>       0.21567443      -0.26479944      -0.03224374 </v>
   <v>      -0.06720500       0.13284697       0.28612698 </v>
   <v>      -0.09970827       0.05708062       0.49517914 </v>
   <v>      -0.23483487       0.41827457       0.54409136 </v>
   <v>       0.00719212      -0.07561100       0.27418636 </v>
   <v>      -0.04551505       0.01400210       0.19670077 </v>
   <v>      -0.13125540      -0.01070840      -0.60831870 </v>
  </varray>
  <varray name="stress" >
   <v>     -40.47602683       0.11431735      -0.25441850 </v>
   <v>       0.11431739     -43.54166040       1.71799320 </v>
   <v>      -0.25441864       1.71799325       2.67645364 </v>
  </varray>
  <energy>
   <i name="e_fr_energy">   -230.40117439 </i>
   <i name="e_wo_entrp">   -230.39380616 </i>
   <i name="e_0_energy">     -0.02210470 </i>
  </energy>
  <time name="totalsc">   92.66   94.31</time>
 </calculation>
 <calculation>
