       N       E                     dE             d eps       ncg     rms          rms(c)
DAV:   1     0.242134276059E+04    0.24213E+04   -0.15952E+05  1824   0.129E+03
DAV:   2    -0.625022967218E+02   -0.24838E+04   -0.23077E+04  2112   0.286E+02
DAV:   3    -0.240067082626E+03   -0.17756E+03   -0.16093E+03  2168   0.689E+01
DAV:   4    -0.247839524182E+03   -0.77724E+01   -0.74997E+01  2320   0.138E+01
DAV:   5    -0.248075691920E+03   -0.23617E+00   -0.23380E+00  2496   0.243E+00    0.274E+01
RMM:   6    -0.246036800589E+03    0.20389E+01   -0.55817E+01  1828   0.149E+01    0.302E+01
RMM:   7    -0.247072862376E+03   -0.10361E+01   -0.32225E+01  1831   0.896E+00    0.229E+01
RMM:   8    -0.243414863732E+03    0.36580E+01   -0.10802E+01  1827   0.492E+00    0.233E+01
RMM:   9    -0.231696523223E+03    0.11718E+02   -0.67185E+00  1831   0.428E+00    0.944E+00
RMM:  10    -0.230351820976E+03    0.13447E+01   -0.21025E+00  1831   0.238E+00    0.539E+00
RMM:  11    -0.230039672450E+03    0.31215E+00   -0.54908E-01  1831   0.116E+00    0.347E+00
RMM:  12    -0.229850536847E+03    0.18914E+00   -0.22434E-01  1844   0.750E-01    0.178E+00
RMM:  13    -0.229864463390E+03   -0.13927E-01   -0.12478E-01  1832   0.580E-01    0.201E+00
RMM:  14    -0.229821473070E+03    0.42990E-01   -0.87218E-02  1832   0.512E-01    0.110E+00
RMM:  15    -0.229811751178E+03    0.97219E-02   -0.35379E-02  1831   0.323E-01    0.690E-01
RMM:  16    -0.229804236872E+03    0.75143E-02   -0.79910E-03  1827   0.154E-01    0.254E-01
RMM:  17    -0.229803510848E+03    0.72602E-03   -0.17994E-03  1820   0.723E-02    0.147E-01
RMM:  18    -0.229803753393E+03   -0.24255E-03   -0.96435E-04  1809   0.516E-02    0.133E-01
RMM:  19    -0.229803742554E+03    0.10838E-04   -0.45969E-04  1395   0.372E-02
   1 F= -.22980374E+03 E0= -.22980463E+03  d E =-.229804E+03
       N       E                     dE             d eps       ncg     rms          rms(c)
DAV:   1    -0.230110176299E+03   -0.30642E+00   -0.44710E+01  1856   0.118E+01    0.702E-01
RMM:   2    -0.230265059677E+03   -0.15488E+00   -0.65371E-01  1832   0.181E+00    0.248E+00
RMM:   3    -0.230179431352E+03    0.85628E-01   -0.57641E-02  1849   0.417E-01    0.936E-01
RMM:   4    -0.230166446505E+03    0.12985E-01   -0.14543E-02  1836   0.205E-01    0.462E-01
RMM:   5    -0.230163625434E+03    0.28211E-02   -0.29749E-03  1832   0.899E-02    0.319E-01
RMM:   6    -0.230163355422E+03    0.27001E-03   -0.54522E-03  1827   0.120E-01    0.336E-01
RMM:   7    -0.230162718372E+03    0.63705E-03   -0.60793E-03  1830   0.131E-01    0.204E-01
RMM:   8    -0.230162035288E+03    0.68308E-03   -0.12594E-03  1809   0.606E-02    0.696E-02
RMM:   9    -0.230162015481E+03    0.19808E-04   -0.23452E-04  1026   0.279E-02
   2 F= -.23016202E+03 E0= -.23016080E+03  d E =-.358273E+00
       N       E                     dE             d eps       ncg     rms          rms(c)
DAV:   1    -0.230317884939E+03   -0.15585E+00   -0.11117E+02  1824   0.191E+01    0.112E+00
RMM:   2    -0.230578407166E+03   -0.26052E+00   -0.18490E+00  1840   0.296E+00    0.250E+00
RMM:   3    -0.230520941099E+03    0.57466E-01   -0.12661E-01  1865   0.629E-01    0.169E+00
RMM:   4    -0.230481427846E+03    0.39513E-01   -0.32601E-02  1840   0.306E-01    0.801E-01
RMM:   5    -0.230473072043E+03    0.83558E-02   -0.82939E-03  1835   0.154E-01    0.549E-01
RMM:   6    -0.230473547005E+03   -0.47496E-03   -0.18994E-02  1831   0.226E-01    0.660E-01
RMM:   7    -0.230468729278E+03    0.48177E-02   -0.13963E-02  1831   0.201E-01    0.306E-01
RMM:   8    -0.230467246967E+03    0.14823E-02   -0.33568E-03  1830   0.987E-02    0.135E-01
RMM:   9    -0.230467033930E+03    0.21304E-03   -0.62893E-04  1730   0.436E-02    0.108E-01
RMM:  10    -0.230466831552E+03    0.20238E-03   -0.27920E-04  1051   0.300E-02    0.516E-02
RMM:  11    -0.230466791420E+03    0.40132E-04   -0.21504E-04   985   0.263E-02
   3 F= -.23046679E+03 E0= -.23046265E+03  d E =-.304776E+00
       N       E                     dE             d eps       ncg     rms          rms(c)
DAV:   1    -0.230555952368E+03   -0.89121E-01   -0.12521E+01  1832   0.660E+00    0.566E-01
RMM:   2    -0.230587817951E+03   -0.31866E-01   -0.30518E-01  1835   0.108E+00    0.751E-01
RMM:   3    -0.230586461012E+03    0.13569E-02   -0.16458E-02  1855   0.224E-01    0.784E-01
RMM:   4    -0.230578677228E+03    0.77838E-02   -0.55718E-03  1843   0.124E-01    0.419E-01
RMM:   5    -0.230576544832E+03    0.21324E-02   -0.52179E-03  1835   0.120E-01    0.288E-01
RMM:   6    -0.230576435372E+03    0.10946E-03   -0.47608E-03  1830   0.114E-01    0.292E-01
RMM:   7    -0.230575156449E+03    0.12789E-02   -0.18221E-03  1824   0.717E-02    0.113E-01
RMM:   8    -0.230575003296E+03    0.15315E-03   -0.40123E-04  1310   0.351E-02    0.739E-02
RMM:   9    -0.230574951881E+03    0.51415E-04   -0.11355E-04   979   0.208E-02
   4 F= -.23057495E+03 E0= -.23056997E+03  d E =-.108160E+00
       N       E                     dE             d eps       ncg     rms          rms(c)
DAV:   1    -0.230622920779E+03   -0.47917E-01   -0.45244E+01  1824   0.131E+01    0.886E-01
RMM:   2    -0.230714555070E+03   -0.91634E-01   -0.85930E-01  1833   0.189E+00    0.951E-01
RMM:   3    -0.230724137546E+03   -0.95825E-02   -0.56380E-02  1855   0.426E-01    0.133E+00
RMM:   4    -0.230704081384E+03    0.20056E-01   -0.11921E-02  1852   0.180E-01    0.717E-01
RMM:   5    -0.230696773962E+03    0.73074E-02   -0.59397E-03  1832   0.131E-01    0.335E-01
RMM:   6    -0.230697387762E+03   -0.61380E-03   -0.62568E-03  1830   0.130E-01    0.377E-01
RMM:   7    -0.230695684254E+03    0.17035E-02   -0.55837E-03  1829   0.128E-01    0.141E-01
RMM:   8    -0.230695349437E+03    0.33482E-03   -0.77867E-04  1713   0.479E-02    0.665E-02
RMM:   9    -0.230695286792E+03    0.62645E-04   -0.15402E-04   988   0.229E-02
   5 F= -.23069529E+03 E0= -.23068898E+03  d E =-.120335E+00
       N       E                     dE             d eps       ncg     rms          rms(c)
DAV:   1    -0.230733961427E+03   -0.38612E-01   -0.15188E+01  1824   0.792E+00    0.627E-01
RMM:   2    -0.230786756874E+03   -0.52795E-01   -0.32760E-01  1834   0.109E+00    0.123E+00
RMM:   3    -0.230770479140E+03    0.16278E-01   -0.20172E-02  1856   0.247E-01    0.763E-01
RMM:   4    -0.230764074643E+03    0.64045E-02   -0.83141E-03  1836   0.150E-01    0.466E-01
RMM:   5    -0.230761040421E+03    0.30342E-02   -0.28312E-03  1829   0.921E-02    0.191E-01
RMM:   6    -0.230761447711E+03   -0.40729E-03   -0.22108E-03  1820   0.787E-02    0.222E-01
RMM:   7    -0.230760840066E+03    0.60765E-03   -0.14745E-03  1816   0.658E-02    0.992E-02
RMM:   8    -0.230760703873E+03    0.13619E-03   -0.21310E-04  1052   0.264E-02    0.397E-02
RMM:   9    -0.230760693010E+03    0.10863E-04   -0.59214E-05   962   0.140E-02
   6 F= -.23076069E+03 E0= -.23075436E+03  d E =-.654062E-01
       N       E                     dE             d eps       ncg     rms          rms(c)
