 vasp.5.4.4 16052018 (build Apr 24 2014 20:13:14) complex standard
 Contain Constrained Minimization Technique (TS), Periodic NBO, VASPsol, libbeef, VASP2WANNIER90, Constrained Cell Relaxation
 executed on Center for Computational Chemistry by phu@node09 date 2025.11.24 21:57:44
 running on    8 total cores
 distrk:  each k-point on    8 cores,    1 groups
 distr:  one band on NCORES_PER_BAND=   2 cores,    4 groups


--------------------------------------------------------------------------------------------------------


 INCAR:
 POTCAR:   PAW_PBE C 08Apr2002                    
 POTCAR:   PAW_PBE O 08Apr2002                    
 POTCAR:    PAW_PBE Pt 04Feb2005                  
 POTCAR:   PAW_PBE C 08Apr2002                    
   VRHFIN =C: s2p2                                                              
   LEXCH  = PE                                                                  
   EATOM  =   147.1560 eV,   10.8157 Ry                                         
                                                                                
   TITEL  = PAW_PBE C 08Apr2002                                                 
   LULTRA =        F    use ultrasoft PP ?                                      
   IUNSCR =        0    unscreen: 0-lin 1-nonlin 2-no                           
   RPACOR =     .000    partial core radius                                     
   POMASS =   12.011; ZVAL   =    4.000    mass and valenz                      
   RCORE  =    1.500    outmost cutoff radius                                   
   RWIGS  =    1.630; RWIGS  =     .863    wigner-seitz radius (au A)           
   ENMAX  =  400.000; ENMIN  =  300.000 eV                                      
   ICORE  =        2    local potential                                         
   LCOR   =        T    correct aug charges                                     
   LPAW   =        T    paw PP                                                  
   EAUG   =  644.873                                                            
   DEXC   =     .000                                                            
   RMAX   =    2.266    core radius for proj-oper                               
   RAUG   =    1.300    factor for augmentation sphere                          
   RDEP   =    1.501    radius for radial grids                                 
   RDEPT  =    1.300    core radius for aug-charge                              
   QCUT   =   -5.516; QGAM   =   11.032    optimization parameters              
                                                                                
   Description                                                                  
     l     E      TYP  RCUT    TYP  RCUT                                        
     0   .000     23  1.200                                                     
     0   .000     23  1.200                                                     
     1   .000     23  1.500                                                     
     1  2.500     23  1.500                                                     
     2   .000      7  1.500                                                     
  local pseudopotential read in
  atomic valenz-charges read in
  non local Contribution for L=           0  read in
    real space projection operators read in
  non local Contribution for L=           0  read in
    real space projection operators read in
  non local Contribution for L=           1  read in
    real space projection operators read in
  non local Contribution for L=           1  read in
    real space projection operators read in
    PAW grid and wavefunctions read in
 
   number of l-projection  operators is LMAX  =           4
   number of lm-projection operators is LMMAX =           8
 
 POTCAR:   PAW_PBE O 08Apr2002                    
   VRHFIN =O: s2p4                                                              
   LEXCH  = PE                                                                  
   EATOM  =   432.3788 eV,   31.7789 Ry                                         
                                                                                
   TITEL  = PAW_PBE O 08Apr2002                                                 
   LULTRA =        F    use ultrasoft PP ?                                      
   IUNSCR =        0    unscreen: 0-lin 1-nonlin 2-no                           
   RPACOR =     .000    partial core radius                                     
   POMASS =   16.000; ZVAL   =    6.000    mass and valenz                      
   RCORE  =    1.520    outmost cutoff radius                                   
   RWIGS  =    1.550; RWIGS  =     .820    wigner-seitz radius (au A)           
   ENMAX  =  400.000; ENMIN  =  300.000 eV                                      
   ICORE  =        2    local potential                                         
   LCOR   =        T    correct aug charges                                     
   LPAW   =        T    paw PP                                                  
   EAUG   =  605.392                                                            
   DEXC   =     .000                                                            
   RMAX   =    2.264    core radius for proj-oper                               
   RAUG   =    1.300    factor for augmentation sphere                          
   RDEP   =    1.550    radius for radial grids                                 
   QCUT   =   -5.520; QGAM   =   11.041    optimization parameters              
                                                                                
   Description                                                                  
     l     E      TYP  RCUT    TYP  RCUT                                        
     0   .000     23  1.200                                                     
     0  -.700     23  1.200                                                     
     1   .000     23  1.520                                                     
     1   .600     23  1.520                                                     
     2   .000      7  1.500                                                     
  local pseudopotential read in
  atomic valenz-charges read in
  non local Contribution for L=           0  read in
    real space projection operators read in
  non local Contribution for L=           0  read in
    real space projection operators read in
  non local Contribution for L=           1  read in
    real space projection operators read in
  non local Contribution for L=           1  read in
    real space projection operators read in
    PAW grid and wavefunctions read in
 
   number of l-projection  operators is LMAX  =           4
   number of lm-projection operators is LMMAX =           8
 
 POTCAR:    PAW_PBE Pt 04Feb2005                  
   VRHFIN =Pt: s1d9                                                             
   LEXCH  = PE                                                                  
   EATOM  =   729.1182 eV,   53.5887 Ry                                         
                                                                                
   TITEL  = PAW_PBE Pt 04Feb2005                                                
   LULTRA =        F    use ultrasoft PP ?                                      
   IUNSCR =        1    unscreen: 0-lin 1-nonlin 2-no                           
   RPACOR =    2.330    partial core radius                                     
   POMASS =  195.080; ZVAL   =   10.000    mass and valenz                      
   RCORE  =    2.600    outmost cutoff radius                                   
   RWIGS  =    2.750; RWIGS  =    1.455    wigner-seitz radius (au A)           
   ENMAX  =  230.283; ENMIN  =  172.712 eV                                      
   ICORE  =        3    local potential                                         
   LCOR   =        T    correct aug charges                                     
   LPAW   =        T    paw PP                                                  
   EAUG   =  358.966                                                            
   DEXC   =     .000                                                            
   RMAX   =    3.038    core radius for proj-oper                               
   RAUG   =    1.300    factor for augmentation sphere                          
   RDEP   =    2.761    radius for radial grids                                 
   QCUT   =   -4.114; QGAM   =    8.228    optimization parameters              
                                                                                
   Description                                                                  
     l     E      TYP  RCUT    TYP  RCUT                                        
     2   .000     23  2.500                                                     
     2   .000     23  2.500                                                     
     0   .000     23  2.500                                                     
     0   .000     23  2.500                                                     
     1  -.200     23  2.600                                                     
     1  1.500     23  2.600                                                     
     3   .000     23  2.500                                                     
  local pseudopotential read in
  partial core-charges read in
  atomic valenz-charges read in
  non local Contribution for L=           2  read in
    real space projection operators read in
  non local Contribution for L=           2  read in
    real space projection operators read in
  non local Contribution for L=           0  read in
    real space projection operators read in
  non local Contribution for L=           0  read in
    real space projection operators read in
  non local Contribution for L=           1  read in
    real space projection operators read in
  non local Contribution for L=           1  read in
    real space projection operators read in
    PAW grid and wavefunctions read in
 
   number of l-projection  operators is LMAX  =           6
   number of lm-projection operators is LMMAX =          18
 
 Optimization of the real space projectors (new method)

 maximal supplied QI-value         = 25.13
 optimisation between [QCUT,QGAM] = [ 10.81, 21.61] = [ 32.71,130.83] Ry 
 Optimized for a Real-space Cutoff    1.23 Angstroem

   l    n(q)    QCUT    max X(q) W(low)/X(q) W(high)/X(q)  e(spline) 
   0      8    10.807     5.582    0.53E-04    0.84E-04    0.44E-07
   0      8    10.807    69.432    0.35E-03    0.71E-03    0.24E-06
   1      7    10.807     2.780    0.44E-04    0.88E-04    0.89E-07
   1      7    10.807     4.549    0.14E-03    0.28E-03    0.13E-06
 Optimization of the real space projectors (new method)

 maximal supplied QI-value         = 24.76
 optimisation between [QCUT,QGAM] = [ 10.64, 21.54] = [ 31.73,129.89] Ry 
 Optimized for a Real-space Cutoff    1.23 Angstroem

   l    n(q)    QCUT    max X(q) W(low)/X(q) W(high)/X(q)  e(spline) 
   0      8    10.645     4.192    0.69E-04    0.93E-04    0.58E-07
   0      8    10.645     8.473    0.40E-03    0.65E-03    0.17E-06
   1      7    10.645     2.474    0.80E-04    0.12E-03    0.30E-07
   1      7    10.645     3.912    0.24E-03    0.53E-03    0.16E-06
 Optimization of the real space projectors (new method)

 maximal supplied QI-value         = 14.36
 optimisation between [QCUT,QGAM] = [ 10.77, 21.69] = [ 32.49,131.70] Ry 
 Optimized for a Real-space Cutoff    1.46 Angstroem

   l    n(q)    QCUT    max X(q) W(low)/X(q) W(high)/X(q)  e(spline) 
   2      9    10.771     3.903    0.38E-04    0.12E-03    0.82E-07
   2      9    10.771    18.372    0.13E-03    0.32E-03    0.28E-06
   0     10    10.771    13.697    0.11E-04    0.86E-05    0.85E-08
   0     10    10.771    65.529    0.40E-04    0.12E-03    0.14E-06
   1      9    10.771     7.604    0.48E-04    0.31E-04    0.38E-07
   1      9    10.771    12.136    0.35E-03    0.16E-03    0.23E-06
 PAW_PBE C 08Apr2002                    :
 energy of atom  1       EATOM= -147.1560
 kinetic energy error for atom=    0.0116 (will be added to EATOM!!)
 PAW_PBE O 08Apr2002                    :
 energy of atom  2       EATOM= -432.3788
 kinetic energy error for atom=    0.0389 (will be added to EATOM!!)
  PAW_PBE Pt 04Feb2005                  :
 energy of atom  3       EATOM= -729.1182
 kinetic energy error for atom=    0.0051 (will be added to EATOM!!)
 
 
 POSCAR: C    O    Pt                            
  positions in direct lattice
  No initial velocities read in
 exchange correlation table for  LEXCH =        8
   RHO(1)=    0.500       N(1)  =     2000
   RHO(2)=  100.500       N(2)  =     4000

 VTST: version 3.2, (02/03/18)

 CHAIN: initializing optimizer
 
 OPT: Using VASP QUASI-newton optimizer
 CHAIN: Read ICHAIN            0
 
 POSCAR: C    O    Pt                            
  positions in direct lattice
  No initial velocities read in
 


--------------------------------------------------------------------------------------------------------


 ion  position               nearest neighbor table
   1  0.703  0.433  0.475-   3 1.16  36 1.89   2 1.95
   2  0.903  0.384  0.463-   1 1.95  38 1.99  36 2.46  37 2.62
   3  0.674  0.460  0.525-   1 1.16
   4  0.987  0.329  0.074-  15 2.81  16 2.81  12 2.81   5 2.81  11 2.81   6 2.81  18 2.81   8 2.81
                             7 2.81
   5  0.320  0.329  0.074-  13 2.81  10 2.81   4 2.81  12 2.81  16 2.81  17 2.81   8 2.81   9 2.81
                             6 2.81
   6  0.653  0.329  0.074-  14 2.81  18 2.81  11 2.81   4 2.81  17 2.81   7 2.81  10 2.81   9 2.81
                             5 2.81
   7  0.987  0.662  0.074-  18 2.81  21 2.81  19 2.81  12 2.81   8 2.81  10 2.81   9 2.81   6 2.81
                             4 2.81
   8  0.320  0.662  0.074-  16 2.81  19 2.81  10 2.81   7 2.81  20 2.81   4 2.81  11 2.81   5 2.81
                             9 2.81
   9  0.653  0.662  0.074-  17 2.81  20 2.81  21 2.81  11 2.81  12 2.81   7 2.81   6 2.81   5 2.81
                             8 2.81
  10  0.320  0.995  0.074-  13 2.81  19 2.81   5 2.81   8 2.81  12 2.81   7 2.81  14 2.81   6 2.81
                            11 2.81
  11  0.653  0.995  0.074-  14 2.81  20 2.81  15 2.81   9 2.81   6 2.81  12 2.81   4 2.81   8 2.81
                            10 2.81
  12  0.987  0.995  0.074-  15 2.81  21 2.81  13 2.81   7 2.81   4 2.81  10 2.81   5 2.81  11 2.81
                             9 2.81
  13  0.209  0.106  0.179-  27 2.72  10 2.81   5 2.81  12 2.81  19 2.81  15 2.81  21 2.81  16 2.81
                            17 2.81  14 2.81  25 2.85  26 2.91
  14  0.542  0.106  0.179-   6 2.81  11 2.81  20 2.81  15 2.81  10 2.81  18 2.81  19 2.81  17 2.81
                            13 2.81  24 2.84  26 2.84  23 2.86
  15  0.876  0.106  0.179-  25 2.80  12 2.81   4 2.81  11 2.81  21 2.81  13 2.81  14 2.81  20 2.81
                            16 2.81  18 2.81  24 2.87  28 2.90
  16  0.209  0.440  0.179-   8 2.81   4 2.81  19 2.81  18 2.81   5 2.81  15 2.81  20 2.81  13 2.81
                            17 2.81  22 2.82  25 2.84  29 2.84
  17  0.542  0.440  0.179-  29 2.81   9 2.81  20 2.81  21 2.81  18 2.81   6 2.81   5 2.81  14 2.81
                            13 2.81  16 2.81  30 2.89  26 2.91
  18  0.876  0.440  0.179-   7 2.81   6 2.81  21 2.81  19 2.81  16 2.81  17 2.81   4 2.81  14 2.81
                            15 2.81  24 2.83  22 2.87  30 2.88
  19  0.209  0.773  0.179-  27 2.68  10 2.81   8 2.81   7 2.81  16 2.81  13 2.81  21 2.81  18 2.81
                            14 2.81  20 2.81  23 2.86  22 2.88
  20  0.542  0.773  0.179-   9 2.81  11 2.81  17 2.81  14 2.81  15 2.81  21 2.81   8 2.81  16 2.81
                            19 2.81  29 2.86  28 2.87  23 2.88
  21  0.876  0.773  0.179-  27 2.69  12 2.81   7 2.81   9 2.81  18 2.81  15 2.81  19 2.81  13 2.81
                            17 2.81  20 2.81  28 2.85  30 2.87
  22  0.101  0.545  0.287-  31 2.67  25 2.74  38 2.77  24 2.78  29 2.79  23 2.82  37 2.82  16 2.82
                            27 2.83  30 2.85  18 2.87  19 2.88
  23  0.429  0.885  0.287-  31 2.67  32 2.73  26 2.73  35 2.76  27 2.79  22 2.82  24 2.83  28 2.84
                            19 2.86  14 2.86  29 2.88  20 2.88
  24  0.764  0.222  0.286-  26 2.72  30 2.78  22 2.78  25 2.79  32 2.79  38 2.81  18 2.83  23 2.83
                            14 2.84  15 2.87  28 2.90  36 2.92
  25  0.091  0.216  0.285-  33 2.69  38 2.70  22 2.74  24 2.79  15 2.80  28 2.81  29 2.83  16 2.84
                            34 2.85  13 2.85  27 2.87  26 2.92
  26  0.436  0.213  0.288-  33 2.67  24 2.72  23 2.73  36 2.81  35 2.81  29 2.82  30 2.83  14 2.84
                            27 2.85  17 2.91  13 2.91  25 2.92
  27  0.096  0.878  0.278-  19 2.68  21 2.69  13 2.72  30 2.77  23 2.79  28 2.81  22 2.83  26 2.85
                            25 2.87  37 2.93  34 3.01  35 3.01
  28  0.763  0.877  0.288-  32 2.69  30 2.75  39 2.79  29 2.79  25 2.81  27 2.81  34 2.82  23 2.84
                            21 2.85  20 2.87  24 2.90  15 2.90
  29  0.433  0.546  0.286-  33 2.65  31 2.66  30 2.79  28 2.79  22 2.79  17 2.81  26 2.82  25 2.83
                            16 2.84  20 2.86  39 2.86  23 2.88
  30  0.767  0.553  0.288-  28 2.75  27 2.77  24 2.78  37 2.78  29 2.79  39 2.80  26 2.83  22 2.85
                            21 2.87  18 2.88  17 2.89  36 2.90
  31  0.326  0.658  0.383-  29 2.66  22 2.67  23 2.67  33 2.76  32 2.77  39 2.78  35 2.79  38 2.83
                            37 2.84
  32  0.654  0.987  0.387-  28 2.69  23 2.73  39 2.75  31 2.77  34 2.77  35 2.79  24 2.79  38 2.83
                            36 2.90
  33  0.318  0.327  0.382-  29 2.65  26 2.67  25 2.69  38 2.70  31 2.76  36 2.77  34 2.80  39 2.85
                            35 2.90
  34  0.987  0.996  0.393-  38 2.70  32 2.77  39 2.80  33 2.80  37 2.82  28 2.82  25 2.85  35 2.87
                            27 3.01
  35  0.324  0.987  0.393-  23 2.76  37 2.77  36 2.77  32 2.79  31 2.79  26 2.81  34 2.87  33 2.90
                            27 3.01
  36  0.643  0.325  0.397-   1 1.89   2 2.46  33 2.77  35 2.77  39 2.79  26 2.81  37 2.90  30 2.90
                            32 2.90  24 2.92  38 2.98
  37  0.992  0.663  0.391-   2 2.62  35 2.77  30 2.78  34 2.82  22 2.82  39 2.82  31 2.84  36 2.90
                            38 2.91  27 2.93
  38  0.994  0.319  0.389-   2 1.99  25 2.70  34 2.70  33 2.70  22 2.77  24 2.81  32 2.83  31 2.83
                            37 2.91  36 2.98
  39  0.656  0.662  0.393-  32 2.75  31 2.78  28 2.79  36 2.79  34 2.80  30 2.80  37 2.82  33 2.85
                            29 2.86
 

IMPORTANT INFORMATION: All symmetrisations will be switched off!
NOSYMM: (Re-)initialisation of all symmetry stuff for point group C_1.

 
 
 KPOINTS: mesh auto                               

Automatic generation of k-mesh.
Space group operators:
 irot       det(A)        alpha          n_x          n_y          n_z        tau_x        tau_y        tau_z
    1     1.000000     0.000000     1.000000     0.000000     0.000000     0.000000     0.000000     0.000000
 
 Subroutine IBZKPT returns following result:
 ===========================================
 
 Found      4 irreducible k-points:
 
 Following reciprocal coordinates:
            Coordinates               Weight
  0.000000  0.000000  0.000000      1.000000
  0.500000  0.000000  0.000000      1.000000
 -0.000000  0.500000  0.000000      1.000000
  0.500000  0.500000  0.000000      1.000000
 
 Following cartesian coordinates:
            Coordinates               Weight
  0.000000  0.000000  0.000000      1.000000
  0.068522  0.000000  0.000000      1.000000
  0.034261  0.059342  0.000000      1.000000
  0.102783  0.059342  0.000000      1.000000
 


--------------------------------------------------------------------------------------------------------




 Dimension of arrays:
   k-points           NKPTS =      4   k-points in BZ     NKDIM =      4   number of bands    NBANDS=    228
   number of dos      NEDOS =    301   number of ions     NIONS =     39
   non local maximal  LDIM  =      6   non local SUM 2l+1 LMDIM =     18
   total plane-waves  NPLWV = 276480
   max r-space proj   IRMAX =   2756   max aug-charges    IRDMAX=  12646
   dimension x,y,z NGX =    48 NGY =   48 NGZ =  120
   dimension x,y,z NGXF=    96 NGYF=   96 NGZF=  240
   support grid    NGXF=    96 NGYF=   96 NGZF=  240
   ions per type =               1   2  36
   NGX,Y,Z   is equivalent  to a cutoff of   9.47,  9.47,  9.12 a.u.
   NGXF,Y,Z  is equivalent  to a cutoff of  18.94, 18.94, 18.24 a.u.

 SYSTEM =  metal                                   
 POSCAR =  C    O    Pt                            

 Startparameter for this run:
   NWRITE =      2    write-flag & timer
   PREC   = normal    normal or accurate (medium, high low for compatibility)
   ISTART =      0    job   : 0-new  1-cont  2-samecut
   ICHARG =      2    charge: 1-file 2-atom 10-const
   ISPIN  =      1    spin polarized calculation?
   LNONCOLLINEAR =      F non collinear calculations
   LSORBIT =      F    spin-orbit coupling
   INIWAV =      1    electr: 0-lowe 1-rand  2-diag
   LASPH  =      F    aspherical Exc in radial PAW
   METAGGA=      F    non-selfconsistent MetaGGA calc.

 Electronic Relaxation 1
   ENCUT  =  450.0 eV  33.07 Ry    5.75 a.u.  14.57 14.57 37.84*2*pi/ulx,y,z
   ENINI  =  450.0     initial cutoff
   ENAUG  =  644.9 eV  augmentation charge cutoff
   NELM   =     60;   NELMIN=  8; NELMDL= -5     # of ELM steps 
   EDIFF  = 0.1E-03   stopping-criterion for ELM
   LREAL  =      T    real-space projection
   NLSPLINE    = F    spline interpolate recip. space projectors
   LCOMPAT=      F    compatible to vasp.4.4
   GGA_COMPAT  = T    GGA compatible to vasp.4.4-vasp.4.6
   LMAXPAW     = -100 max onsite density
   LMAXMIX     =    2 max onsite mixed and CHGCAR
   VOSKOWN=      0    Vosko Wilk Nusair interpolation
   ROPT   =   -0.00050  -0.00050  -0.00050
 Ionic relaxation
   EDIFFG = -.5E-01   stopping-criterion for IOM
   NSW    =   5000    number of steps for IOM
   NBLOCK =      1;   KBLOCK =   5000    inner block; outer block 
   IBRION =      1    ionic relax: 0-MD 1-quasi-New 2-CG
   NFREE  =      0    steps in history (QN), initial steepest desc. (CG)
   ISIF   =      2    stress and relaxation
   IWAVPR =     11    prediction:  0-non 1-charg 2-wave 3-comb
   ISYM   =      0    0-nonsym 1-usesym 2-fastsym
   LCORR  =      T    Harris-Foulkes like correction to forces

   POTIM  = 0.2000    time-step for ionic-motion
   TEIN   =    0.0    initial temperature
   TEBEG  =    0.0;   TEEND  =   0.0 temperature during run
   SMASS  =  -3.00    Nose mass-parameter (am)
   estimated Nose-frequenzy (Omega)   =  0.10E-29 period in steps =****** mass=  -0.162E-26a.u.
   SCALEE = 1.0000    scale energy and forces
   NPACO  =    256;   APACO  = 16.0  distance and # of slots for P.C.
   PSTRESS=    0.0 pullay stress

  Mass of Ions in am
   POMASS =  12.01 16.00195.08
  Ionic Valenz
   ZVAL   =   4.00  6.00 10.00
  Atomic Wigner-Seitz radii
   RWIGS  =  -1.00 -1.00 -1.00
  virtual crystal weights 
   VCA    =   1.00  1.00  1.00
   NELECT =     376.0000    total number of electrons
   NUPDOWN=      -1.0000    fix difference up-down

 DOS related values:
   EMIN   =  10.00;   EMAX   =-10.00  energy-range for DOS
   EFERMI =   0.00
   ISMEAR =     1;   SIGMA  =   0.20  broadening in eV -4-tet -1-fermi 0-gaus

 Electronic relaxation 2 (details)
   IALGO  =     68    algorithm
   LDIAG  =      T    sub-space diagonalisation (order eigenvalues)
   LSUBROT=      F    optimize rotation matrix (better conditioning)
   TURBO    =      0    0=normal 1=particle mesh
   IRESTART =      0    0=no restart 2=restart with 2 vectors
   NREBOOT  =      0    no. of reboots
   NMIN     =      0    reboot dimension
   EREF     =   0.00    reference energy to select bands
   IMIX   =      4    mixing-type and parameters
     AMIX     =   0.40;   BMIX     =  1.00
     AMIX_MAG =   1.60;   BMIX_MAG =  1.00
     AMIN     =   0.10
     WC   =   100.;   INIMIX=   1;  MIXPRE=   1;  MAXMIX= -45

 Intra band minimization:
   WEIMIN = 0.0010     energy-eigenvalue tresh-hold
   EBREAK =  0.11E-06  absolut break condition
   DEPER  =   0.30     relativ break condition  

   TIME   =   0.40     timestep for ELM

  volume/ion in A,a.u.               =      34.49       232.77
  Fermi-wavevector in a.u.,A,eV,Ry     =   1.070385  2.022734 15.588510  1.145723
  Thomas-Fermi vector in A             =   2.206093
 
 Write flags
   LWAVE        =      F    write WAVECAR
   LDOWNSAMPLE  =      F    k-point downsampling of WAVECAR
   LCHARG       =      F    write CHGCAR
   LVTOT        =      F    write LOCPOT, total local potential
   LVHAR        =      F    write LOCPOT, Hartree potential only
   LELF         =      F    write electronic localiz. function (ELF)
   LORBIT       =      0    0 simple, 1 ext, 2 COOP (PROOUT), +10 PAW based schemes


 Dipole corrections
   LMONO  =      F    monopole corrections only (constant potential shift)
   LDIPOL =      F    correct potential (dipole corrections)
   IDIPOL =      0    1-x, 2-y, 3-z, 4-all directions 
   EPSILON=  1.0000000 bulk dielectric constant

 Exchange correlation treatment:
   GGA     =    --    GGA type
   LEXCH   =     8    internal setting for exchange type
   VOSKOWN=      0    Vosko Wilk Nusair interpolation
   LHFCALC =     F    Hartree Fock is set to
   LHFONE  =     F    Hartree Fock one center treatment
   AEXX    =    0.0000 exact exchange contribution

 Linear response parameters
   LEPSILON=     F    determine dielectric tensor
   LRPA    =     F    only Hartree local field effects (RPA)
   LNABLA  =     F    use nabla operator in PAW spheres
   LVEL    =     F    velocity operator in full k-point grid
   LINTERFAST=   F  fast interpolation
   KINTER  =     0    interpolate to denser k-point grid
   CSHIFT  =0.1000    complex shift for real part using Kramers Kronig
   OMEGAMAX=  -1.0    maximum frequency
   DEG_THRESHOLD= 0.2000000E-02 threshold for treating states as degnerate
   RTIME   =   -0.100 relaxation time in fs
  (WPLASMAI=    0.000 imaginary part of plasma frequency in eV, 0.658/RTIME)
   DFIELD  = 0.0000000 0.0000000 0.0000000 field for delta impulse in time
 
 Orbital magnetization related:
   ORBITALMAG=     F  switch on orbital magnetization
   LCHIMAG   =     F  perturbation theory with respect to B field
   DQ        =  0.001000  dq finite difference perturbation B field
   LLRAUG    =     F  two centre corrections for induced B field



--------------------------------------------------------------------------------------------------------


 quasi-Newton-method for relaxation of ions
   using selective dynamics as specified on POSCAR
 charge density and potential will be updated during run
 non-spin polarized calculation
 RMM-DIIS sequential band-by-band and
  variant of blocked Davidson during initial phase
 perform sub-space diagonalisation
    before iterative eigenvector-optimisation
 modified Broyden-mixing scheme, WC =      100.0
 initial mixing is a Kerker type mixing with AMIX =  0.4000 and BMIX =      1.0000
 Hartree-type preconditioning will be used
 using additional bands           40
 real space projection scheme for non local part
 use partial core corrections
 calculate Harris-corrections to forces 
   (improved forces if not selfconsistent)
 use gradient corrections 
 use of overlap-Matrix (Vanderbilt PP)
 Methfessel and Paxton  Order N= 1 SIGMA  =   0.20


--------------------------------------------------------------------------------------------------------


  energy-cutoff  :      450.00
  volume of cell :     1345.22
      direct lattice vectors                 reciprocal lattice vectors
     7.296955120 -4.212899000  0.000000000     0.137043463  0.000000000  0.000000000
     0.000000000  8.425798000  0.000000000     0.068521732  0.118683121  0.000000000
     0.000000000  0.000000000 21.879635000     0.000000000  0.000000000  0.045704602

  length of vectors
     8.425798004  8.425798000 21.879635000     0.137043463  0.137043463  0.045704602


 
 k-points in units of 2pi/SCALE and weight: mesh auto                               
   0.00000000  0.00000000  0.00000000       0.250
   0.06852173  0.00000000  0.00000000       0.250
   0.03426087  0.05934156  0.00000000       0.250
   0.10278260  0.05934156  0.00000000       0.250
 
 k-points in reciprocal lattice and weights: mesh auto                               
   0.00000000  0.00000000  0.00000000       0.250
   0.50000000  0.00000000  0.00000000       0.250
  -0.00000000  0.50000000  0.00000000       0.250
   0.50000000  0.50000000  0.00000000       0.250
 
 position of ions in fractional coordinates (direct lattice) 
   0.70252084  0.43331066  0.47511772
   0.90275131  0.38366159  0.46307095
   0.67438430  0.46016655  0.52500625
   0.98675500  0.32859100  0.07437600
   0.32008800  0.32859100  0.07437600
   0.65342200  0.32859100  0.07437600
   0.98675500  0.66192500  0.07437600
   0.32008800  0.66192500  0.07437600
   0.65342200  0.66192500  0.07437600
   0.32008800  0.99525800  0.07437600
   0.65342200  0.99525800  0.07437600
   0.98675500  0.99525800  0.07437600
   0.20897700  0.10636900  0.17918600
   0.54231100  0.10636900  0.17918600
   0.87564400  0.10636900  0.17918600
   0.20897700  0.43970300  0.17918600
   0.54231100  0.43970300  0.17918600
   0.87564400  0.43970300  0.17918600
   0.20897700  0.77303600  0.17918600
   0.54231100  0.77303600  0.17918600
   0.87564400  0.77303600  0.17918600
   0.10113571  0.54518868  0.28670576
   0.42937851  0.88517665  0.28714500
   0.76410617  0.22233817  0.28603503
   0.09130718  0.21560778  0.28520032
   0.43623061  0.21256450  0.28820175
   0.09634448  0.87829554  0.27763072
   0.76286000  0.87737207  0.28771711
   0.43282979  0.54565477  0.28554406
   0.76725648  0.55325213  0.28801862
   0.32614116  0.65834479  0.38269948
   0.65441599  0.98706599  0.38659615
   0.31792820  0.32705094  0.38231496
   0.98722049  0.99562434  0.39261151
   0.32420108  0.98741683  0.39250140
   0.64319710  0.32484189  0.39654975
   0.99198864  0.66346987  0.39085921
   0.99386117  0.31898655  0.38861043
   0.65643096  0.66238528  0.39301636
 
 position of ions in cartesian coordinates  (Angst):
   5.12626305  0.69133878 10.39540219
   6.58733579 -0.57054505 10.13182335
   4.92095194  1.03615744 11.48694506
   7.20030695 -1.38845776  1.62731973
   2.33566777  1.42014298  1.62731973
   4.76799101  0.01584050  1.62731973
   7.20030695  1.42014719  1.62731973
   2.33566777  4.22874793  1.62731973
   4.76799101  2.82444545  1.62731973
   2.33566777  7.03734445  1.62731973
   4.76799101  5.63304198  1.62731973
   7.20030695  4.22874371  1.62731973
   1.52489579  0.01584471  3.92052428
   3.95721903 -1.38845776  3.92052428
   6.38953497 -2.79275602  3.92052428
   1.52489579  2.82444966  3.92052428
   3.95721903  1.42014719  3.92052428
   6.38953497  0.01584893  3.92052428
   1.52489579  5.63304619  3.92052428
   3.95721903  4.22874371  3.92052428
   6.38953497  2.82444545  3.92052428
   0.73798273  4.16757516  6.27301741
   3.13315570  5.64939134  6.28262788
   5.57564844 -1.34572564  6.25834216
   0.66626440  1.43199970  6.24007898
   3.18315518 -0.04676995  6.30574900
   0.70302137  6.99445122  6.07445874
   5.56655515  4.17870773  6.29514529
   3.15833953  2.77410867  6.24759992
   5.59863612  1.42921659  6.30174221
   2.37983742  4.17308041  8.37332490
   4.77524409  5.55983017  8.45858258
   2.31990782  1.41626577  8.36491170
   7.20370364  4.22986934  8.59019659
   2.36568076  6.95394833  8.58778734
   4.69338038  0.02732776  8.67636375
   7.23849662  1.41111512  8.55185684
   7.25216036 -1.49932049  8.50265436
   4.78994729  2.81564724  8.59905457
 


--------------------------------------------------------------------------------------------------------


 k-point  1 :   0.0000 0.0000 0.0000  plane waves:   29241
 k-point  2 :   0.5000 0.0000 0.0000  plane waves:   29108
 k-point  3 :  -0.0000 0.5000 0.0000  plane waves:   29108
 k-point  4 :   0.5000 0.5000 0.0000  plane waves:   29108

 maximum and minimum number of plane-waves per node :     14624    14548

 maximum number of plane-waves:     29241
 maximum index in each direction: 
   IXMAX=   14   IYMAX=   14   IZMAX=   37
   IXMIN=  -15   IYMIN=  -15   IZMIN=  -37


 real space projection operators:
  total allocation   :      13564.95 KBytes
  max/ min on nodes  :       6789.20       6775.75


 parallel 3D FFT for wavefunctions:
    minimum data exchange during FFTs selected (reduces bandwidth)
 parallel 3D FFT for charge:
    minimum data exchange during FFTs selected (reduces bandwidth)


 total amount of memory used by VASP MPI-rank0   131962. kBytes
=======================================================================

   base      :      30000. kBytes
   nonlr-proj:      10154. kBytes
   fftplans  :      13556. kBytes
   grid      :      23353. kBytes
   one-center:        311. kBytes
   wavefun   :      54588. kBytes
 
     INWAV:  cpu time    0.0000: real time    0.0000
 Broyden mixing: mesh for mixing (old mesh)
   NGX = 29   NGY = 29   NGZ = 75
  (NGX  = 96   NGY  = 96   NGZ  =240)
  gives a total of  63075 points

 initial charge density was supplied:
 charge density of overlapping atoms calculated
 number of electron     376.0000000 magnetization 
 keeping initial charge density in first step


--------------------------------------------------------------------------------------------------------


 Maximum index for non-local projection operator         1323
 Maximum index for augmentation-charges         1558 (set IRDMAX)


--------------------------------------------------------------------------------------------------------


 First call to EWALD:  gamma=   0.161
 Maximum number of real-space cells 4x 4x 2
 Maximum number of reciprocal cells 2x 2x 5

    FEWALD:  cpu time    0.0037: real time    0.0037


--------------------------------------- Iteration      1(   1)  ---------------------------------------


    POTLOK:  cpu time    0.1877: real time    0.3188
    SETDIJ:  cpu time    0.0166: real time    0.0235
     EDDAV:  cpu time   12.2501: real time   13.2600
       DOS:  cpu time    0.0009: real time    0.0009
    --------------------------------------------
      LOOP:  cpu time   12.4553: real time   13.6032

 eigenvalue-minimisations  :  1824
 total energy-change (2. order) : 0.2421343E+04  (-0.1595176E+05)
 number of electron     376.0000000 magnetization 
 augmentation part      376.0000000 magnetization 

 Free energy of the ion-electron system (eV)
  ---------------------------------------------------
  alpha Z        PSCENC =       975.10247152
  Ewald energy   TEWEN  =     90728.90748647
  -Hartree energ DENC   =   -119818.42057104
  -exchange      EXHF   =         0.00000000
  -V(xc)+E(xc)   XCENC  =       189.62407423
  PAW double counting   =     24789.08602224   -23775.73976456
  entropy T*S    EENTRO =        -0.01069414
  eigenvalues    EBANDS =      2072.89957502
  atomic energy  EATOM  =     27259.89416086
  Solvation  Ediel_sol  =         0.00000000
  ---------------------------------------------------
  free energy    TOTEN  =      2421.34276059 eV

  energy without entropy =     2421.35345473  energy(sigma->0) =     2421.34632530


--------------------------------------------------------------------------------------------------------




--------------------------------------- Iteration      1(   2)  ---------------------------------------


     EDDAV:  cpu time   17.3164: real time   20.0188
       DOS:  cpu time    0.0010: real time    0.0010
    --------------------------------------------
      LOOP:  cpu time   17.3175: real time   20.0198

 eigenvalue-minimisations  :  2112
 total energy-change (2. order) :-0.2483845E+04  (-0.2307661E+04)
 number of electron     376.0000000 magnetization 
 augmentation part      376.0000000 magnetization 

 Free energy of the ion-electron system (eV)
  ---------------------------------------------------
  alpha Z        PSCENC =       975.10247152
  Ewald energy   TEWEN  =     90728.90748647
  -Hartree energ DENC   =   -119818.42057104
  -exchange      EXHF   =         0.00000000
  -V(xc)+E(xc)   XCENC  =       189.62407423
  PAW double counting   =     24789.08602224   -23775.73976456
  entropy T*S    EENTRO =        -0.02270453
  eigenvalues    EBANDS =      -410.93347191
  atomic energy  EATOM  =     27259.89416086
  Solvation  Ediel_sol  =         0.00000000
  ---------------------------------------------------
  free energy    TOTEN  =       -62.50229672 eV

  energy without entropy =      -62.47959219  energy(sigma->0) =      -62.49472855


--------------------------------------------------------------------------------------------------------




--------------------------------------- Iteration      1(   3)  ---------------------------------------


     EDDAV:  cpu time   13.2858: real time   14.1619
       DOS:  cpu time    0.0010: real time    0.0010
    --------------------------------------------
      LOOP:  cpu time   13.2868: real time   14.1629

 eigenvalue-minimisations  :  2168
 total energy-change (2. order) :-0.1775648E+03  (-0.1609291E+03)
 number of electron     376.0000000 magnetization 
 augmentation part      376.0000000 magnetization 

 Free energy of the ion-electron system (eV)
  ---------------------------------------------------
  alpha Z        PSCENC =       975.10247152
  Ewald energy   TEWEN  =     90728.90748647
  -Hartree energ DENC   =   -119818.42057104
  -exchange      EXHF   =         0.00000000
  -V(xc)+E(xc)   XCENC  =       189.62407423
  PAW double counting   =     24789.08602224   -23775.73976456
  entropy T*S    EENTRO =         0.00997791
  eigenvalues    EBANDS =      -588.53094024
  atomic energy  EATOM  =     27259.89416086
  Solvation  Ediel_sol  =         0.00000000
  ---------------------------------------------------
  free energy    TOTEN  =      -240.06708263 eV

  energy without entropy =     -240.07706053  energy(sigma->0) =     -240.07040859


--------------------------------------------------------------------------------------------------------




--------------------------------------- Iteration      1(   4)  ---------------------------------------


     EDDAV:  cpu time   15.2559: real time   16.7922
       DOS:  cpu time    0.0010: real time    0.0010
    --------------------------------------------
      LOOP:  cpu time   15.2569: real time   16.7932

 eigenvalue-minimisations  :  2320
 total energy-change (2. order) :-0.7772442E+01  (-0.7499706E+01)
 number of electron     376.0000000 magnetization 
 augmentation part      376.0000000 magnetization 

 Free energy of the ion-electron system (eV)
  ---------------------------------------------------
  alpha Z        PSCENC =       975.10247152
  Ewald energy   TEWEN  =     90728.90748647
  -Hartree energ DENC   =   -119818.42057104
  -exchange      EXHF   =         0.00000000
  -V(xc)+E(xc)   XCENC  =       189.62407423
  PAW double counting   =     24789.08602224   -23775.73976456
  entropy T*S    EENTRO =         0.00891703
  eigenvalues    EBANDS =      -596.30232092
  atomic energy  EATOM  =     27259.89416086
  Solvation  Ediel_sol  =         0.00000000
  ---------------------------------------------------
  free energy    TOTEN  =      -247.83952418 eV

  energy without entropy =     -247.84844121  energy(sigma->0) =     -247.84249652


--------------------------------------------------------------------------------------------------------




--------------------------------------- Iteration      1(   5)  ---------------------------------------


     EDDAV:  cpu time   14.6365: real time   15.2919
       DOS:  cpu time    0.0010: real time    0.0010
    CHARGE:  cpu time    0.7547: real time    0.7591
    MIXING:  cpu time    0.0289: real time    0.0291
    --------------------------------------------
      LOOP:  cpu time   15.4211: real time   16.0811

 eigenvalue-minimisations  :  2496
 total energy-change (2. order) :-0.2361677E+00  (-0.2337963E+00)
 number of electron     376.0000038 magnetization 
 augmentation part      105.8446052 magnetization 

 Broyden mixing:
  rms(total) = 0.27378E+01    rms(broyden)= 0.27374E+01
  rms(prec ) = 0.30476E+01
  weight for this iteration     100.00

 Free energy of the ion-electron system (eV)
  ---------------------------------------------------
  alpha Z        PSCENC =       975.10247152
  Ewald energy   TEWEN  =     90728.90748647
  -Hartree energ DENC   =   -119818.42057104
  -exchange      EXHF   =         0.00000000
  -V(xc)+E(xc)   XCENC  =       189.62407423
  PAW double counting   =     24789.08602224   -23775.73976456
  entropy T*S    EENTRO =         0.00901616
  eigenvalues    EBANDS =      -596.53858779
  atomic energy  EATOM  =     27259.89416086
  Solvation  Ediel_sol  =         0.00000000
  ---------------------------------------------------
  free energy    TOTEN  =      -248.07569192 eV

  energy without entropy =     -248.08470808  energy(sigma->0) =     -248.07869730


--------------------------------------------------------------------------------------------------------




--------------------------------------- Iteration      1(   6)  ---------------------------------------


    POTLOK:  cpu time    0.3069: real time    0.3087
    SETDIJ:  cpu time    0.0221: real time    0.0222
    EDDIAG:  cpu time    2.1518: real time    2.1647
  RMM-DIIS:  cpu time    5.8549: real time    6.2382
    ORTHCH:  cpu time    0.3932: real time    0.3953
       DOS:  cpu time    0.0067: real time    0.0067
    CHARGE:  cpu time    0.5867: real time    0.7580
    MIXING:  cpu time    0.0083: real time    0.0120
    --------------------------------------------
      LOOP:  cpu time    9.3306: real time    9.9058

 eigenvalue-minimisations  :  1828
 total energy-change (2. order) : 0.2038891E+01  (-0.5581665E+01)
 number of electron     376.0000048 magnetization 
 augmentation part      112.8831792 magnetization 

 Broyden mixing:
  rms(total) = 0.30192E+01    rms(broyden)= 0.30183E+01
  rms(prec ) = 0.41640E+01
  weight for this iteration     100.00

 eigenvalues of (default mixing * dielectric matrix)
  average eigenvalue GAMMA=   0.4814
  0.4814

 Free energy of the ion-electron system (eV)
  ---------------------------------------------------
  alpha Z        PSCENC =       975.10247152
  Ewald energy   TEWEN  =     90728.90748647
  -Hartree energ DENC   =   -119361.21955558
  -exchange      EXHF   =         0.00000000
  -V(xc)+E(xc)   XCENC  =       182.51114740
  PAW double counting   =     26720.97299594   -25761.15768874
  entropy T*S    EENTRO =        -0.17212999
  eigenvalues    EBANDS =      -990.87568847
  atomic energy  EATOM  =     27259.89416086
  Solvation  Ediel_sol  =         0.00000000
  ---------------------------------------------------
  free energy    TOTEN  =      -246.03680059 eV

  energy without entropy =     -245.86467060  energy(sigma->0) =     -245.97942393


--------------------------------------------------------------------------------------------------------




--------------------------------------- Iteration      1(   7)  ---------------------------------------


    POTLOK:  cpu time    0.1736: real time    0.2095
    SETDIJ:  cpu time    0.0087: real time    0.0088
    EDDIAG:  cpu time    1.7587: real time    2.0353
  RMM-DIIS:  cpu time    5.7822: real time    6.2395
    ORTHCH:  cpu time    0.3177: real time    0.3195
       DOS:  cpu time    0.0011: real time    0.0011
    CHARGE:  cpu time    0.4455: real time    0.5577
    MIXING:  cpu time    0.0099: real time    0.0163
    --------------------------------------------
      LOOP:  cpu time    8.4973: real time    9.3878

 eigenvalue-minimisations  :  1831
 total energy-change (2. order) :-0.1036062E+01  (-0.3222514E+01)
 number of electron     376.0000052 magnetization 
 augmentation part      111.4472879 magnetization 

 Broyden mixing:
  rms(total) = 0.22926E+01    rms(broyden)= 0.22920E+01
  rms(prec ) = 0.41406E+01
  weight for this iteration     100.00

 eigenvalues of (default mixing * dielectric matrix)
  average eigenvalue GAMMA=   0.5281
  0.8267  0.2295

 Free energy of the ion-electron system (eV)
  ---------------------------------------------------
  alpha Z        PSCENC =       975.10247152
  Ewald energy   TEWEN  =     90728.90748647
  -Hartree energ DENC   =   -119544.21375902
  -exchange      EXHF   =         0.00000000
  -V(xc)+E(xc)   XCENC  =       180.33667520
  PAW double counting   =     27331.15331745   -26378.31612418
  entropy T*S    EENTRO =        -0.11043315
  eigenvalues    EBANDS =      -799.82665751
  atomic energy  EATOM  =     27259.89416086
  Solvation  Ediel_sol  =         0.00000000
  ---------------------------------------------------
  free energy    TOTEN  =      -247.07286238 eV

  energy without entropy =     -246.96242922  energy(sigma->0) =     -247.03605132


--------------------------------------------------------------------------------------------------------




--------------------------------------- Iteration      1(   8)  ---------------------------------------


    POTLOK:  cpu time    0.1873: real time    0.1944
    SETDIJ:  cpu time    0.0198: real time    0.0199
    EDDIAG:  cpu time    1.4533: real time    1.6232
  RMM-DIIS:  cpu time    5.4480: real time    5.7946
    ORTHCH:  cpu time    0.2935: real time    0.2952
       DOS:  cpu time    0.0010: real time    0.0010
    CHARGE:  cpu time    0.5485: real time    0.5517
    MIXING:  cpu time    0.0037: real time    0.0038
    --------------------------------------------
      LOOP:  cpu time    7.9552: real time    8.4839

 eigenvalue-minimisations  :  1827
 total energy-change (2. order) : 0.3657999E+01  (-0.1080166E+01)
 number of electron     376.0000051 magnetization 
 augmentation part      111.8935500 magnetization 

 Broyden mixing:
  rms(total) = 0.23257E+01    rms(broyden)= 0.23255E+01
  rms(prec ) = 0.37713E+01
  weight for this iteration     100.00

 eigenvalues of (default mixing * dielectric matrix)
  average eigenvalue GAMMA=   0.5101
  1.1213  0.2678  0.1414

 Free energy of the ion-electron system (eV)
  ---------------------------------------------------
  alpha Z        PSCENC =       975.10247152
  Ewald energy   TEWEN  =     90728.90748647
  -Hartree energ DENC   =   -119529.49475901
  -exchange      EXHF   =         0.00000000
  -V(xc)+E(xc)   XCENC  =       179.30152348
  PAW double counting   =     27868.72860406   -26924.24684751
  entropy T*S    EENTRO =        -0.01285774
  eigenvalues    EBANDS =      -801.59464586
  atomic energy  EATOM  =     27259.89416086
  Solvation  Ediel_sol  =         0.00000000
  ---------------------------------------------------
  free energy    TOTEN  =      -243.41486373 eV

  energy without entropy =     -243.40200599  energy(sigma->0) =     -243.41057782


--------------------------------------------------------------------------------------------------------




--------------------------------------- Iteration      1(   9)  ---------------------------------------


    POTLOK:  cpu time    0.2039: real time    0.2051
    SETDIJ:  cpu time    0.0271: real time    0.0273
    EDDIAG:  cpu time    1.6053: real time    1.6147
  RMM-DIIS:  cpu time    4.7891: real time    4.9648
    ORTHCH:  cpu time    0.2796: real time    0.2813
       DOS:  cpu time    0.0010: real time    0.0010
    CHARGE:  cpu time    0.4366: real time    0.4400
    MIXING:  cpu time    0.0037: real time    0.0037
    --------------------------------------------
      LOOP:  cpu time    7.3464: real time    7.5379

 eigenvalue-minimisations  :  1831
 total energy-change (2. order) : 0.1171834E+02  (-0.6718527E+00)
 number of electron     376.0000046 magnetization 
 augmentation part      112.6458588 magnetization 

 Broyden mixing:
  rms(total) = 0.94411E+00    rms(broyden)= 0.94386E+00
  rms(prec ) = 0.11920E+01
  weight for this iteration     100.00

 eigenvalues of (default mixing * dielectric matrix)
  average eigenvalue GAMMA=   0.5148
  1.2722  0.3251  0.3251  0.1369

 Free energy of the ion-electron system (eV)
  ---------------------------------------------------
  alpha Z        PSCENC =       975.10247152
  Ewald energy   TEWEN  =     90728.90748647
  -Hartree energ DENC   =   -119448.97656887
  -exchange      EXHF   =         0.00000000
  -V(xc)+E(xc)   XCENC  =       178.58179819
  PAW double counting   =     28600.01566543   -27666.90316327
  entropy T*S    EENTRO =        -0.07164046
  eigenvalues    EBANDS =      -858.24673310
  atomic energy  EATOM  =     27259.89416086
  Solvation  Ediel_sol  =         0.00000000
  ---------------------------------------------------
  free energy    TOTEN  =      -231.69652322 eV

  energy without entropy =     -231.62488277  energy(sigma->0) =     -231.67264307


--------------------------------------------------------------------------------------------------------




--------------------------------------- Iteration      1(  10)  ---------------------------------------


    POTLOK:  cpu time    0.1247: real time    0.1259
    SETDIJ:  cpu time    0.0145: real time    0.0146
    EDDIAG:  cpu time    1.2160: real time    1.4074
  RMM-DIIS:  cpu time    5.9429: real time    6.4476
    ORTHCH:  cpu time    0.3289: real time    0.3308
       DOS:  cpu time    0.0076: real time    0.0077
    CHARGE:  cpu time    0.5332: real time    0.5364
    MIXING:  cpu time    0.0049: real time    0.0049
    --------------------------------------------
      LOOP:  cpu time    8.1727: real time    8.8752

 eigenvalue-minimisations  :  1831
 total energy-change (2. order) : 0.1344702E+01  (-0.2102483E+00)
 number of electron     376.0000048 magnetization 
 augmentation part      112.8037282 magnetization 

 Broyden mixing:
  rms(total) = 0.53882E+00    rms(broyden)= 0.53875E+00
  rms(prec ) = 0.66925E+00
  weight for this iteration     100.00

 eigenvalues of (default mixing * dielectric matrix)
  average eigenvalue GAMMA=   0.5334
  1.3784  0.4476  0.4476  0.1383  0.2552

 Free energy of the ion-electron system (eV)
  ---------------------------------------------------
  alpha Z        PSCENC =       975.10247152
  Ewald energy   TEWEN  =     90728.90748647
  -Hartree energ DENC   =   -119438.32586883
  -exchange      EXHF   =         0.00000000
  -V(xc)+E(xc)   XCENC  =       178.41717533
  PAW double counting   =     28986.12352789   -28058.35562118
  entropy T*S    EENTRO =         0.03390087
  eigenvalues    EBANDS =      -862.14905391
  atomic energy  EATOM  =     27259.89416086
  Solvation  Ediel_sol  =         0.00000000
  ---------------------------------------------------
  free energy    TOTEN  =      -230.35182098 eV

  energy without entropy =     -230.38572185  energy(sigma->0) =     -230.36312127


--------------------------------------------------------------------------------------------------------




--------------------------------------- Iteration      1(  11)  ---------------------------------------


    POTLOK:  cpu time    0.1392: real time    0.1401
    SETDIJ:  cpu time    0.0112: real time    0.0113
    EDDIAG:  cpu time    1.7716: real time    2.1551
  RMM-DIIS:  cpu time    4.1983: real time    4.7973
    ORTHCH:  cpu time    0.3248: real time    0.4297
       DOS:  cpu time    0.0031: real time    0.0092
    CHARGE:  cpu time    0.4380: real time    0.6068
    MIXING:  cpu time    0.0453: real time    0.0455
    --------------------------------------------
      LOOP:  cpu time    6.9313: real time    8.1950

 eigenvalue-minimisations  :  1831
 total energy-change (2. order) : 0.3121485E+00  (-0.5490795E-01)
 number of electron     376.0000048 magnetization 
 augmentation part      112.9324877 magnetization 

 Broyden mixing:
  rms(total) = 0.34711E+00    rms(broyden)= 0.34678E+00
  rms(prec ) = 0.46749E+00
  weight for this iteration     100.00

 eigenvalues of (default mixing * dielectric matrix)
  average eigenvalue GAMMA=   0.5721
  1.5464  0.8331  0.1372  0.3419  0.3419  0.2321

 Free energy of the ion-electron system (eV)
  ---------------------------------------------------
  alpha Z        PSCENC =       975.10247152
  Ewald energy   TEWEN  =     90728.90748647
  -Hartree energ DENC   =   -119435.34643115
  -exchange      EXHF   =         0.00000000
  -V(xc)+E(xc)   XCENC  =       178.40730369
  PAW double counting   =     29273.85574166   -28349.83210474
  entropy T*S    EENTRO =        -0.00024624
  eigenvalues    EBANDS =      -861.02805452
  atomic energy  EATOM  =     27259.89416086
  Solvation  Ediel_sol  =         0.00000000
  ---------------------------------------------------
  free energy    TOTEN  =      -230.03967245 eV

  energy without entropy =     -230.03942621  energy(sigma->0) =     -230.03959037


--------------------------------------------------------------------------------------------------------




--------------------------------------- Iteration      1(  12)  ---------------------------------------


    POTLOK:  cpu time    0.2486: real time    0.2569
    SETDIJ:  cpu time    0.0125: real time    0.0214
    EDDIAG:  cpu time    1.6718: real time    1.9383
  RMM-DIIS:  cpu time    4.6931: real time    4.9834
    ORTHCH:  cpu time    0.2882: real time    0.2904
       DOS:  cpu time    0.0010: real time    0.0010
    CHARGE:  cpu time    0.4118: real time    0.4150
    MIXING:  cpu time    0.0041: real time    0.0042
    --------------------------------------------
      LOOP:  cpu time    7.3311: real time    7.9105

 eigenvalue-minimisations  :  1844
 total energy-change (2. order) : 0.1891356E+00  (-0.2243375E-01)
 number of electron     376.0000048 magnetization 
 augmentation part      112.9888542 magnetization 

 Broyden mixing:
  rms(total) = 0.17834E+00    rms(broyden)= 0.17830E+00
  rms(prec ) = 0.19396E+00
  weight for this iteration     100.00

 eigenvalues of (default mixing * dielectric matrix)
  average eigenvalue GAMMA=   0.6576
  1.8653  1.0313  0.6080  0.4282  0.1373  0.2862  0.2471

 Free energy of the ion-electron system (eV)
  ---------------------------------------------------
  alpha Z        PSCENC =       975.10247152
  Ewald energy   TEWEN  =     90728.90748647
  -Hartree energ DENC   =   -119426.36853988
  -exchange      EXHF   =         0.00000000
  -V(xc)+E(xc)   XCENC  =       178.35235204
  PAW double counting   =     29587.65167825   -28667.48101127
  entropy T*S    EENTRO =        -0.00097127
  eigenvalues    EBANDS =      -865.90816356
  atomic energy  EATOM  =     27259.89416086
  Solvation  Ediel_sol  =         0.00000000
  ---------------------------------------------------
  free energy    TOTEN  =      -229.85053685 eV

  energy without entropy =     -229.84956558  energy(sigma->0) =     -229.85021309


--------------------------------------------------------------------------------------------------------




--------------------------------------- Iteration      1(  13)  ---------------------------------------


    POTLOK:  cpu time    0.1147: real time    0.1156
    SETDIJ:  cpu time    0.0092: real time    0.0092
    EDDIAG:  cpu time    1.6821: real time    1.6949
  RMM-DIIS:  cpu time    4.5376: real time    4.9825
    ORTHCH:  cpu time    0.3832: real time    0.4174
       DOS:  cpu time    0.0071: real time    0.0071
    CHARGE:  cpu time    0.4848: real time    0.5291
    MIXING:  cpu time    0.0340: real time    0.0342
    --------------------------------------------
      LOOP:  cpu time    7.2526: real time    7.7899

 eigenvalue-minimisations  :  1832
 total energy-change (2. order) :-0.1392654E-01  (-0.1247836E-01)
 number of electron     376.0000048 magnetization 
 augmentation part      113.0172087 magnetization 

 Broyden mixing:
  rms(total) = 0.20138E+00    rms(broyden)= 0.20138E+00
  rms(prec ) = 0.24563E+00
  weight for this iteration     100.00

 eigenvalues of (default mixing * dielectric matrix)
  average eigenvalue GAMMA=   0.6985
  2.1765  1.1652  0.8369  0.4272  0.1372  0.3073  0.3073  0.2302

 Free energy of the ion-electron system (eV)
  ---------------------------------------------------
  alpha Z        PSCENC =       975.10247152
  Ewald energy   TEWEN  =     90728.90748647
  -Hartree energ DENC   =   -119424.89340678
  -exchange      EXHF   =         0.00000000
  -V(xc)+E(xc)   XCENC  =       178.26473473
  PAW double counting   =     29842.93884900   -28925.83126526
  entropy T*S    EENTRO =         0.00419679
  eigenvalues    EBANDS =      -864.25169073
  atomic energy  EATOM  =     27259.89416086
  Solvation  Ediel_sol  =         0.00000000
  ---------------------------------------------------
  free energy    TOTEN  =      -229.86446339 eV

  energy without entropy =     -229.86866018  energy(sigma->0) =     -229.86586232


--------------------------------------------------------------------------------------------------------




--------------------------------------- Iteration      1(  14)  ---------------------------------------


    POTLOK:  cpu time    0.2182: real time    0.2196
    SETDIJ:  cpu time    0.0163: real time    0.0164
    EDDIAG:  cpu time    1.1970: real time    1.7861
  RMM-DIIS:  cpu time    4.5783: real time    5.5424
    ORTHCH:  cpu time    0.3977: real time    0.4147
       DOS:  cpu time    0.0010: real time    0.0010
    CHARGE:  cpu time    0.6119: real time    0.6165
    MIXING:  cpu time    0.0240: real time    0.0242
    --------------------------------------------
      LOOP:  cpu time    7.0444: real time    8.6209

 eigenvalue-minimisations  :  1832
 total energy-change (2. order) : 0.4299032E-01  (-0.8721806E-02)
 number of electron     376.0000048 magnetization 
 augmentation part      113.0050803 magnetization 

 Broyden mixing:
  rms(total) = 0.10986E+00    rms(broyden)= 0.10985E+00
  rms(prec ) = 0.14494E+00
  weight for this iteration     100.00

 eigenvalues of (default mixing * dielectric matrix)
  average eigenvalue GAMMA=   0.7232
  2.4206  1.2675  0.8378  0.6652  0.1373  0.3627  0.3265  0.2598  0.2309

 Free energy of the ion-electron system (eV)
  ---------------------------------------------------
  alpha Z        PSCENC =       975.10247152
  Ewald energy   TEWEN  =     90728.90748647
  -Hartree energ DENC   =   -119428.27989068
  -exchange      EXHF   =         0.00000000
  -V(xc)+E(xc)   XCENC  =       178.19832350
  PAW double counting   =     30010.89766941   -29095.73219692
  entropy T*S    EENTRO =        -0.00398985
  eigenvalues    EBANDS =      -858.80550738
  atomic energy  EATOM  =     27259.89416086
  Solvation  Ediel_sol  =         0.00000000
  ---------------------------------------------------
  free energy    TOTEN  =      -229.82147307 eV

  energy without entropy =     -229.81748322  energy(sigma->0) =     -229.82014312


--------------------------------------------------------------------------------------------------------




--------------------------------------- Iteration      1(  15)  ---------------------------------------


    POTLOK:  cpu time    0.2082: real time    0.2757
    SETDIJ:  cpu time    0.0098: real time    0.0151
    EDDIAG:  cpu time    1.7703: real time    1.9699
  RMM-DIIS:  cpu time    4.6526: real time    4.7352
    ORTHCH:  cpu time    0.2515: real time    0.2533
       DOS:  cpu time    0.0011: real time    0.0011
    CHARGE:  cpu time    0.4971: real time    0.5011
    MIXING:  cpu time    0.0082: real time    0.0083
    --------------------------------------------
      LOOP:  cpu time    7.3989: real time    7.7597

 eigenvalue-minimisations  :  1831
 total energy-change (2. order) : 0.9721892E-02  (-0.3537924E-02)
 number of electron     376.0000048 magnetization 
 augmentation part      112.9834212 magnetization 

 Broyden mixing:
  rms(total) = 0.69023E-01    rms(broyden)= 0.68962E-01
  rms(prec ) = 0.84474E-01
  weight for this iteration     100.00

 eigenvalues of (default mixing * dielectric matrix)
  average eigenvalue GAMMA=   0.7035
  2.4591  1.2699  0.8173  0.8173  0.4342  0.1373  0.3093  0.3093  0.2282  0.2528

 Free energy of the ion-electron system (eV)
  ---------------------------------------------------
  alpha Z        PSCENC =       975.10247152
  Ewald energy   TEWEN  =     90728.90748647
  -Hartree energ DENC   =   -119429.75408216
  -exchange      EXHF   =         0.00000000
  -V(xc)+E(xc)   XCENC  =       178.17663130
  PAW double counting   =     30094.75110670   -29180.47313552
  entropy T*S    EENTRO =         0.00184557
  eigenvalues    EBANDS =      -856.41823592
  atomic energy  EATOM  =     27259.89416086
  Solvation  Ediel_sol  =         0.00000000
  ---------------------------------------------------
  free energy    TOTEN  =      -229.81175118 eV

  energy without entropy =     -229.81359675  energy(sigma->0) =     -229.81236637


--------------------------------------------------------------------------------------------------------




--------------------------------------- Iteration      1(  16)  ---------------------------------------


    POTLOK:  cpu time    0.2556: real time    0.2578
    SETDIJ:  cpu time    0.0213: real time    0.0414
    EDDIAG:  cpu time    1.2164: real time    1.2520
  RMM-DIIS:  cpu time    4.6143: real time    5.1180
    ORTHCH:  cpu time    0.1900: real time    0.3588
       DOS:  cpu time    0.0011: real time    0.0011
    CHARGE:  cpu time    0.3595: real time    0.5490
    MIXING:  cpu time    0.0055: real time    0.0056
    --------------------------------------------
      LOOP:  cpu time    6.6636: real time    7.5837

 eigenvalue-minimisations  :  1827
 total energy-change (2. order) : 0.7514306E-02  (-0.7991042E-03)
 number of electron     376.0000048 magnetization 
 augmentation part      112.9860362 magnetization 

 Broyden mixing:
  rms(total) = 0.25384E-01    rms(broyden)= 0.25381E-01
  rms(prec ) = 0.30737E-01
  weight for this iteration     100.00

 eigenvalues of (default mixing * dielectric matrix)
  average eigenvalue GAMMA=   0.6856
  2.4927  1.2728  0.8140  0.8140  0.5375  0.1373  0.3787  0.3095  0.3095  0.2469
  0.2286

 Free energy of the ion-electron system (eV)
  ---------------------------------------------------
  alpha Z        PSCENC =       975.10247152
  Ewald energy   TEWEN  =     90728.90748647
  -Hartree energ DENC   =   -119431.19683384
  -exchange      EXHF   =         0.00000000
  -V(xc)+E(xc)   XCENC  =       178.18450881
  PAW double counting   =     30106.04035898   -29191.85150345
  entropy T*S    EENTRO =         0.00134906
  eigenvalues    EBANDS =      -854.88623529
  atomic energy  EATOM  =     27259.89416086
  Solvation  Ediel_sol  =         0.00000000
  ---------------------------------------------------
  free energy    TOTEN  =      -229.80423687 eV

  energy without entropy =     -229.80558593  energy(sigma->0) =     -229.80468656


--------------------------------------------------------------------------------------------------------




--------------------------------------- Iteration      1(  17)  ---------------------------------------


    POTLOK:  cpu time    0.1388: real time    0.1840
    SETDIJ:  cpu time    0.0206: real time    0.0385
    EDDIAG:  cpu time    1.2795: real time    2.2371
  RMM-DIIS:  cpu time    5.2393: real time    6.2059
    ORTHCH:  cpu time    0.4177: real time    0.4204
       DOS:  cpu time    0.0086: real time    0.0086
    CHARGE:  cpu time    0.5112: real time    0.5145
    MIXING:  cpu time    0.0121: real time    0.0121
    --------------------------------------------
      LOOP:  cpu time    7.6276: real time    9.6211

 eigenvalue-minimisations  :  1820
 total energy-change (2. order) : 0.7260242E-03  (-0.1799439E-03)
 number of electron     376.0000048 magnetization 
 augmentation part      112.9867433 magnetization 

 Broyden mixing:
  rms(total) = 0.14702E-01    rms(broyden)= 0.14699E-01
  rms(prec ) = 0.17647E-01
  weight for this iteration     100.00

 eigenvalues of (default mixing * dielectric matrix)
  average eigenvalue GAMMA=   0.7251
  2.5581  1.2887  1.0619  1.0619  0.7612  0.4488  0.1373  0.3198  0.3198  0.2722
  0.2445  0.2270

 Free energy of the ion-electron system (eV)
  ---------------------------------------------------
  alpha Z        PSCENC =       975.10247152
  Ewald energy   TEWEN  =     90728.90748647
  -Hartree energ DENC   =   -119431.51421544
  -exchange      EXHF   =         0.00000000
  -V(xc)+E(xc)   XCENC  =       178.19006708
  PAW double counting   =     30110.15648238   -29195.98584067
  entropy T*S    EENTRO =         0.00211710
  eigenvalues    EBANDS =      -854.55624015
  atomic energy  EATOM  =     27259.89416086
  Solvation  Ediel_sol  =         0.00000000
  ---------------------------------------------------
  free energy    TOTEN  =      -229.80351085 eV

  energy without entropy =     -229.80562794  energy(sigma->0) =     -229.80421655


--------------------------------------------------------------------------------------------------------




--------------------------------------- Iteration      1(  18)  ---------------------------------------


    POTLOK:  cpu time    0.1908: real time    0.1920
    SETDIJ:  cpu time    0.0193: real time    0.0194
    EDDIAG:  cpu time    2.5556: real time    2.5713
  RMM-DIIS:  cpu time    3.8069: real time    4.8143
    ORTHCH:  cpu time    0.2485: real time    0.2758
       DOS:  cpu time    0.0010: real time    0.0010
    CHARGE:  cpu time    0.4408: real time    0.4433
    MIXING:  cpu time    0.0152: real time    0.0153
    --------------------------------------------
      LOOP:  cpu time    7.2782: real time    8.3326

 eigenvalue-minimisations  :  1809
 total energy-change (2. order) :-0.2425453E-03  (-0.9643469E-04)
 number of electron     376.0000048 magnetization 
 augmentation part      112.9856942 magnetization 

 Broyden mixing:
  rms(total) = 0.13345E-01    rms(broyden)= 0.13345E-01
  rms(prec ) = 0.16941E-01
  weight for this iteration     100.00

 eigenvalues of (default mixing * dielectric matrix)
  average eigenvalue GAMMA=   0.7463
  2.5737  1.7372  1.2797  0.8998  0.8998  0.4589  0.1373  0.3515  0.3200  0.3200
  0.2596  0.2265  0.2383

 Free energy of the ion-electron system (eV)
  ---------------------------------------------------
  alpha Z        PSCENC =       975.10247152
  Ewald energy   TEWEN  =     90728.90748647
  -Hartree energ DENC   =   -119432.45316396
  -exchange      EXHF   =         0.00000000
  -V(xc)+E(xc)   XCENC  =       178.19780905
  PAW double counting   =     30113.64950312   -29199.46274549
  entropy T*S    EENTRO =         0.00214597
  eigenvalues    EBANDS =      -853.64142093
  atomic energy  EATOM  =     27259.89416086
  Solvation  Ediel_sol  =         0.00000000
  ---------------------------------------------------
  free energy    TOTEN  =      -229.80375339 eV

  energy without entropy =     -229.80589936  energy(sigma->0) =     -229.80446872


--------------------------------------------------------------------------------------------------------




--------------------------------------- Iteration      1(  19)  ---------------------------------------


    POTLOK:  cpu time    0.1813: real time    0.1825
    SETDIJ:  cpu time    0.0160: real time    0.0161
    EDDIAG:  cpu time    1.8520: real time    2.1260
  RMM-DIIS:  cpu time    5.5115: real time    5.7815
    ORTHCH:  cpu time    0.4288: real time    0.4312
       DOS:  cpu time    0.0074: real time    0.0074
    --------------------------------------------
      LOOP:  cpu time    7.9970: real time    8.5447

 eigenvalue-minimisations  :  1395
 total energy-change (2. order) : 0.1083839E-04  (-0.4596921E-04)
 number of electron     376.0000048 magnetization 
 augmentation part      112.9856942 magnetization 

 Free energy of the ion-electron system (eV)
  ---------------------------------------------------
  alpha Z        PSCENC =       975.10247152
  Ewald energy   TEWEN  =     90728.90748647
  -Hartree energ DENC   =   -119433.83070117
  -exchange      EXHF   =         0.00000000
  -V(xc)+E(xc)   XCENC  =       178.20627835
  PAW double counting   =     30111.03006902   -29196.76171731
  entropy T*S    EENTRO =         0.00266657
  eigenvalues    EBANDS =      -852.35445686
  atomic energy  EATOM  =     27259.89416086
  Solvation  Ediel_sol  =         0.00000000
  ---------------------------------------------------
  free energy    TOTEN  =      -229.80374255 eV

  energy without entropy =     -229.80640912  energy(sigma->0) =     -229.80463141


--------------------------------------------------------------------------------------------------------




 average (electrostatic) potential at core
  the test charge radii are     0.6991  0.7215  1.2059
  (the norm of the test charge is              1.0000)
       1 -56.3721       2 -74.7716       3 -76.1891       4 -72.3090       5 -72.3240
       6 -72.2944       7 -72.3047       8 -72.3430       9 -72.3230      10 -72.2910
      11 -72.3131      12 -72.3007      13 -72.8874      14 -72.9655      15 -72.9132
      16 -72.9612      17 -72.9412      18 -72.9289      19 -73.0219      20 -72.9499
      21 -72.9804      22 -72.9787      23 -73.0043      24 -72.8973      25 -73.0428
      26 -72.9724      27 -72.9724      28 -72.9152      29 -73.0089      30 -72.8416
      31 -72.6225      32 -72.4985      33 -72.7055      34 -72.3165      35 -72.2893
      36 -73.3709      37 -72.4234      38 -73.2363      39 -72.3804
 
 
 
 E-fermi :   1.0891     XC(G=0):  -6.6194     alpha+bet : -6.8913


 k-point     1 :       0.0000    0.0000    0.0000
  band No.  band energies     occupation 
      1     -22.1049      2.00000
      2     -16.9855      2.00000
      3      -8.9684      2.00000
      4      -8.0815      2.00000
      5      -6.8717      2.00000
      6      -6.0314      2.00000
      7      -5.9491      2.00000
      8      -5.8070      2.00000
      9      -5.6711      2.00000
     10      -5.6391      2.00000
     11      -5.6065      2.00000
     12      -5.5825      2.00000
     13      -5.5309      2.00000
     14      -5.4826      2.00000
     15      -5.4715      2.00000
     16      -5.3846      2.00000
     17      -5.1341      2.00000
     18      -5.0900      2.00000
     19      -5.0747      2.00000
     20      -5.0213      2.00000
     21      -4.9968      2.00000
     22      -4.9471      2.00000
     23      -4.7253      2.00000
     24      -4.6340      2.00000
     25      -4.5907      2.00000
     26      -4.5554      2.00000
     27      -4.5268      2.00000
     28      -4.4751      2.00000
     29      -4.4127      2.00000
     30      -4.3604      2.00000
     31      -4.3336      2.00000
     32      -4.3094      2.00000
     33      -4.2962      2.00000
     34      -4.2374      2.00000
     35      -4.1762      2.00000
     36      -4.1206      2.00000
     37      -4.1129      2.00000
     38      -4.1034      2.00000
     39      -4.0836      2.00000
     40      -4.0650      2.00000
     41      -4.0547      2.00000
     42      -4.0016      2.00000
     43      -3.9838      2.00000
     44      -3.9646      2.00000
     45      -3.9377      2.00000
     46      -3.8700      2.00000
     47      -3.6164      2.00000
     48      -3.5807      2.00000
     49      -3.5189      2.00000
     50      -3.4841      2.00000
     51      -3.4413      2.00000
     52      -3.4291      2.00000
     53      -3.3938      2.00000
     54      -3.3722      2.00000
     55      -3.3519      2.00000
     56      -3.3205      2.00000
     57      -3.2749      2.00000
     58      -3.2055      2.00000
     59      -3.1595      2.00000
     60      -3.1383      2.00000
     61      -3.0134      2.00000
     62      -2.9403      2.00000
     63      -2.8739      2.00000
     64      -2.6774      2.00000
     65      -2.6061      2.00000
     66      -2.5674      2.00000
     67      -2.5567      2.00000
     68      -2.5485      2.00000
     69      -2.5033      2.00000
     70      -2.4839      2.00000
     71      -2.4478      2.00000
     72      -2.4375      2.00000
     73      -2.4066      2.00000
     74      -2.3901      2.00000
     75      -2.3842      2.00000
     76      -2.3645      2.00000
     77      -2.3344      2.00000
     78      -2.3274      2.00000
     79      -2.3084      2.00000
     80      -2.2903      2.00000
     81      -2.2734      2.00000
     82      -2.2571      2.00000
     83      -2.2404      2.00000
     84      -2.2229      2.00000
     85      -2.2126      2.00000
     86      -2.1635      2.00000
     87      -2.1370      2.00000
     88      -2.1220      2.00000
     89      -2.1118      2.00000
     90      -2.0485      2.00000
     91      -2.0338      2.00000
     92      -2.0162      2.00000
     93      -2.0040      2.00000
     94      -1.9500      2.00000
     95      -1.8967      2.00000
     96      -1.8759      2.00000
     97      -1.8410      2.00000
     98      -1.8137      2.00000
     99      -1.8001      2.00000
    100      -1.7713      2.00000
    101      -1.7353      2.00000
    102      -1.6307      2.00000
    103      -1.6219      2.00000
    104      -1.6077      2.00000
    105      -1.5376      2.00000
    106      -1.5337      2.00000
    107      -1.5183      2.00000
    108      -1.5075      2.00000
    109      -1.4823      2.00000
    110      -1.4788      2.00000
    111      -1.4766      2.00000
    112      -1.4511      2.00000
    113      -1.4398      2.00000
    114      -1.3645      2.00000
    115      -1.3012      2.00000
    116      -1.2065      2.00000
    117      -1.1841      2.00000
    118      -1.1198      2.00000
    119      -1.0674      2.00000
    120      -1.0283      2.00000
    121      -0.9995      2.00000
    122      -0.9664      2.00000
    123      -0.9392      2.00000
    124      -0.9043      2.00000
    125      -0.8950      2.00000
    126      -0.8673      2.00000
    127      -0.8122      2.00000
    128      -0.7782      2.00000
    129      -0.6839      2.00000
    130      -0.6732      2.00000
    131      -0.6545      2.00000
    132      -0.6470      2.00000
    133      -0.6317      2.00000
    134      -0.5928      2.00000
    135      -0.4869      2.00000
    136      -0.4615      2.00000
    137      -0.4276      2.00000
    138      -0.3570      2.00000
    139      -0.3444      2.00000
    140      -0.3006      2.00000
    141      -0.2784      2.00000
    142      -0.2540      2.00000
    143      -0.2295      2.00000
    144      -0.1666      2.00000
    145      -0.1345      2.00000
    146      -0.1087      2.00000
    147      -0.0690      2.00000
    148      -0.0657      2.00000
    149      -0.0144      2.00000
    150       0.0267      2.00000
    151       0.0500      2.00000
    152       0.1037      2.00000
    153       0.1182      2.00000
    154       0.1322      2.00000
    155       0.1492      2.00000
    156       0.1761      2.00000
    157       0.2056      2.00000
    158       0.2359      2.00000
    159       0.2593      2.00000
    160       0.2764      2.00000
    161       0.3027      2.00000
    162       0.3221      2.00000
    163       0.3496      2.00000
    164       0.3605      2.00000
    165       0.3726      2.00000
    166       0.4081      2.00002
    167       0.4225      2.00003
    168       0.4569      2.00007
    169       0.4618      2.00009
    170       0.4883      2.00018
    171       0.5187      2.00042
    172       0.5713      2.00154
    173       0.6100      2.00365
    174       0.6217      2.00465
    175       0.6459      2.00748
    176       0.6596      2.00964
    177       0.6753      2.01272
    178       0.6932      2.01707
    179       0.7021      2.01962
    180       0.7196      2.02536
    181       0.7397      2.03308
    182       0.7441      2.03496
    183       0.7854      2.05365
    184       0.7947      2.05774
    185       0.8091      2.06355
    186       0.8133      2.06501
    187       0.8263      2.06875
    188       0.8371      2.07055
    189       0.8405      2.07082
    190       0.8483      2.07078
    191       0.8570      2.06953
    192       0.8731      2.06312
    193       0.8958      2.04256
    194       0.9214      1.99843
    195       0.9396      1.95066
    196       1.0810      1.06864
    197       1.1047      0.86859
    198       1.1600      0.43970
    199       1.1777      0.32534
    200       1.2063      0.17272
    201       1.2267      0.08876
    202       1.2488      0.02080
    203       1.2680     -0.02090
    204       1.4557     -0.02640
    205       1.5204     -0.00934
    206       1.9187     -0.00000
    207       1.9701     -0.00000
    208       2.0718     -0.00000
    209       2.0944     -0.00000
    210       2.1913     -0.00000
    211       2.5005     -0.00000
    212       3.5578     -0.00000
    213       4.0174     -0.00000
    214       4.3061     -0.00000
    215       4.3427     -0.00000
    216       4.3955     -0.00000
    217       4.5453     -0.00000
    218       4.8836     -0.00000
    219       5.4859     -0.00000
    220       5.6788     -0.00000
    221       5.8399     -0.00000
    222       5.8819     -0.00000
    223       5.9174     -0.00000
    224       5.9341     -0.00000
    225       6.0262     -0.00000
    226       6.1592     -0.00000
    227       6.5559      0.00000
    228       6.8160      0.00000

 k-point     2 :       0.5000    0.0000    0.0000
  band No.  band energies     occupation 
      1     -22.1047      2.00000
      2     -16.9851      2.00000
      3      -8.9621      2.00000
      4      -7.2514      2.00000
      5      -7.1665      2.00000
      6      -6.1536      2.00000
      7      -6.1058      2.00000
      8      -5.9484      2.00000
      9      -5.8141      2.00000
     10      -5.6744      2.00000
     11      -5.6231      2.00000
     12      -5.4786      2.00000
     13      -5.3785      2.00000
     14      -5.2389      2.00000
     15      -5.0262      2.00000
     16      -4.9461      2.00000
     17      -4.8986      2.00000
     18      -4.8568      2.00000
     19      -4.8476      2.00000
     20      -4.8227      2.00000
     21      -4.7861      2.00000
     22      -4.7658      2.00000
     23      -4.7557      2.00000
     24      -4.7199      2.00000
     25      -4.7115      2.00000
     26      -4.6970      2.00000
     27      -4.6371      2.00000
     28      -4.6030      2.00000
     29      -4.5757      2.00000
     30      -4.5563      2.00000
     31      -4.3813      2.00000
     32      -4.3302      2.00000
     33      -4.3042      2.00000
     34      -4.3002      2.00000
     35      -4.2308      2.00000
     36      -4.1612      2.00000
     37      -4.0741      2.00000
     38      -4.0529      2.00000
     39      -4.0326      2.00000
     40      -4.0039      2.00000
     41      -3.9270      2.00000
     42      -3.9144      2.00000
     43      -3.8521      2.00000
     44      -3.8146      2.00000
     45      -3.7530      2.00000
     46      -3.7165      2.00000
     47      -3.6991      2.00000
     48      -3.6865      2.00000
     49      -3.6257      2.00000
     50      -3.6023      2.00000
     51      -3.5038      2.00000
     52      -3.4666      2.00000
     53      -3.4372      2.00000
     54      -3.3834      2.00000
     55      -3.3608      2.00000
     56      -3.3304      2.00000
     57      -3.2623      2.00000
     58      -3.1972      2.00000
     59      -3.1788      2.00000
     60      -3.0987      2.00000
     61      -3.0807      2.00000
     62      -3.0681      2.00000
     63      -3.0261      2.00000
     64      -2.9964      2.00000
     65      -2.9526      2.00000
     66      -2.8960      2.00000
     67      -2.8620      2.00000
     68      -2.8450      2.00000
     69      -2.8396      2.00000
     70      -2.7871      2.00000
[...]
     89      -2.1371      2.00000
     90      -2.1307      2.00000
     91      -2.0834      2.00000
     92      -2.0708      2.00000
     93      -2.0424      2.00000
     94      -1.9911      2.00000
     95      -1.9598      2.00000
     96      -1.9372      2.00000
     97      -1.8827      2.00000
     98      -1.8401      2.00000
     99      -1.8283      2.00000
    100      -1.8146      2.00000
    101      -1.7627      2.00000
    102      -1.7476      2.00000
    103      -1.7073      2.00000
    104      -1.6990      2.00000
    105      -1.6875      2.00000
    106      -1.6675      2.00000
    107      -1.6542      2.00000
    108      -1.6278      2.00000
    109      -1.5990      2.00000
    110      -1.5467      2.00000
    111      -1.5140      2.00000
    112      -1.4632      2.00000
    113      -1.4414      2.00000
    114      -1.3792      2.00000
    115      -1.2890      2.00000
    116      -1.2763      2.00000
    117      -1.2074      2.00000
    118      -1.1774      2.00000
    119      -1.1344      2.00000
    120      -1.0991      2.00000
    121      -1.0836      2.00000
    122      -1.0327      2.00000
    123      -1.0127      2.00000
    124      -0.9882      2.00000
    125      -0.9691      2.00000
    126      -0.9489      2.00000
    127      -0.9300      2.00000
    128      -0.9128      2.00000
    129      -0.9075      2.00000
    130      -0.8883      2.00000
    131      -0.8400      2.00000
    132      -0.8002      2.00000
    133      -0.7536      2.00000
    134      -0.7282      2.00000
    135      -0.7116      2.00000
    136      -0.6794      2.00000
    137      -0.6773      2.00000
    138      -0.6429      2.00000
    139      -0.5854      2.00000
    140      -0.5477      2.00000
    141      -0.4750      2.00000
    142      -0.4456      2.00000
    143      -0.3692      2.00000
    144      -0.2955      2.00000
    145      -0.2683      2.00000
    146      -0.1812      2.00000
    147      -0.1593      2.00000
    148      -0.1162      2.00000
    149      -0.0945      2.00000
    150      -0.0585      2.00000
    151      -0.0275      2.00000
    152       0.0453      2.00000
    153       0.0643      2.00000
    154       0.0904      2.00000
    155       0.0974      2.00000
    156       0.1000      2.00000
    157       0.1213      2.00000
    158       0.1771      2.00000
    159       0.2106      2.00000
    160       0.2277      2.00000
    161       0.2632      2.00000
    162       0.3047      2.00000
    163       0.3290      2.00000
    164       0.3545      2.00000
    165       0.3748      2.00000
    166       0.4068      2.00001
    167       0.5347      2.00043
    168       0.5919      2.00177
    169       0.6059      2.00244
    170       0.6311      2.00419
    171       0.6482      2.00592
    172       0.6846      2.01163
    173       0.7101      2.01773
    174       0.7921      2.05007
    175       0.7981      2.05283
    176       0.8163      2.06072
    177       0.8554      2.07084
    178       0.8710      2.06964
    179       0.9171      2.03329
    180       0.9323      2.00628
    181       0.9411      1.98637
    182       1.0142      1.67916
    183       1.0529      1.41426
    184       1.0931      1.08840
    185       1.0997      1.03313
    186       1.1080      0.96289
    187       1.1285      0.79080
    188       1.1664      0.49682
    189       1.1740      0.44333
    190       1.1943      0.31321
    191       1.2942     -0.03907
    192       1.3438     -0.07073
    193       1.3702     -0.06782
    194       1.3926     -0.06002
    195       1.4298     -0.04326
    196       1.5028     -0.01619
    197       1.5998     -0.00252
    198       1.7327     -0.00008
    199       1.8296     -0.00000
    200       1.9868     -0.00000
    201       2.2590     -0.00000
    202       2.3323     -0.00000
    203       2.7831     -0.00000
    204       2.9614     -0.00000
    205       2.9773     -0.00000
    206       3.0055     -0.00000
    207       3.0190     -0.00000
    208       3.2104     -0.00000
    209       3.3886     -0.00000
    210       3.5264     -0.00000
    211       3.5713     -0.00000
    212       3.5961     -0.00000
    213       3.7287     -0.00000
    214       3.8086     -0.00000
    215       3.9890     -0.00000
    216       4.1678     -0.00000
    217       4.2284     -0.00000
    218       4.3954     -0.00000
    219       4.4697     -0.00000
    220       4.5993     -0.00000
    221       4.6638     -0.00000
    222       4.8306     -0.00000
    223       5.1738     -0.00000
    224       5.5485     -0.00000
    225       5.8760     -0.00000
    226       6.5294     -0.00000
    227       6.5538     -0.00000
    228       6.6209      0.00000


--------------------------------------------------------------------------------------------------------


 soft charge-density along one line, spin component           1
         0         1         2         3         4         5         6         7         8         9
 total charge-density along one line
 
 pseudopotential strength for first ion, spin component:           1
 10.094   0.015   0.004   0.010   0.001  -0.004  -0.009  -0.000
  0.015  -0.002  -0.000  -0.000  -0.000  -0.000  -0.000   0.000
  0.004  -0.000  -4.245  -0.007   0.001  -0.010  -0.003  -0.000
  0.010  -0.000  -0.007  -4.260   0.002  -0.003  -0.016   0.000
  0.001  -0.000   0.001   0.002  -4.242  -0.000   0.000  -0.009
 -0.004  -0.000  -0.010  -0.003  -0.000  -0.770  -0.000   0.000
 -0.009  -0.000  -0.003  -0.016   0.000  -0.000  -0.770   0.000
 -0.000   0.000  -0.000   0.000  -0.009   0.000   0.000  -0.770
 total augmentation occupancy for first ion, spin component:           1
  1.640  -0.856   0.009  -0.004  -0.052   0.038   0.079  -0.015
 -0.856   1.188  -0.238  -0.522   0.042  -0.093  -0.220   0.013
  0.009  -0.238   0.860   0.206   0.015   0.117   0.058  -0.001
 -0.004  -0.522   0.206   1.307   0.026   0.058   0.243   0.000
 -0.052   0.042   0.015   0.026   0.783  -0.001  -0.000   0.096
  0.038  -0.093   0.117   0.058  -0.001   0.021   0.023  -0.002
  0.079  -0.220   0.058   0.243  -0.000   0.023   0.069  -0.002
 -0.015   0.013  -0.001   0.000   0.096  -0.002  -0.002   0.013


------------------------ aborting loop because EDIFF is reached ----------------------------------------


    CHARGE:  cpu time    0.7708: real time    0.8880
    FORLOC:  cpu time    0.0804: real time    0.0809
    FORNL :  cpu time    4.7650: real time    4.7961
    STRESS:  cpu time   11.9828: real time   12.0550
    FORCOR:  cpu time    0.4558: real time    0.4582
    FORHAR:  cpu time    0.1461: real time    0.1470
    MIXING:  cpu time    0.0275: real time    0.0277
    OFIELD:  cpu time    0.0000: real time    0.0000

  FORCE on cell =-STRESS in cart. coord.  units (eV):
  Direction    XX          YY          ZZ          XY          YZ          ZX
  --------------------------------------------------------------------------------------
  Alpha Z   975.10247   975.10247   975.10247
  Ewald  110618.40386110632.29728************  -171.74481   255.38381   -68.65569
  Hartree117387.07163117364.82188************  -113.93284   106.05396   -47.12132
  E(xc)   -1665.53890 -1665.21158 -1672.97726    -0.41914     0.72318    -0.15781
  Local  ************************238694.22149   276.34787  -336.70072   112.09725
  n-local   122.97621   121.28466    85.99949    -1.45156     1.29799    -0.09653
  augment  1894.87929  1892.77197  1934.40626     2.79844    -4.39998     0.75217
  Kinetic  5522.82455  5510.69456  5601.96813     8.77023   -22.28984     4.41464
  Fock        0.00000     0.00000     0.00000     0.00000     0.00000     0.00000
  -------------------------------------------------------------------------------------
  Total     -36.84522   -40.24154    -6.82660     0.36818     0.06841     1.23271
  in kB     -43.88327   -47.92834    -8.13060     0.43851     0.08147     1.46818
  external pressure =      -33.31 kB  Pullay stress =        0.00 kB


 VOLUME and BASIS-vectors are now :
 -----------------------------------------------------------------------------
  energy-cutoff  :      450.00
  volume of cell :     1345.22
      direct lattice vectors                 reciprocal lattice vectors
     7.296955120 -4.212899000  0.000000000     0.137043463  0.000000000  0.000000000
     0.000000000  8.425798000  0.000000000     0.068521732  0.118683121  0.000000000
     0.000000000  0.000000000 21.879635000     0.000000000  0.000000000  0.045704602

  length of vectors
     8.425798004  8.425798000 21.879635000     0.137043463  0.137043463  0.045704602


 FORCES acting on ions
    electron-ion (+dipol)            ewald-force                    non-local-force                 convergence-correction
 -----------------------------------------------------------------------------------------------
   0.302E+02 0.319E+02 -.887E+03   -.317E+02 -.367E+02 0.876E+03   0.140E+01 0.440E+01 0.109E+02   0.141E-01 -.149E-01 0.990E-02
   -.834E+02 0.451E+02 -.159E+04   0.846E+02 -.408E+02 0.161E+04   -.622E+00 -.389E+01 -.234E+02   0.298E-01 0.568E-02 0.143E-02
   0.445E+02 -.110E+03 -.154E+04   -.478E+02 0.133E+03 0.160E+04   0.331E+01 -.235E+02 -.568E+02   0.203E-01 -.219E-01 -.310E-02
   0.178E+00 0.207E+00 0.234E+04   -.214E+00 -.214E+00 -.233E+04   0.190E-01 -.433E-01 -.119E+01   0.431E-01 0.133E-01 -.197E-02
   0.186E+00 0.370E+00 0.234E+04   -.185E+00 -.363E+00 -.233E+04   -.243E-01 -.459E-01 -.110E+01   -.207E-01 0.157E-01 -.149E-01
   -.937E-01 0.378E-01 0.234E+04   0.329E-01 -.450E-01 -.233E+04   0.219E-01 -.183E-01 -.114E+01   0.104E-01 0.279E-01 -.140E-01
   0.186E+00 -.611E-01 0.234E+04   -.192E+00 0.115E+00 -.233E+04   0.353E-02 0.126E-01 -.118E+01   0.158E-01 -.472E-02 -.491E-02
   0.151E+00 0.592E-01 0.234E+04   -.128E+00 -.404E-01 -.234E+04   0.973E-02 0.196E-01 -.128E+01   -.427E-01 -.190E-01 -.150E-01
   -.266E+00 0.190E+00 0.234E+04   0.270E+00 -.171E+00 -.233E+04   0.169E-01 0.660E-02 -.121E+01   0.927E-03 -.212E-01 -.274E-01
   0.226E+00 -.520E+00 0.234E+04   -.113E+00 0.398E+00 -.233E+04   -.744E-01 0.895E-01 -.107E+01   -.414E-01 0.337E-02 -.138E-01
   -.344E+00 -.150E+00 0.234E+04   0.364E+00 0.218E+00 -.233E+04   -.112E-01 -.269E-01 -.124E+01   0.670E-02 -.658E-02 -.229E-01
   -.167E+00 -.758E-01 0.234E+04   0.165E+00 0.960E-01 -.233E+04   -.146E-01 0.424E-03 -.102E+01   0.279E-01 -.866E-02 -.138E-01
   0.324E+00 -.132E+01 0.851E+03   -.423E+00 0.129E+01 -.851E+03   0.632E-01 -.130E-01 -.307E+00   -.143E-01 0.151E-01 -.335E-01
   -.250E+01 -.132E+01 0.857E+03   0.238E+01 0.134E+01 -.857E+03   0.148E+00 -.353E-02 -.163E+00   -.431E-02 0.218E-01 -.115E-01
   0.725E+00 -.956E+00 0.855E+03   -.638E+00 0.808E+00 -.854E+03   -.100E+00 0.701E-01 -.194E+00   0.567E-01 0.300E-01 -.212E-01
   0.101E+01 0.294E+01 0.858E+03   -.100E+01 -.300E+01 -.857E+03   0.716E-02 0.324E-02 -.238E+00   -.341E-01 0.152E-02 -.358E-01
   -.934E+00 0.308E+01 0.857E+03   0.881E+00 -.303E+01 -.856E+03   0.103E+00 -.106E+00 -.208E+00   -.153E-01 -.789E-02 -.438E-01
   0.211E+01 0.750E+00 0.856E+03   -.215E+01 -.750E+00 -.855E+03   -.384E-01 0.282E-02 -.148E+00   0.418E-01 -.564E-02 -.221E-01
   0.174E+01 -.112E+01 0.858E+03   -.168E+01 0.127E+01 -.858E+03   -.622E-01 -.106E+00 -.257E+00   -.378E-01 -.162E-01 -.421E-01
   -.193E+01 -.279E+00 0.859E+03   0.198E+01 0.307E+00 -.859E+03   0.478E-01 -.262E-01 -.329E+00   -.320E-01 -.135E-01 -.519E-01
   -.607E+00 0.685E+00 0.856E+03   0.629E+00 -.501E+00 -.856E+03   0.197E-02 -.110E+00 -.193E+00   0.389E-01 -.249E-01 -.616E-01
   -.103E+00 0.565E+00 -.630E+03   0.454E-01 -.574E+00 0.629E+03   0.553E-01 0.184E-01 0.483E+00   -.357E-01 -.280E-01 -.566E-02
   0.106E+01 -.610E+00 -.627E+03   -.103E+01 0.657E+00 0.626E+03   -.262E-01 -.803E-01 0.403E+00   -.303E-01 0.361E-01 -.870E-02
   -.149E+01 -.641E-01 -.652E+03   0.120E+01 0.350E+00 0.652E+03   0.236E+00 -.337E+00 0.127E+00   0.505E-01 0.418E-01 0.624E-02
   -.425E+01 0.112E+02 -.630E+03   0.375E+01 -.105E+02 0.631E+03   0.547E+00 -.651E+00 -.491E+00   -.122E-01 0.229E-01 -.406E-02
   0.996E+01 0.860E+00 -.629E+03   -.923E+01 -.994E+00 0.629E+03   -.746E+00 0.169E+00 -.124E+00   -.101E-02 -.566E-03 0.221E-01
   -.532E+01 -.103E+02 -.633E+03   0.515E+01 0.101E+02 0.633E+03   0.140E+00 0.212E+00 0.218E+00   0.133E-01 -.597E-02 -.192E-01
   -.305E+01 -.288E+01 -.634E+03   0.306E+01 0.285E+01 0.634E+03   -.193E-01 0.634E-01 0.329E+00   0.388E-01 0.142E-01 0.128E-01
   0.139E+01 -.541E+00 -.621E+03   -.130E+01 0.533E+00 0.621E+03   -.993E-01 0.739E-01 0.383E+00   -.385E-01 -.412E-01 -.156E-01
   0.810E+00 0.178E+01 -.639E+03   -.856E+00 -.194E+01 0.639E+03   -.190E-01 0.186E+00 0.151E+00   0.273E-01 -.487E-01 0.236E-01
   -.209E+02 -.625E+01 -.214E+04   0.215E+02 0.655E+01 0.214E+04   -.642E+00 -.216E+00 0.145E+01   -.487E-01 -.391E-01 0.599E-01
   0.170E+02 0.242E+02 -.214E+04   -.174E+02 -.249E+02 0.214E+04   0.352E+00 0.732E+00 0.137E+01   0.395E-01 0.235E-01 0.709E-01
   0.290E+02 -.100E+02 -.211E+04   -.294E+02 0.100E+02 0.211E+04   0.267E+00 0.731E-01 0.123E+01   -.162E-01 0.563E-02 0.323E-01
   -.588E+01 -.220E+01 -.218E+04   0.573E+01 0.180E+01 0.218E+04   0.349E-01 0.415E+00 0.916E+00   0.330E-01 0.247E-01 0.681E-01
   0.114E+02 0.130E+02 -.217E+04   -.115E+02 -.135E+02 0.217E+04   0.116E+00 0.488E+00 0.841E+00   -.158E-01 0.182E-01 0.736E-01
   0.622E+02 0.616E+02 -.198E+04   -.651E+02 -.598E+02 0.198E+04   0.281E+01 -.172E+01 -.375E+01   0.463E-01 -.116E-01 0.729E-01
   -.509E+02 -.475E+02 -.207E+04   0.523E+02 0.501E+02 0.207E+04   -.148E+01 -.279E+01 0.214E+01   -.789E-02 -.275E-01 0.669E-01
   -.548E+02 0.878E+02 -.203E+04   0.551E+02 -.887E+02 0.203E+04   -.360E+00 0.816E+00 -.895E+00   0.194E-02 0.489E-01 0.234E-01
   0.175E+02 -.632E+02 -.212E+04   -.172E+02 0.644E+02 0.212E+04   -.289E+00 -.112E+01 0.112E+01   -.223E-02 -.456E-01 0.143E+00
 -----------------------------------------------------------------------------------------------
   -.514E+01 0.271E+02 0.756E+02   0.114E-12 -.426E-13 0.455E-12   0.509E+01 -.270E+02 -.758E+02   0.106E+00 -.431E-01 0.179E+00
 
 
 POSITION                                       TOTAL-FORCE (eV/Angst)
 -----------------------------------------------------------------------------------
      5.04021      0.59386     10.40952        -0.136681     -0.468330      0.051055
      6.69465     -0.51101     10.15281         0.607114      0.445971     -0.058788
      4.98142      1.03830     11.48310         0.088467     -0.101059     -0.083065
      7.20031     -1.38846      1.62732         0.023737     -0.039589      0.132418
      2.33567      1.42014      1.62732        -0.045550     -0.026475      0.135450
      4.76799      0.01584      1.62732        -0.030041     -0.000301      0.148306
      7.20031      1.42015      1.62732         0.011930      0.059637      0.121356
      2.33567      4.22875      1.62732        -0.012147      0.016768      0.119271
      4.76799      2.82445      1.62732         0.019838      0.001111      0.143945
      2.33567      7.03734      1.62732        -0.003740     -0.031868      0.062266
      4.76799      5.63304      1.62732         0.013951      0.031380      0.125155
      7.20031      4.22874      1.62732         0.009696      0.009341      0.040742
      1.52490      0.01584      3.92052        -0.051272     -0.026818      0.012572
      3.95722     -1.38846      3.92052         0.027255      0.035340      0.024977
      6.38953     -2.79276      3.92052         0.041469     -0.050936      0.001283
      1.52490      2.82445      3.92052        -0.023105     -0.061864     -0.069548
      3.95722      1.42015      3.92052         0.033222     -0.064602      0.032724
      6.38953      0.01585      3.92052        -0.041487     -0.005121      0.144425
      1.52490      5.63305      3.92052        -0.047261      0.028811     -0.073864
      3.95722      4.22874      3.92052         0.062920     -0.014186     -0.070939
      6.38953      2.82445      3.92052         0.061424      0.045664     -0.067655
      0.71348      4.20118      6.20508        -0.039694     -0.021326      0.003358
      3.15023      5.61968      6.19355        -0.023135      0.000295     -0.047428
      5.56910     -1.38696      6.23983        -0.004720     -0.011406      0.027204
      0.68006      1.42210      6.21862         0.035575      0.067883      0.041697
      3.15895     -0.01851      6.21801        -0.015399      0.031638     -0.055523
      0.71145      7.01292      6.21516        -0.022762     -0.024754     -0.053021
      5.58076      4.20679      6.21153         0.025666      0.039142     -0.114092
      3.16073      2.79682      6.19160        -0.051514      0.022617      0.027281
      5.58635      1.39929      6.23197        -0.038635     -0.025031     -0.111514
      2.37470      4.19384      8.45903        -0.036269      0.046876      0.015011
      4.76422      5.59021      8.48382        -0.032777      0.091983     -0.051108
      2.31871      1.38112      8.44966        -0.071209      0.047286      0.082025
      7.21574      4.17481      8.53879        -0.081359      0.037791     -0.097836
      2.32923      6.97841      8.53688         0.005855      0.018693     -0.176249
      4.63080      0.05098      8.63976        -0.058123      0.060410     -0.139005
      7.26253      1.42782      8.51159        -0.078343     -0.199617     -0.033304
      7.24924     -1.50879      8.58405        -0.079409     -0.030641      0.203474
      4.79537      2.83837      8.53598        -0.043487      0.065288     -0.393057
 -----------------------------------------------------------------------------------
    total drift:                                0.062289      0.105098     -0.015486
  FORCES: max atom, RMS     0.755602    0.179278
  Number: max atom                 2
  FORCE total and by dimension    1.119591    0.607114


--------------------------------------------------------------------------------------------------------



  FREE ENERGIE OF THE ION-ELECTRON SYSTEM (eV)
  ---------------------------------------------------
  free  energy   TOTEN  =      -230.76069301 eV

  energy  without entropy=     -230.74168417  energy(sigma->0) =     -230.75435673
 
 d Force = 0.6514253E-01[ 0.599E-01, 0.704E-01]  d Energy = 0.6540622E-01-0.264E-03
 d Force =-0.9055802E+02[-0.904E+02,-0.907E+02]  d Ewald  =-0.9055845E+02 0.427E-03


--------------------------------------------------------------------------------------------------------


    POTLOK:  cpu time    0.3109: real time    0.4720


--------------------------------------------------------------------------------------------------------


 stress matrix after NEB project (eV)
    -36.84522      0.36818      1.23271
      0.36818    -40.24154      0.06841
      1.23271      0.06841     -6.82660
  FORCES: max atom, RMS     0.755602    0.179278
  FORCE total and by dimension    1.119591    0.607114
  Stress total and by dimension   55.017035   40.241544
 Quasi-Newton relaxation of ions (Broydens 2nd method)
  g(Force)  = 0.242E-01   g(Stress)= 0.000E+00

 retain information from N=  3 steps
 eigenvalues of (default step * inverse Hessian matrix)
  average eigenvalue of G=   3.3518
 eigenvalue spectrum of G is  0.5601  4.7476  4.7476
  RESET_HESSIAN           0


--------------------------------------------------------------------------------------------------------


    WAVPRE:  cpu time    0.0728: real time    0.2995
    FEWALD:  cpu time    0.0041: real time    0.0042

 real space projection operators:
  total allocation   :      13549.61 KBytes
  max/ min on nodes  :       6784.16       6765.45

    ORTHCH:  cpu time    1.6494: real time    1.6857
     LOOP+:  cpu time  122.9078: real time  129.6898


--------------------------------------- Iteration      7(   1)  ---------------------------------------


    POTLOK:  cpu time    0.2862: real time    0.3901
    SETDIJ:  cpu time    0.0308: real time    0.0310
