metal                                   
           1
     7.296955   -4.212899    0.000000
     0.000000    8.425798    0.000000
     0.000000    0.000000   21.879635
   C    O    Pt
   1   2  36
Direct configuration=     1
   0.70252084  0.43331066  0.47511772
   0.90275131  0.38366159  0.46307095
   0.67438430  0.46016655  0.52500625
   0.98675500  0.32859100  0.07437600
   0.32008800  0.32859100  0.07437600
   0.65342200  0.32859100  0.07437600
   0.98675500  0.66192500  0.07437600
   0.32008800  0.66192500  0.07437600
   0.65342200  0.66192500  0.07437600
   0.32008800  0.99525800  0.07437600
   0.65342200  0.99525800  0.07437600
   0.98675500  0.99525800  0.07437600
   0.20897700  0.10636900  0.17918600
   0.54231100  0.10636900  0.17918600
   0.87564400  0.10636900  0.17918600
   0.20897700  0.43970300  0.17918600
   0.54231100  0.43970300  0.17918600
   0.87564400  0.43970300  0.17918600
   0.20897700  0.77303600  0.17918600
   0.54231100  0.77303600  0.17918600
   0.87564400  0.77303600  0.17918600
   0.10113571  0.54518868  0.28670576
   0.42937851  0.88517665  0.28714500
   0.76410617  0.22233817  0.28603503
   0.09130718  0.21560778  0.28520032
   0.43623061  0.21256450  0.28820175
   0.09634448  0.87829554  0.27763072
   0.76286000  0.87737207  0.28771711
   0.43282979  0.54565477  0.28554406
   0.76725648  0.55325213  0.28801862
   0.32614116  0.65834479  0.38269948
   0.65441599  0.98706599  0.38659615
   0.31792820  0.32705094  0.38231496
   0.98722049  0.99562434  0.39261151
   0.32420108  0.98741683  0.39250140
   0.64319710  0.32484189  0.39654975
   0.99198864  0.66346987  0.39085921
   0.99386117  0.31898655  0.38861043
   0.65643096  0.66238528  0.39301636
Direct configuration=     2
   0.70088768  0.43109653  0.47512947
   0.90433037  0.38494614  0.46312442
   0.67557579  0.46113530  0.52524407
   0.98675500  0.32859100  0.07437600
   0.32008800  0.32859100  0.07437600
   0.65342200  0.32859100  0.07437600
   0.98675500  0.66192500  0.07437600
   0.32008800  0.66192500  0.07437600
   0.65342200  0.66192500  0.07437600
   0.32008800  0.99525800  0.07437600
   0.65342200  0.99525800  0.07437600
   0.98675500  0.99525800  0.07437600
   0.20897700  0.10636900  0.17918600
   0.54231100  0.10636900  0.17918600
   0.87564400  0.10636900  0.17918600
   0.20897700  0.43970300  0.17918600
   0.54231100  0.43970300  0.17918600
   0.87564400  0.43970300  0.17918600
   0.20897700  0.77303600  0.17918600
   0.54231100  0.77303600  0.17918600
   0.87564400  0.77303600  0.17918600
   0.09975190  0.54592298  0.28574016
   0.43005078  0.88524622  0.28601487
   0.76377161  0.22141759  0.28570739
   0.09099934  0.21441034  0.28464272
   0.43582714  0.21279683  0.28733506
   0.09652222  0.87892703  0.27918114
   0.76347337  0.87828780  0.28686767
   0.43399705  0.54659231  0.28440708
   0.76706172  0.55226633  0.28740547
   0.32602267  0.65899442  0.38397999
   0.65430083  0.98770846  0.38706605
   0.31823543  0.32556645  0.38341243
   0.98798265  0.99410769  0.39224262
   0.32266538  0.98731174  0.39225439
   0.64158165  0.32424853  0.39623223
   0.99302264  0.66516598  0.39054764
   0.99340690  0.31901388  0.38949924
   0.65694938  0.66295406  0.39290661
Direct configuration=     3
   0.69709125  0.42697672  0.47608920
   0.90781854  0.38808066  0.46342802
   0.67847932  0.46234669  0.52463307
   0.98675500  0.32859100  0.07437600
   0.32008800  0.32859100  0.07437600
   0.65342200  0.32859100  0.07437600
   0.98675500  0.66192500  0.07437600
   0.32008800  0.66192500  0.07437600
   0.65342200  0.66192500  0.07437600
   0.32008800  0.99525800  0.07437600
   0.65342200  0.99525800  0.07437600
   0.98675500  0.99525800  0.07437600
   0.20897700  0.10636900  0.17918600
   0.54231100  0.10636900  0.17918600
   0.87564400  0.10636900  0.17918600
   0.20897700  0.43970300  0.17918600
   0.54231100  0.43970300  0.17918600
   0.87564400  0.43970300  0.17918600
   0.20897700  0.77303600  0.17918600
   0.54231100  0.77303600  0.17918600
   0.87564400  0.77303600  0.17918600
   0.09813713  0.54699825  0.28437409
   0.43108836  0.88470037  0.28431696
   0.76337042  0.21957442  0.28525077
   0.09110486  0.21334199  0.28400849
   0.43477025  0.21333137  0.28584973
   0.09690724  0.88001050  0.28181800
   0.76430170  0.87992207  0.28545608
   0.43488945  0.54785498  0.28303313
   0.76665615  0.55064699  0.28630563
   0.32580640  0.65986537  0.38569023
   0.65393657  0.98869691  0.38770390
   0.31857556  0.32356832  0.38496480
   0.98912788  0.99162405  0.39149554
   0.32027323  0.98723176  0.39163739
   0.63846284  0.32337035  0.39564519
   0.99471673  0.66773139  0.38991920
   0.99317289  0.31889292  0.39079589
   0.65757759  0.66398828  0.39241208
Direct configuration=     4
   0.69598247  0.42467847  0.47541071
   0.90918481  0.38932761  0.46353358
   0.67913628  0.46340048  0.52534064
   0.98675500  0.32859100  0.07437600
   0.32008800  0.32859100  0.07437600
   0.65342200  0.32859100  0.07437600
   0.98675500  0.66192500  0.07437600
   0.32008800  0.66192500  0.07437600
   0.65342200  0.66192500  0.07437600
   0.32008800  0.99525800  0.07437600
   0.65342200  0.99525800  0.07437600
   0.98675500  0.99525800  0.07437600
   0.20897700  0.10636900  0.17918600
   0.54231100  0.10636900  0.17918600
   0.87564400  0.10636900  0.17918600
   0.20897700  0.43970300  0.17918600
   0.54231100  0.43970300  0.17918600
   0.87564400  0.43970300  0.17918600
   0.20897700  0.77303600  0.17918600
   0.54231100  0.77303600  0.17918600
   0.87564400  0.77303600  0.17918600
   0.09773664  0.54729602  0.28399536
   0.43138275  0.88444596  0.28383010
   0.76326307  0.21896019  0.28513289
   0.09125624  0.21319918  0.28386800
   0.43439802  0.21352045  0.28538838
   0.09704137  0.88034620  0.28261184
   0.76452791  0.88042449  0.28502481
   0.43499669  0.54820051  0.28269779
   0.76649699  0.55015158  0.28595246
   0.32573389  0.66010666  0.38615818
   0.65379063  0.98899883  0.38786397
   0.31862820  0.32303212  0.38540593
   0.98941003  0.99090486  0.39123934
   0.31960760  0.98723698  0.39140478
   0.63753232  0.32323516  0.39551947
   0.99519129  0.66837813  0.38970630
   0.99316639  0.31880011  0.39119529
   0.65771086  0.66432578  0.39217210
Direct configuration=     5
   0.69240749  0.41934630  0.47565168
   0.91379786  0.39410782  0.46395833
   0.68158654  0.46440705  0.52505975
   0.98675500  0.32859100  0.07437600
   0.32008800  0.32859100  0.07437600
   0.65342200  0.32859100  0.07437600
   0.98675500  0.66192500  0.07437600
   0.32008800  0.66192500  0.07437600
   0.65342200  0.66192500  0.07437600
   0.32008800  0.99525800  0.07437600
   0.65342200  0.99525800  0.07437600
   0.98675500  0.99525800  0.07437600
   0.20897700  0.10636900  0.17918600
   0.54231100  0.10636900  0.17918600
   0.87564400  0.10636900  0.17918600
   0.20897700  0.43970300  0.17918600
   0.54231100  0.43970300  0.17918600
   0.87564400  0.43970300  0.17918600
   0.20897700  0.77303600  0.17918600
   0.54231100  0.77303600  0.17918600
   0.87564400  0.77303600  0.17918600
   0.09757208  0.54768624  0.28352192
   0.43181728  0.88336686  0.28310577
   0.76317598  0.21746372  0.28507175
   0.09237892  0.21418611  0.28395646
   0.43331162  0.21404742  0.28444157
   0.09740572  0.88101495  0.28400469
   0.76480063  0.88142607  0.28416229
   0.43409463  0.54859931  0.28262548
   0.76594150  0.54916173  0.28514561
   0.32555416  0.66041848  0.38670797
   0.65325114  0.98960918  0.38793388
   0.31830834  0.32252018  0.38608333
   0.98944219  0.98986582  0.39056142
   0.31886980  0.98750644  0.39064131
   0.63530225  0.32313722  0.39511400
   0.99570651  0.66847049  0.38918863
   0.99347577  0.31817821  0.39195241
   0.65756436  0.66511272  0.39107015
Direct configuration=     6
   0.69072785  0.41584511  0.47576302
   0.91745759  0.39808089  0.46403032
   0.68267054  0.46456356  0.52483032
   0.98675500  0.32859100  0.07437600
   0.32008800  0.32859100  0.07437600
   0.65342200  0.32859100  0.07437600
   0.98675500  0.66192500  0.07437600
   0.32008800  0.66192500  0.07437600
   0.65342200  0.66192500  0.07437600
   0.32008800  0.99525800  0.07437600
   0.65342200  0.99525800  0.07437600
   0.98675500  0.99525800  0.07437600
   0.20897700  0.10636900  0.17918600
   0.54231100  0.10636900  0.17918600
   0.87564400  0.10636900  0.17918600
   0.20897700  0.43970300  0.17918600
   0.54231100  0.43970300  0.17918600
   0.87564400  0.43970300  0.17918600
   0.20897700  0.77303600  0.17918600
   0.54231100  0.77303600  0.17918600
   0.87564400  0.77303600  0.17918600
   0.09777845  0.54749879  0.28360080
   0.43171907  0.88282044  0.28307382
   0.76320810  0.21699497  0.28518872
   0.09319830  0.21537814  0.28421938
   0.43291407  0.21426007  0.28419158
   0.09749960  0.88106480  0.28406138
   0.76480683  0.88167812  0.28389553
   0.43315673  0.54851394  0.28298461
   0.76557304  0.54885913  0.28482966
   0.32543713  0.66045614  0.38661654
   0.65290586  0.98991679  0.38774949
   0.31776371  0.32279694  0.38618833
   0.98887057  0.98991512  0.39026193
   0.31920538  0.98782223  0.39017488
   0.63462103  0.32336115  0.39487685
   0.99528202  0.66709956  0.38901900
   0.99346039  0.31766250  0.39233065
   0.65717363  0.66545335  0.39013357
