 vasp.5.4.4 16052018 (build Apr 24 2014 20:13:14) complex standard
 Contain Constrained Minimization Technique (TS), Periodic NBO, VASPsol, libbeef, VASP2WANNIER90, Constrained Cell Relaxation
 executed on Center for Computational Chemistry by phu@node11 date 2025.11.24 21:44:45
 running on    8 total cores
 distrk:  each k-point on    8 cores,    1 groups
 distr:  one band on NCORES_PER_BAND=   2 cores,    4 groups


--------------------------------------------------------------------------------------------------------


 INCAR:
 POTCAR:   PAW_PBE C 08Apr2002                    
 POTCAR:   PAW_PBE O 08Apr2002                    
 POTCAR:    PAW_PBE Pt 04Feb2005                  
 POTCAR:   PAW_PBE C 08Apr2002                    
   VRHFIN =C: s2p2                                                              
   LEXCH  = PE                                                                  
   EATOM  =   147.1560 eV,   10.8157 Ry                                         
                                                                                
   TITEL  = PAW_PBE C 08Apr2002                                                 
   LULTRA =        F    use ultrasoft PP ?                                      
   IUNSCR =        0    unscreen: 0-lin 1-nonlin 2-no                           
   RPACOR =     .000    partial core radius                                     
   POMASS =   12.011; ZVAL   =    4.000    mass and valenz                      
   RCORE  =    1.500    outmost cutoff radius                                   
   RWIGS  =    1.630; RWIGS  =     .863    wigner-seitz radius (au A)           
   ENMAX  =  400.000; ENMIN  =  300.000 eV                                      
   ICORE  =        2    local potential                                         
   LCOR   =        T    correct aug charges                                     
   LPAW   =        T    paw PP                                                  
   EAUG   =  644.873                                                            
   DEXC   =     .000                                                            
   RMAX   =    2.266    core radius for proj-oper                               
   RAUG   =    1.300    factor for augmentation sphere                          
   RDEP   =    1.501    radius for radial grids                                 
   RDEPT  =    1.300    core radius for aug-charge                              
   QCUT   =   -5.516; QGAM   =   11.032    optimization parameters              
                                                                                
   Description                                                                  
     l     E      TYP  RCUT    TYP  RCUT                                        
     0   .000     23  1.200                                                     
     0   .000     23  1.200                                                     
     1   .000     23  1.500                                                     
     1  2.500     23  1.500                                                     
     2   .000      7  1.500                                                     
  local pseudopotential read in
  atomic valenz-charges read in
  non local Contribution for L=           0  read in
    real space projection operators read in
  non local Contribution for L=           0  read in
    real space projection operators read in
  non local Contribution for L=           1  read in
    real space projection operators read in
  non local Contribution for L=           1  read in
    real space projection operators read in
    PAW grid and wavefunctions read in
 
   number of l-projection  operators is LMAX  =           4
   number of lm-projection operators is LMMAX =           8
 
 POTCAR:   PAW_PBE O 08Apr2002                    
   VRHFIN =O: s2p4                                                              
   LEXCH  = PE                                                                  
   EATOM  =   432.3788 eV,   31.7789 Ry                                         
                                                                                
   TITEL  = PAW_PBE O 08Apr2002                                                 
   LULTRA =        F    use ultrasoft PP ?                                      
   IUNSCR =        0    unscreen: 0-lin 1-nonlin 2-no                           
   RPACOR =     .000    partial core radius                                     
   POMASS =   16.000; ZVAL   =    6.000    mass and valenz                      
   RCORE  =    1.520    outmost cutoff radius                                   
   RWIGS  =    1.550; RWIGS  =     .820    wigner-seitz radius (au A)           
   ENMAX  =  400.000; ENMIN  =  300.000 eV                                      
   ICORE  =        2    local potential                                         
   LCOR   =        T    correct aug charges                                     
   LPAW   =        T    paw PP                                                  
   EAUG   =  605.392                                                            
   DEXC   =     .000                                                            
   RMAX   =    2.264    core radius for proj-oper                               
   RAUG   =    1.300    factor for augmentation sphere                          
   RDEP   =    1.550    radius for radial grids                                 
   QCUT   =   -5.520; QGAM   =   11.041    optimization parameters              
                                                                                
   Description                                                                  
     l     E      TYP  RCUT    TYP  RCUT                                        
     0   .000     23  1.200                                                     
     0  -.700     23  1.200                                                     
     1   .000     23  1.520                                                     
     1   .600     23  1.520                                                     
     2   .000      7  1.500                                                     
  local pseudopotential read in
  atomic valenz-charges read in
  non local Contribution for L=           0  read in
    real space projection operators read in
  non local Contribution for L=           0  read in
    real space projection operators read in
  non local Contribution for L=           1  read in
    real space projection operators read in
  non local Contribution for L=           1  read in
    real space projection operators read in
    PAW grid and wavefunctions read in
 
   number of l-projection  operators is LMAX  =           4
   number of lm-projection operators is LMMAX =           8
 
 POTCAR:    PAW_PBE Pt 04Feb2005                  
   VRHFIN =Pt: s1d9                                                             
   LEXCH  = PE                                                                  
   EATOM  =   729.1182 eV,   53.5887 Ry                                         
                                                                                
   TITEL  = PAW_PBE Pt 04Feb2005                                                
   LULTRA =        F    use ultrasoft PP ?                                      
   IUNSCR =        1    unscreen: 0-lin 1-nonlin 2-no                           
   RPACOR =    2.330    partial core radius                                     
   POMASS =  195.080; ZVAL   =   10.000    mass and valenz                      
   RCORE  =    2.600    outmost cutoff radius                                   
   RWIGS  =    2.750; RWIGS  =    1.455    wigner-seitz radius (au A)           
   ENMAX  =  230.283; ENMIN  =  172.712 eV                                      
   ICORE  =        3    local potential                                         
   LCOR   =        T    correct aug charges                                     
   LPAW   =        T    paw PP                                                  
   EAUG   =  358.966                                                            
   DEXC   =     .000                                                            
   RMAX   =    3.038    core radius for proj-oper                               
   RAUG   =    1.300    factor for augmentation sphere                          
   RDEP   =    2.761    radius for radial grids                                 
   QCUT   =   -4.114; QGAM   =    8.228    optimization parameters              
                                                                                
   Description                                                                  
     l     E      TYP  RCUT    TYP  RCUT                                        
     2   .000     23  2.500                                                     
     2   .000     23  2.500                                                     
     0   .000     23  2.500                                                     
     0   .000     23  2.500                                                     
     1  -.200     23  2.600                                                     
     1  1.500     23  2.600                                                     
     3   .000     23  2.500                                                     
  local pseudopotential read in
  partial core-charges read in
  atomic valenz-charges read in
  non local Contribution for L=           2  read in
    real space projection operators read in
  non local Contribution for L=           2  read in
    real space projection operators read in
  non local Contribution for L=           0  read in
    real space projection operators read in
  non local Contribution for L=           0  read in
    real space projection operators read in
  non local Contribution for L=           1  read in
    real space projection operators read in
  non local Contribution for L=           1  read in
    real space projection operators read in
    PAW grid and wavefunctions read in
 
   number of l-projection  operators is LMAX  =           6
   number of lm-projection operators is LMMAX =          18
 
 Optimization of the real space projectors (new method)

 maximal supplied QI-value         = 25.13
 optimisation between [QCUT,QGAM] = [ 10.81, 21.61] = [ 32.71,130.83] Ry 
 Optimized for a Real-space Cutoff    1.23 Angstroem

   l    n(q)    QCUT    max X(q) W(low)/X(q) W(high)/X(q)  e(spline) 
   0      8    10.807     5.582    0.53E-04    0.84E-04    0.44E-07
   0      8    10.807    69.432    0.35E-03    0.71E-03    0.24E-06
   1      7    10.807     2.780    0.44E-04    0.88E-04    0.89E-07
   1      7    10.807     4.549    0.14E-03    0.28E-03    0.13E-06
 Optimization of the real space projectors (new method)

 maximal supplied QI-value         = 24.76
 optimisation between [QCUT,QGAM] = [ 10.64, 21.54] = [ 31.73,129.89] Ry 
 Optimized for a Real-space Cutoff    1.23 Angstroem

   l    n(q)    QCUT    max X(q) W(low)/X(q) W(high)/X(q)  e(spline) 
   0      8    10.645     4.192    0.69E-04    0.93E-04    0.58E-07
   0      8    10.645     8.473    0.40E-03    0.65E-03    0.17E-06
   1      7    10.645     2.474    0.80E-04    0.12E-03    0.30E-07
   1      7    10.645     3.912    0.24E-03    0.53E-03    0.16E-06
 Optimization of the real space projectors (new method)

 maximal supplied QI-value         = 14.36
 optimisation between [QCUT,QGAM] = [ 10.77, 21.69] = [ 32.49,131.70] Ry 
 Optimized for a Real-space Cutoff    1.46 Angstroem

   l    n(q)    QCUT    max X(q) W(low)/X(q) W(high)/X(q)  e(spline) 
   2      9    10.771     3.903    0.38E-04    0.12E-03    0.82E-07
   2      9    10.771    18.372    0.13E-03    0.32E-03    0.28E-06
   0     10    10.771    13.697    0.11E-04    0.86E-05    0.85E-08
   0     10    10.771    65.529    0.40E-04    0.12E-03    0.14E-06
   1      9    10.771     7.604    0.48E-04    0.31E-04    0.38E-07
   1      9    10.771    12.136    0.35E-03    0.16E-03    0.23E-06
 PAW_PBE C 08Apr2002                    :
 energy of atom  1       EATOM= -147.1560
 kinetic energy error for atom=    0.0116 (will be added to EATOM!!)
 PAW_PBE O 08Apr2002                    :
 energy of atom  2       EATOM= -432.3788
 kinetic energy error for atom=    0.0389 (will be added to EATOM!!)
  PAW_PBE Pt 04Feb2005                  :
 energy of atom  3       EATOM= -729.1182
 kinetic energy error for atom=    0.0051 (will be added to EATOM!!)
 
 
 POSCAR: C    O    Pt                            
  positions in direct lattice
  No initial velocities read in
 exchange correlation table for  LEXCH =        8
   RHO(1)=    0.500       N(1)  =     2000
   RHO(2)=  100.500       N(2)  =     4000

 VTST: version 3.2, (02/03/18)

 CHAIN: initializing optimizer
 
 OPT: Using VASP QUASI-newton optimizer
 CHAIN: Read ICHAIN            0
 
 POSCAR: C    O    Pt                            
  positions in direct lattice
  No initial velocities read in
 


--------------------------------------------------------------------------------------------------------


 ion  position               nearest neighbor table
   1  0.699  0.433  0.472-   3 1.16   2 1.93  36 1.98  39 2.78
   2  0.902  0.390  0.462-  38 1.88   1 1.93  36 2.53  37 2.68
   3  0.671  0.460  0.522-   1 1.16
   4  0.987  0.329  0.074-  15 2.81  16 2.81  12 2.81   5 2.81  11 2.81   6 2.81  18 2.81   8 2.81
                             7 2.81
   5  0.320  0.329  0.074-  13 2.81  10 2.81   4 2.81  12 2.81  16 2.81  17 2.81   8 2.81   9 2.81
                             6 2.81
   6  0.653  0.329  0.074-  14 2.81  18 2.81  11 2.81   4 2.81  17 2.81   7 2.81  10 2.81   9 2.81
                             5 2.81
   7  0.987  0.662  0.074-  18 2.81  21 2.81  19 2.81  12 2.81   8 2.81  10 2.81   9 2.81   6 2.81
                             4 2.81
   8  0.320  0.662  0.074-  16 2.81  19 2.81  10 2.81   7 2.81  20 2.81   4 2.81  11 2.81   5 2.81
                             9 2.81
   9  0.653  0.662  0.074-  17 2.81  20 2.81  21 2.81  11 2.81  12 2.81   7 2.81   6 2.81   5 2.81
                             8 2.81
  10  0.320  0.995  0.074-  13 2.81  19 2.81   5 2.81   8 2.81  12 2.81   7 2.81  14 2.81   6 2.81
                            11 2.81
  11  0.653  0.995  0.074-  14 2.81  20 2.81  15 2.81   9 2.81   6 2.81  12 2.81   4 2.81   8 2.81
                            10 2.81
  12  0.987  0.995  0.074-  15 2.81  21 2.81  13 2.81   7 2.81   4 2.81  10 2.81   5 2.81  11 2.81
                             9 2.81
  13  0.209  0.106  0.179-   5 2.81  10 2.81  12 2.81  19 2.81  15 2.81  21 2.81  16 2.81  14 2.81
                            17 2.81  27 2.83  25 2.83  26 2.86
  14  0.542  0.106  0.179-  23 2.77  11 2.81   6 2.81  20 2.81  15 2.81  10 2.81  18 2.81  19 2.81
                            17 2.81  13 2.81  26 2.83  24 2.88
  15  0.876  0.106  0.179-   4 2.81  12 2.81  11 2.81  21 2.81  13 2.81  20 2.81  14 2.81  16 2.81
                            18 2.81  25 2.82  28 2.82  24 2.87
  16  0.209  0.440  0.179-   8 2.81   4 2.81  19 2.81  18 2.81   5 2.81  15 2.81  20 2.81  13 2.81
                            17 2.81  25 2.81  29 2.82  22 2.84
  17  0.542  0.440  0.179-  29 2.77   9 2.81  20 2.81  21 2.81  18 2.81   6 2.81   5 2.81  14 2.81
                            13 2.81  16 2.81  30 2.81  26 2.81
  18  0.876  0.440  0.179-  22 2.80  30 2.80   7 2.81   6 2.81  21 2.81  19 2.81  16 2.81  17 2.81
                             4 2.81  14 2.81  15 2.81  24 2.85
  19  0.209  0.773  0.179-  23 2.76  22 2.80   8 2.81  10 2.81   7 2.81  16 2.81  13 2.81  18 2.81
                            21 2.81  14 2.81  20 2.81  27 2.81
  20  0.542  0.773  0.179-  29 2.78  28 2.79  23 2.81  11 2.81   9 2.81  17 2.81  14 2.81  21 2.81
                            15 2.81   8 2.81  16 2.81  19 2.81
  21  0.876  0.773  0.179-  28 2.78  12 2.81   7 2.81   9 2.81  18 2.81  15 2.81  19 2.81  13 2.81
                            17 2.81  20 2.81  30 2.83  27 2.85
  22  0.094  0.554  0.284-  37 2.63  27 2.75  30 2.76  24 2.77  31 2.80  18 2.80  19 2.80  23 2.80
                            25 2.83  16 2.84  29 2.90  38 2.99
  23  0.426  0.886  0.282-  27 2.72  19 2.76  14 2.77  26 2.79  35 2.80  22 2.80  31 2.81  20 2.81
                            32 2.82  24 2.85  29 2.86  28 2.88
  24  0.768  0.221  0.287-  32 2.77  30 2.77  22 2.77  25 2.78  36 2.79  26 2.79  18 2.85  23 2.85
                            15 2.87  28 2.87  14 2.88  38 2.89
  25  0.098  0.220  0.285-  34 2.75  24 2.78  16 2.81  15 2.82  22 2.83  33 2.83  13 2.83  29 2.83
                            38 2.84  28 2.85  27 2.85  26 2.85
  26  0.437  0.222  0.285-  36 2.72  30 2.75  33 2.75  29 2.78  23 2.79  24 2.79  17 2.81  35 2.82
                            14 2.83  27 2.83  25 2.85  13 2.86
  27  0.102  0.884  0.285-  37 2.66  34 2.70  23 2.72  22 2.75  35 2.77  19 2.81  13 2.83  28 2.83
                            26 2.83  30 2.84  21 2.85  25 2.85
  28  0.764  0.878  0.283-  34 2.73  29 2.75  21 2.78  30 2.79  20 2.79  32 2.82  15 2.82  27 2.83
                            25 2.85  39 2.85  24 2.87  23 2.88
  29  0.437  0.553  0.283-  28 2.75  31 2.77  17 2.77  30 2.77  20 2.78  26 2.78  16 2.82  25 2.83
                            33 2.84  23 2.86  39 2.87  22 2.90
  30  0.764  0.547  0.284-  37 2.72  26 2.75  22 2.76  24 2.77  29 2.77  28 2.79  18 2.80  17 2.81
                            21 2.83  27 2.84  36 2.85  39 2.90
  31  0.326  0.661  0.386-  39 2.74  32 2.76  29 2.77  22 2.80  23 2.81  35 2.81  37 2.81  33 2.82
                            38 2.87
  32  0.649  0.991  0.388-  31 2.76  24 2.77  39 2.77  35 2.78  36 2.81  28 2.82  38 2.82  23 2.82
                            34 2.83
  33  0.327  0.327  0.389-  36 2.67  26 2.75  38 2.78  39 2.80  35 2.80  31 2.82  25 2.83  29 2.84
                            34 2.87
  34  0.984  0.989  0.384-  27 2.70  28 2.73  38 2.74  25 2.75  39 2.77  37 2.78  35 2.82  32 2.83
                            33 2.87
  35  0.320  0.991  0.389-  36 2.73  37 2.76  27 2.77  32 2.78  23 2.80  33 2.80  31 2.81  34 2.82
                            26 2.82
  36  0.640  0.320  0.390-   1 1.98   2 2.53  33 2.67  26 2.72  35 2.73  24 2.79  32 2.81  30 2.85
                            39 2.86  37 2.94  38 2.98
  37  0.994  0.663  0.382-  22 2.63  27 2.66   2 2.68  30 2.72  35 2.76  34 2.78  31 2.81  39 2.89
                            38 2.93  36 2.94
  38  0.992  0.316  0.396-   2 1.88  34 2.74  33 2.78  32 2.82  25 2.84  31 2.87  24 2.89  37 2.93
                            36 2.98  22 2.99
  39  0.653  0.665  0.393-  31 2.74  34 2.77  32 2.77   1 2.78  33 2.80  28 2.85  36 2.86  29 2.87
                            37 2.89  30 2.90
 

IMPORTANT INFORMATION: All symmetrisations will be switched off!
NOSYMM: (Re-)initialisation of all symmetry stuff for point group C_1.

 
 
 KPOINTS: mesh auto                               

Automatic generation of k-mesh.
Space group operators:
 irot       det(A)        alpha          n_x          n_y          n_z        tau_x        tau_y        tau_z
    1     1.000000     0.000000     1.000000     0.000000     0.000000     0.000000     0.000000     0.000000
 
 Subroutine IBZKPT returns following result:
 ===========================================
 
 Found      4 irreducible k-points:
 
 Following reciprocal coordinates:
            Coordinates               Weight
  0.000000  0.000000  0.000000      1.000000
  0.500000  0.000000  0.000000      1.000000
 -0.000000  0.500000  0.000000      1.000000
  0.500000  0.500000  0.000000      1.000000
 
 Following cartesian coordinates:
            Coordinates               Weight
  0.000000  0.000000  0.000000      1.000000
  0.068522  0.000000  0.000000      1.000000
  0.034261  0.059342  0.000000      1.000000
  0.102783  0.059342  0.000000      1.000000
 


--------------------------------------------------------------------------------------------------------




 Dimension of arrays:
   k-points           NKPTS =      4   k-points in BZ     NKDIM =      4   number of bands    NBANDS=    228
   number of dos      NEDOS =    301   number of ions     NIONS =     39
   non local maximal  LDIM  =      6   non local SUM 2l+1 LMDIM =     18
   total plane-waves  NPLWV = 276480
   max r-space proj   IRMAX =   2756   max aug-charges    IRDMAX=  12646
   dimension x,y,z NGX =    48 NGY =   48 NGZ =  120
   dimension x,y,z NGXF=    96 NGYF=   96 NGZF=  240
   support grid    NGXF=    96 NGYF=   96 NGZF=  240
   ions per type =               1   2  36
   NGX,Y,Z   is equivalent  to a cutoff of   9.47,  9.47,  9.12 a.u.
   NGXF,Y,Z  is equivalent  to a cutoff of  18.94, 18.94, 18.24 a.u.

 SYSTEM =  metal                                   
 POSCAR =  C    O    Pt                            

 Startparameter for this run:
   NWRITE =      2    write-flag & timer
   PREC   = normal    normal or accurate (medium, high low for compatibility)
   ISTART =      0    job   : 0-new  1-cont  2-samecut
   ICHARG =      2    charge: 1-file 2-atom 10-const
   ISPIN  =      1    spin polarized calculation?
   LNONCOLLINEAR =      F non collinear calculations
   LSORBIT =      F    spin-orbit coupling
   INIWAV =      1    electr: 0-lowe 1-rand  2-diag
   LASPH  =      F    aspherical Exc in radial PAW
   METAGGA=      F    non-selfconsistent MetaGGA calc.

 Electronic Relaxation 1
   ENCUT  =  450.0 eV  33.07 Ry    5.75 a.u.  14.57 14.57 37.84*2*pi/ulx,y,z
   ENINI  =  450.0     initial cutoff
   ENAUG  =  644.9 eV  augmentation charge cutoff
   NELM   =     60;   NELMIN=  8; NELMDL= -5     # of ELM steps 
   EDIFF  = 0.1E-03   stopping-criterion for ELM
   LREAL  =      T    real-space projection
   NLSPLINE    = F    spline interpolate recip. space projectors
   LCOMPAT=      F    compatible to vasp.4.4
   GGA_COMPAT  = T    GGA compatible to vasp.4.4-vasp.4.6
   LMAXPAW     = -100 max onsite density
   LMAXMIX     =    2 max onsite mixed and CHGCAR
   VOSKOWN=      0    Vosko Wilk Nusair interpolation
   ROPT   =   -0.00050  -0.00050  -0.00050
 Ionic relaxation
   EDIFFG = -.5E-01   stopping-criterion for IOM
   NSW    =   5000    number of steps for IOM
   NBLOCK =      1;   KBLOCK =   5000    inner block; outer block 
   IBRION =      1    ionic relax: 0-MD 1-quasi-New 2-CG
   NFREE  =      0    steps in history (QN), initial steepest desc. (CG)
   ISIF   =      2    stress and relaxation
   IWAVPR =     11    prediction:  0-non 1-charg 2-wave 3-comb
   ISYM   =      0    0-nonsym 1-usesym 2-fastsym
   LCORR  =      T    Harris-Foulkes like correction to forces

   POTIM  = 0.2000    time-step for ionic-motion
   TEIN   =    0.0    initial temperature
   TEBEG  =    0.0;   TEEND  =   0.0 temperature during run
   SMASS  =  -3.00    Nose mass-parameter (am)
   estimated Nose-frequenzy (Omega)   =  0.10E-29 period in steps =****** mass=  -0.162E-26a.u.
   SCALEE = 1.0000    scale energy and forces
   NPACO  =    256;   APACO  = 16.0  distance and # of slots for P.C.
   PSTRESS=    0.0 pullay stress

  Mass of Ions in am
   POMASS =  12.01 16.00195.08
  Ionic Valenz
   ZVAL   =   4.00  6.00 10.00
  Atomic Wigner-Seitz radii
   RWIGS  =  -1.00 -1.00 -1.00
  virtual crystal weights 
   VCA    =   1.00  1.00  1.00
   NELECT =     376.0000    total number of electrons
   NUPDOWN=      -1.0000    fix difference up-down

 DOS related values:
   EMIN   =  10.00;   EMAX   =-10.00  energy-range for DOS
   EFERMI =   0.00
   ISMEAR =     1;   SIGMA  =   0.20  broadening in eV -4-tet -1-fermi 0-gaus

 Electronic relaxation 2 (details)
   IALGO  =     68    algorithm
   LDIAG  =      T    sub-space diagonalisation (order eigenvalues)
   LSUBROT=      F    optimize rotation matrix (better conditioning)
   TURBO    =      0    0=normal 1=particle mesh
   IRESTART =      0    0=no restart 2=restart with 2 vectors
   NREBOOT  =      0    no. of reboots
   NMIN     =      0    reboot dimension
   EREF     =   0.00    reference energy to select bands
   IMIX   =      4    mixing-type and parameters
     AMIX     =   0.40;   BMIX     =  1.00
     AMIX_MAG =   1.60;   BMIX_MAG =  1.00
     AMIN     =   0.10
     WC   =   100.;   INIMIX=   1;  MIXPRE=   1;  MAXMIX= -45

 Intra band minimization:
   WEIMIN = 0.0010     energy-eigenvalue tresh-hold
   EBREAK =  0.11E-06  absolut break condition
   DEPER  =   0.30     relativ break condition  

   TIME   =   0.40     timestep for ELM

  volume/ion in A,a.u.               =      34.49       232.77
  Fermi-wavevector in a.u.,A,eV,Ry     =   1.070385  2.022734 15.588510  1.145723
  Thomas-Fermi vector in A             =   2.206093
 
 Write flags
   LWAVE        =      F    write WAVECAR
   LDOWNSAMPLE  =      F    k-point downsampling of WAVECAR
   LCHARG       =      F    write CHGCAR
   LVTOT        =      F    write LOCPOT, total local potential
   LVHAR        =      F    write LOCPOT, Hartree potential only
   LELF         =      F    write electronic localiz. function (ELF)
   LORBIT       =      0    0 simple, 1 ext, 2 COOP (PROOUT), +10 PAW based schemes


 Dipole corrections
   LMONO  =      F    monopole corrections only (constant potential shift)
   LDIPOL =      F    correct potential (dipole corrections)
   IDIPOL =      0    1-x, 2-y, 3-z, 4-all directions 
   EPSILON=  1.0000000 bulk dielectric constant

 Exchange correlation treatment:
   GGA     =    --    GGA type
   LEXCH   =     8    internal setting for exchange type
   VOSKOWN=      0    Vosko Wilk Nusair interpolation
   LHFCALC =     F    Hartree Fock is set to
   LHFONE  =     F    Hartree Fock one center treatment
   AEXX    =    0.0000 exact exchange contribution

 Linear response parameters
   LEPSILON=     F    determine dielectric tensor
   LRPA    =     F    only Hartree local field effects (RPA)
   LNABLA  =     F    use nabla operator in PAW spheres
   LVEL    =     F    velocity operator in full k-point grid
   LINTERFAST=   F  fast interpolation
   KINTER  =     0    interpolate to denser k-point grid
   CSHIFT  =0.1000    complex shift for real part using Kramers Kronig
   OMEGAMAX=  -1.0    maximum frequency
   DEG_THRESHOLD= 0.2000000E-02 threshold for treating states as degnerate
   RTIME   =   -0.100 relaxation time in fs
  (WPLASMAI=    0.000 imaginary part of plasma frequency in eV, 0.658/RTIME)
   DFIELD  = 0.0000000 0.0000000 0.0000000 field for delta impulse in time
 
 Orbital magnetization related:
   ORBITALMAG=     F  switch on orbital magnetization
   LCHIMAG   =     F  perturbation theory with respect to B field
   DQ        =  0.001000  dq finite difference perturbation B field
   LLRAUG    =     F  two centre corrections for induced B field



--------------------------------------------------------------------------------------------------------


 quasi-Newton-method for relaxation of ions
   using selective dynamics as specified on POSCAR
 charge density and potential will be updated during run
 non-spin polarized calculation
 RMM-DIIS sequential band-by-band and
  variant of blocked Davidson during initial phase
 perform sub-space diagonalisation
    before iterative eigenvector-optimisation
 modified Broyden-mixing scheme, WC =      100.0
 initial mixing is a Kerker type mixing with AMIX =  0.4000 and BMIX =      1.0000
 Hartree-type preconditioning will be used
 using additional bands           40
 real space projection scheme for non local part
 use partial core corrections
 calculate Harris-corrections to forces 
   (improved forces if not selfconsistent)
 use gradient corrections 
 use of overlap-Matrix (Vanderbilt PP)
 Methfessel and Paxton  Order N= 1 SIGMA  =   0.20


--------------------------------------------------------------------------------------------------------


  energy-cutoff  :      450.00
  volume of cell :     1345.22
      direct lattice vectors                 reciprocal lattice vectors
     7.296955120 -4.212899000  0.000000000     0.137043463  0.000000000  0.000000000
     0.000000000  8.425798000  0.000000000     0.068521732  0.118683121  0.000000000
     0.000000000  0.000000000 21.879635000     0.000000000  0.000000000  0.045704602

  length of vectors
     8.425798004  8.425798000 21.879635000     0.137043463  0.137043463  0.045704602


 
 k-points in units of 2pi/SCALE and weight: mesh auto                               
   0.00000000  0.00000000  0.00000000       0.250
   0.06852173  0.00000000  0.00000000       0.250
   0.03426087  0.05934156  0.00000000       0.250
   0.10278260  0.05934156  0.00000000       0.250
 
 k-points in reciprocal lattice and weights: mesh auto                               
   0.00000000  0.00000000  0.00000000       0.250
   0.50000000  0.00000000  0.00000000       0.250
  -0.00000000  0.50000000  0.00000000       0.250
   0.50000000  0.50000000  0.00000000       0.250
 
 position of ions in fractional coordinates (direct lattice) 
   0.69904970  0.43316154  0.47179985
   0.90166550  0.38959586  0.46166061
   0.67091315  0.46001742  0.52168839
   0.98675500  0.32859100  0.07437600
   0.32008800  0.32859100  0.07437600
   0.65342200  0.32859100  0.07437600
   0.98675500  0.66192500  0.07437600
   0.32008800  0.66192500  0.07437600
   0.65342200  0.66192500  0.07437600
   0.32008800  0.99525800  0.07437600
   0.65342200  0.99525800  0.07437600
   0.98675500  0.99525800  0.07437600
   0.20897700  0.10636900  0.17918600
   0.54231100  0.10636900  0.17918600
   0.87564400  0.10636900  0.17918600
   0.20897700  0.43970300  0.17918600
   0.54231100  0.43970300  0.17918600
   0.87564400  0.43970300  0.17918600
   0.20897700  0.77303600  0.17918600
   0.54231100  0.77303600  0.17918600
   0.87564400  0.77303600  0.17918600
   0.09395895  0.55350640  0.28427974
   0.42624359  0.88641078  0.28221883
   0.76819436  0.22148521  0.28712956
   0.09756778  0.21982169  0.28459783
   0.43709667  0.22222121  0.28538316
   0.10227788  0.88415538  0.28513212
   0.76354694  0.87821869  0.28333898
   0.43741742  0.55265192  0.28296594
   0.76393025  0.54745864  0.28427269
   0.32593747  0.66095530  0.38602714
   0.64948268  0.99149035  0.38756916
   0.32715304  0.32713810  0.38875011
   0.98429260  0.98863453  0.38387725
   0.31969482  0.99115163  0.38884614
   0.63998026  0.31956981  0.38975489
   0.99357851  0.66311025  0.38200808
   0.99217271  0.31625324  0.39571079
   0.65308728  0.66478188  0.39264852
 
 position of ions in cartesian coordinates  (Angst):
   5.10093426  0.70470583 10.32280861
   6.57941270 -0.51596967 10.10096572
   4.89562315  1.04952450 11.41435148
   7.20030695 -1.38845776  1.62731973
   2.33566777  1.42014298  1.62731973
   4.76799101  0.01584050  1.62731973
   7.20030695  1.42014719  1.62731973
   2.33566777  4.22874793  1.62731973
   4.76799101  2.82444545  1.62731973
   2.33566777  7.03734445  1.62731973
   4.76799101  5.63304198  1.62731973
   7.20030695  4.22874371  1.62731973
   1.52489579  0.01584471  3.92052428
   3.95721903 -1.38845776  3.92052428
   6.38953497 -2.79275602  3.92052428
   1.52489579  2.82444966  3.92052428
   3.95721903  1.42014719  3.92052428
   6.38953497  0.01584893  3.92052428
   1.52489579  5.63304619  3.92052428
   3.95721903  4.22874371  3.92052428
   6.38953497  2.82444545  3.92052428
   0.68561425  4.26789357  6.21993702
   3.11028035  5.67299695  6.17484506
   5.60547980 -1.37013567  6.28228997
   0.71194771  1.44112999  6.22689661
   3.18947481  0.03094690  6.24407945
   0.74631708  7.01882828  6.23858669
   5.57156775  4.18294717  6.19935352
   3.19181530  2.81373800  6.19119157
   5.57436474  1.39441496  6.21978279
   2.37835111  4.19593418  8.44613283
   4.73924598  5.61789245  8.47987167
   2.38722103  1.37813688  8.50571050
   7.18233890  4.18330957  8.39909404
   2.33279874  7.00440146  8.50781168
   4.66990725 -0.00354156  8.52769478
   7.25009778  1.40138711  8.35819737
   7.23983974 -1.51523751  8.65800767
   4.76554855  2.84992713  8.59100641
 


--------------------------------------------------------------------------------------------------------


 k-point  1 :   0.0000 0.0000 0.0000  plane waves:   29241
 k-point  2 :   0.5000 0.0000 0.0000  plane waves:   29108
 k-point  3 :  -0.0000 0.5000 0.0000  plane waves:   29108
 k-point  4 :   0.5000 0.5000 0.0000  plane waves:   29108

 maximum and minimum number of plane-waves per node :     14624    14548

 maximum number of plane-waves:     29241
 maximum index in each direction: 
   IXMAX=   14   IYMAX=   14   IZMAX=   37
   IXMIN=  -15   IYMIN=  -15   IZMIN=  -37


 real space projection operators:
  total allocation   :      13550.62 KBytes
  max/ min on nodes  :       6782.25       6768.38


 parallel 3D FFT for wavefunctions:
    minimum data exchange during FFTs selected (reduces bandwidth)
 parallel 3D FFT for charge:
    minimum data exchange during FFTs selected (reduces bandwidth)


 total amount of memory used by VASP MPI-rank0   131950. kBytes
=======================================================================

   base      :      30000. kBytes
   nonlr-proj:      10142. kBytes
   fftplans  :      13556. kBytes
   grid      :      23353. kBytes
   one-center:        311. kBytes
   wavefun   :      54588. kBytes
 
     INWAV:  cpu time    0.0001: real time    0.0001
 Broyden mixing: mesh for mixing (old mesh)
   NGX = 29   NGY = 29   NGZ = 75
  (NGX  = 96   NGY  = 96   NGZ  =240)
  gives a total of  63075 points

 initial charge density was supplied:
 charge density of overlapping atoms calculated
 number of electron     376.0000000 magnetization 
 keeping initial charge density in first step


--------------------------------------------------------------------------------------------------------


 Maximum index for non-local projection operator         1319
 Maximum index for augmentation-charges         1558 (set IRDMAX)


--------------------------------------------------------------------------------------------------------


 First call to EWALD:  gamma=   0.161
 Maximum number of real-space cells 4x 4x 2
 Maximum number of reciprocal cells 2x 2x 5

    FEWALD:  cpu time    0.0025: real time    0.0025


--------------------------------------- Iteration      1(   1)  ---------------------------------------


    POTLOK:  cpu time    0.1786: real time    0.2619
    SETDIJ:  cpu time    0.0131: real time    0.0131
     EDDAV:  cpu time   11.2817: real time   11.4080
       DOS:  cpu time    0.0012: real time    0.0012
    --------------------------------------------
      LOOP:  cpu time   11.4745: real time   11.6842

 eigenvalue-minimisations  :  1824
 total energy-change (2. order) : 0.2424887E+04  (-0.1595352E+05)
 number of electron     376.0000000 magnetization 
 augmentation part      376.0000000 magnetization 

 Free energy of the ion-electron system (eV)
  ---------------------------------------------------
  alpha Z        PSCENC =       975.10247152
  Ewald energy   TEWEN  =     91620.41960288
  -Hartree energ DENC   =   -120707.40647191
  -exchange      EXHF   =         0.00000000
  -V(xc)+E(xc)   XCENC  =       189.99958810
  PAW double counting   =     24789.08602224   -23775.73976456
  entropy T*S    EENTRO =        -0.00693266
  eigenvalues    EBANDS =      2073.53880158
  atomic energy  EATOM  =     27259.89416086
  Solvation  Ediel_sol  =         0.00000000
  ---------------------------------------------------
  free energy    TOTEN  =      2424.88747805 eV

  energy without entropy =     2424.89441070  energy(sigma->0) =     2424.88978893


--------------------------------------------------------------------------------------------------------




--------------------------------------- Iteration      1(   2)  ---------------------------------------


     EDDAV:  cpu time   12.6668: real time   12.7902
       DOS:  cpu time    0.0011: real time    0.0011
    --------------------------------------------
      LOOP:  cpu time   12.6679: real time   12.7913

 eigenvalue-minimisations  :  2104
 total energy-change (2. order) :-0.2486912E+04  (-0.2306229E+04)
 number of electron     376.0000000 magnetization 
 augmentation part      376.0000000 magnetization 

 Free energy of the ion-electron system (eV)
  ---------------------------------------------------
  alpha Z        PSCENC =       975.10247152
  Ewald energy   TEWEN  =     91620.41960288
  -Hartree energ DENC   =   -120707.40647191
  -exchange      EXHF   =         0.00000000
  -V(xc)+E(xc)   XCENC  =       189.99958810
  PAW double counting   =     24789.08602224   -23775.73976456
  entropy T*S    EENTRO =        -0.03543408
  eigenvalues    EBANDS =      -413.34460180
  atomic energy  EATOM  =     27259.89416086
  Solvation  Ediel_sol  =         0.00000000
  ---------------------------------------------------
  free energy    TOTEN  =       -62.02442675 eV

  energy without entropy =      -61.98899267  energy(sigma->0) =      -62.01261539


--------------------------------------------------------------------------------------------------------




--------------------------------------- Iteration      1(   3)  ---------------------------------------


     EDDAV:  cpu time   13.0362: real time   13.1348
       DOS:  cpu time    0.0011: real time    0.0011
    --------------------------------------------
      LOOP:  cpu time   13.0374: real time   13.1359

 eigenvalue-minimisations  :  2152
 total energy-change (2. order) :-0.1779742E+03  (-0.1613610E+03)
 number of electron     376.0000000 magnetization 
 augmentation part      376.0000000 magnetization 

 Free energy of the ion-electron system (eV)
  ---------------------------------------------------
  alpha Z        PSCENC =       975.10247152
  Ewald energy   TEWEN  =     91620.41960288
  -Hartree energ DENC   =   -120707.40647191
  -exchange      EXHF   =         0.00000000
  -V(xc)+E(xc)   XCENC  =       189.99958810
  PAW double counting   =     24789.08602224   -23775.73976456
  entropy T*S    EENTRO =        -0.02909173
  eigenvalues    EBANDS =      -591.32511485
  atomic energy  EATOM  =     27259.89416086
  Solvation  Ediel_sol  =         0.00000000
  ---------------------------------------------------
  free energy    TOTEN  =      -239.99859746 eV

  energy without entropy =     -239.96950572  energy(sigma->0) =     -239.98890021


--------------------------------------------------------------------------------------------------------




--------------------------------------- Iteration      1(   4)  ---------------------------------------


     EDDAV:  cpu time   13.8330: real time   13.9269
       DOS:  cpu time    0.0011: real time    0.0011
    --------------------------------------------
      LOOP:  cpu time   13.8341: real time   13.9279

 eigenvalue-minimisations  :  2328
 total energy-change (2. order) :-0.7938029E+01  (-0.7634047E+01)
 number of electron     376.0000000 magnetization 
 augmentation part      376.0000000 magnetization 

 Free energy of the ion-electron system (eV)
  ---------------------------------------------------
  alpha Z        PSCENC =       975.10247152
  Ewald energy   TEWEN  =     91620.41960288
  -Hartree energ DENC   =   -120707.40647191
  -exchange      EXHF   =         0.00000000
  -V(xc)+E(xc)   XCENC  =       189.99958810
  PAW double counting   =     24789.08602224   -23775.73976456
  entropy T*S    EENTRO =        -0.02514205
  eigenvalues    EBANDS =      -599.26709323
  atomic energy  EATOM  =     27259.89416086
  Solvation  Ediel_sol  =         0.00000000
  ---------------------------------------------------
  free energy    TOTEN  =      -247.93662615 eV

  energy without entropy =     -247.91148411  energy(sigma->0) =     -247.92824547


--------------------------------------------------------------------------------------------------------




--------------------------------------- Iteration      1(   5)  ---------------------------------------


     EDDAV:  cpu time   13.0747: real time   13.1596
       DOS:  cpu time    0.0011: real time    0.0011
    CHARGE:  cpu time    0.5038: real time    0.5147
    MIXING:  cpu time    0.0089: real time    0.0112
    --------------------------------------------
      LOOP:  cpu time   13.5886: real time   13.6867

 eigenvalue-minimisations  :  2560
 total energy-change (2. order) :-0.2428531E+00  (-0.2403182E+00)
 number of electron     376.0000041 magnetization 
 augmentation part      105.8493616 magnetization 

 Broyden mixing:
  rms(total) = 0.27152E+01    rms(broyden)= 0.27149E+01
  rms(prec ) = 0.30153E+01
  weight for this iteration     100.00

 Free energy of the ion-electron system (eV)
  ---------------------------------------------------
  alpha Z        PSCENC =       975.10247152
  Ewald energy   TEWEN  =     91620.41960288
  -Hartree energ DENC   =   -120707.40647191
  -exchange      EXHF   =         0.00000000
  -V(xc)+E(xc)   XCENC  =       189.99958810
  PAW double counting   =     24789.08602224   -23775.73976456
  entropy T*S    EENTRO =        -0.02454913
  eigenvalues    EBANDS =      -599.51053926
  atomic energy  EATOM  =     27259.89416086
  Solvation  Ediel_sol  =         0.00000000
  ---------------------------------------------------
  free energy    TOTEN  =      -248.17947927 eV

  energy without entropy =     -248.15493014  energy(sigma->0) =     -248.17129623


--------------------------------------------------------------------------------------------------------




--------------------------------------- Iteration      1(   6)  ---------------------------------------


    POTLOK:  cpu time    0.1564: real time    0.1587
    SETDIJ:  cpu time    0.0123: real time    0.0170
    EDDIAG:  cpu time    1.6120: real time    1.6237
  RMM-DIIS:  cpu time    6.2198: real time    6.2641
    ORTHCH:  cpu time    0.2611: real time    0.2627
       DOS:  cpu time    0.0012: real time    0.0012
    CHARGE:  cpu time    0.5816: real time    0.5856
    MIXING:  cpu time    0.0067: real time    0.0067
    --------------------------------------------
      LOOP:  cpu time    8.8511: real time    8.9197

 eigenvalue-minimisations  :  1829
 total energy-change (2. order) : 0.3814716E+01  (-0.5469354E+01)
 number of electron     376.0000041 magnetization 
 augmentation part      112.7525050 magnetization 

 Broyden mixing:
  rms(total) = 0.28278E+01    rms(broyden)= 0.28269E+01
  rms(prec ) = 0.39350E+01
  weight for this iteration     100.00

 eigenvalues of (default mixing * dielectric matrix)
  average eigenvalue GAMMA=   0.5049
  0.5049

 Free energy of the ion-electron system (eV)
  ---------------------------------------------------
  alpha Z        PSCENC =       975.10247152
  Ewald energy   TEWEN  =     91620.41960288
  -Hartree energ DENC   =   -120256.07237642
  -exchange      EXHF   =         0.00000000
  -V(xc)+E(xc)   XCENC  =       182.81971704
  PAW double counting   =     26744.57233293   -25784.91316808
  entropy T*S    EENTRO =        -0.14932407
  eigenvalues    EBANDS =      -986.03817977
  atomic energy  EATOM  =     27259.89416086
  Solvation  Ediel_sol  =         0.00000000
  ---------------------------------------------------
  free energy    TOTEN  =      -244.36476311 eV

  energy without entropy =     -244.21543904  energy(sigma->0) =     -244.31498842


--------------------------------------------------------------------------------------------------------




--------------------------------------- Iteration      1(   7)  ---------------------------------------


    POTLOK:  cpu time    0.1549: real time    0.1562
    SETDIJ:  cpu time    0.0115: real time    0.0116
    EDDIAG:  cpu time    1.8859: real time    1.8990
  RMM-DIIS:  cpu time    6.3455: real time    6.3915
    ORTHCH:  cpu time    0.2491: real time    0.2507
       DOS:  cpu time    0.0012: real time    0.0012
    CHARGE:  cpu time    0.5486: real time    0.5523
    MIXING:  cpu time    0.0051: real time    0.0051
    --------------------------------------------
      LOOP:  cpu time    9.2018: real time    9.2676

 eigenvalue-minimisations  :  1830
 total energy-change (2. order) :-0.3551656E+01  (-0.3093988E+01)
 number of electron     376.0000052 magnetization 
 augmentation part      111.3988412 magnetization 

 Broyden mixing:
  rms(total) = 0.23139E+01    rms(broyden)= 0.23134E+01
  rms(prec ) = 0.41669E+01
  weight for this iteration     100.00

 eigenvalues of (default mixing * dielectric matrix)
  average eigenvalue GAMMA=   0.5377
  0.8470  0.2285

 Free energy of the ion-electron system (eV)
  ---------------------------------------------------
  alpha Z        PSCENC =       975.10247152
  Ewald energy   TEWEN  =     91620.41960288
  -Hartree energ DENC   =   -120437.40909049
  -exchange      EXHF   =         0.00000000
  -V(xc)+E(xc)   XCENC  =       180.67536608
  PAW double counting   =     27373.77063566   -26421.48516125
  entropy T*S    EENTRO =        -0.13271117
  eigenvalues    EBANDS =      -798.75169324
  atomic energy  EATOM  =     27259.89416086
  Solvation  Ediel_sol  =         0.00000000
  ---------------------------------------------------
  free energy    TOTEN  =      -247.91641913 eV

  energy without entropy =     -247.78370797  energy(sigma->0) =     -247.87218208


--------------------------------------------------------------------------------------------------------




--------------------------------------- Iteration      1(   8)  ---------------------------------------


    POTLOK:  cpu time    0.1511: real time    0.1524
    SETDIJ:  cpu time    0.0122: real time    0.0123
    EDDIAG:  cpu time    1.8322: real time    1.8450
  RMM-DIIS:  cpu time    6.3123: real time    6.3586
    ORTHCH:  cpu time    0.2442: real time    0.2458
       DOS:  cpu time    0.0011: real time    0.0011
    CHARGE:  cpu time    0.5809: real time    0.5848
    MIXING:  cpu time    0.0049: real time    0.0049
    --------------------------------------------
      LOOP:  cpu time    9.1389: real time    9.2049

 eigenvalue-minimisations  :  1826
 total energy-change (2. order) : 0.4494973E+01  (-0.1070196E+01)
 number of electron     376.0000049 magnetization 
 augmentation part      111.8690554 magnetization 

 Broyden mixing:
  rms(total) = 0.23075E+01    rms(broyden)= 0.23073E+01
  rms(prec ) = 0.37121E+01
  weight for this iteration     100.00

 eigenvalues of (default mixing * dielectric matrix)
  average eigenvalue GAMMA=   0.5126
  1.1276  0.2650  0.1450

 Free energy of the ion-electron system (eV)
  ---------------------------------------------------
  alpha Z        PSCENC =       975.10247152
  Ewald energy   TEWEN  =     91620.41960288
  -Hartree energ DENC   =   -120421.03370412
  -exchange      EXHF   =         0.00000000
  -V(xc)+E(xc)   XCENC  =       179.63219622
  PAW double counting   =     27926.55238347   -26982.87865855
  entropy T*S    EENTRO =        -0.00202377
  eigenvalues    EBANDS =      -801.10787484
  atomic energy  EATOM  =     27259.89416086
  Solvation  Ediel_sol  =         0.00000000
  ---------------------------------------------------
  free energy    TOTEN  =      -243.42144633 eV

  energy without entropy =     -243.41942256  energy(sigma->0) =     -243.42077174


--------------------------------------------------------------------------------------------------------




--------------------------------------- Iteration      1(   9)  ---------------------------------------


    POTLOK:  cpu time    0.1605: real time    0.1616
    SETDIJ:  cpu time    0.0107: real time    0.0108
    EDDIAG:  cpu time    1.9254: real time    1.9392
  RMM-DIIS:  cpu time    6.5480: real time    6.5986
    ORTHCH:  cpu time    0.2604: real time    0.2621
       DOS:  cpu time    0.0012: real time    0.0012
    CHARGE:  cpu time    0.6087: real time    0.6131
    MIXING:  cpu time    0.0047: real time    0.0047
    --------------------------------------------
      LOOP:  cpu time    9.5195: real time    9.5913

 eigenvalue-minimisations  :  1831
 total energy-change (2. order) : 0.1159243E+02  (-0.6610117E+00)
 number of electron     376.0000045 magnetization 
 augmentation part      112.6423337 magnetization 

 Broyden mixing:
  rms(total) = 0.86432E+00    rms(broyden)= 0.86406E+00
  rms(prec ) = 0.11098E+01
  weight for this iteration     100.00

 eigenvalues of (default mixing * dielectric matrix)
  average eigenvalue GAMMA=   0.5242
  1.2854  0.3359  0.3359  0.1394

 Free energy of the ion-electron system (eV)
  ---------------------------------------------------
  alpha Z        PSCENC =       975.10247152
  Ewald energy   TEWEN  =     91620.41960288
  -Hartree energ DENC   =   -120338.47069341
  -exchange      EXHF   =         0.00000000
  -V(xc)+E(xc)   XCENC  =       178.93165616
  PAW double counting   =     28648.74290319   -27716.27503359
  entropy T*S    EENTRO =        -0.10580070
  eigenvalues    EBANDS =      -860.06828046
  atomic energy  EATOM  =     27259.89416086
  Solvation  Ediel_sol  =         0.00000000
  ---------------------------------------------------
  free energy    TOTEN  =      -231.82901355 eV

  energy without entropy =     -231.72321286  energy(sigma->0) =     -231.79374665


--------------------------------------------------------------------------------------------------------




--------------------------------------- Iteration      1(  10)  ---------------------------------------


    POTLOK:  cpu time    0.1453: real time    0.1466
    SETDIJ:  cpu time    0.0103: real time    0.0103
    EDDIAG:  cpu time    1.9111: real time    1.9249
  RMM-DIIS:  cpu time    6.4635: real time    6.5146
    ORTHCH:  cpu time    0.2644: real time    0.2661
       DOS:  cpu time    0.0013: real time    0.0013
    CHARGE:  cpu time    0.6392: real time    0.6438
    MIXING:  cpu time    0.0072: real time    0.0072
    --------------------------------------------
      LOOP:  cpu time    9.4422: real time    9.5148

 eigenvalue-minimisations  :  1831
 total energy-change (2. order) : 0.1210758E+01  (-0.1933483E+00)
 number of electron     376.0000046 magnetization 
 augmentation part      112.7923104 magnetization 

 Broyden mixing:
  rms(total) = 0.50132E+00    rms(broyden)= 0.50127E+00
  rms(prec ) = 0.62948E+00
  weight for this iteration     100.00

 eigenvalues of (default mixing * dielectric matrix)
  average eigenvalue GAMMA=   0.5507
  1.3997  0.4760  0.4760  0.1409  0.2607

 Free energy of the ion-electron system (eV)
  ---------------------------------------------------
  alpha Z        PSCENC =       975.10247152
  Ewald energy   TEWEN  =     91620.41960288
  -Hartree energ DENC   =   -120326.82774715
  -exchange      EXHF   =         0.00000000
  -V(xc)+E(xc)   XCENC  =       178.77378487
  PAW double counting   =     29052.37822976   -28125.44090319
  entropy T*S    EENTRO =         0.01893708
  eigenvalues    EBANDS =      -864.93679201
  atomic energy  EATOM  =     27259.89416086
  Solvation  Ediel_sol  =         0.00000000
  ---------------------------------------------------
  free energy    TOTEN  =      -230.61825537 eV

  energy without entropy =     -230.63719245  energy(sigma->0) =     -230.62456773


--------------------------------------------------------------------------------------------------------




--------------------------------------- Iteration      1(  11)  ---------------------------------------


    POTLOK:  cpu time    0.1620: real time    0.1634
    SETDIJ:  cpu time    0.0112: real time    0.0113
    EDDIAG:  cpu time    1.7728: real time    1.7852
  RMM-DIIS:  cpu time    6.2093: real time    6.2563
    ORTHCH:  cpu time    0.2534: real time    0.2553
       DOS:  cpu time    0.0012: real time    0.0012
    CHARGE:  cpu time    0.5728: real time    0.5767
    MIXING:  cpu time    0.0065: real time    0.0065
    --------------------------------------------
      LOOP:  cpu time    8.9892: real time    9.0560

 eigenvalue-minimisations  :  1831
 total energy-change (2. order) : 0.2530386E+00  (-0.4788346E-01)
 number of electron     376.0000046 magnetization 
 augmentation part      112.9160969 magnetization 

 Broyden mixing:
  rms(total) = 0.32886E+00    rms(broyden)= 0.32858E+00
  rms(prec ) = 0.44429E+00
  weight for this iteration     100.00

 eigenvalues of (default mixing * dielectric matrix)
  average eigenvalue GAMMA=   0.5947
  1.5982  0.8799  0.1399  0.3555  0.3555  0.2393

 Free energy of the ion-electron system (eV)
  ---------------------------------------------------
  alpha Z        PSCENC =       975.10247152
  Ewald energy   TEWEN  =     91620.41960288
  -Hartree energ DENC   =   -120324.97116220
  -exchange      EXHF   =         0.00000000
  -V(xc)+E(xc)   XCENC  =       178.76684035
  PAW double counting   =     29356.21149019   -28433.19853419
  entropy T*S    EENTRO =        -0.03036301
  eigenvalues    EBANDS =      -862.55972316
  atomic energy  EATOM  =     27259.89416086
  Solvation  Ediel_sol  =         0.00000000
  ---------------------------------------------------
  free energy    TOTEN  =      -230.36521674 eV

  energy without entropy =     -230.33485373  energy(sigma->0) =     -230.35509574


--------------------------------------------------------------------------------------------------------




--------------------------------------- Iteration      1(  12)  ---------------------------------------


    POTLOK:  cpu time    0.1639: real time    0.1650
    SETDIJ:  cpu time    0.0110: real time    0.0111
    EDDIAG:  cpu time    1.8235: real time    1.8371
  RMM-DIIS:  cpu time    6.3140: real time    6.3619
    ORTHCH:  cpu time    0.2612: real time    0.2628
       DOS:  cpu time    0.0012: real time    0.0012
    CHARGE:  cpu time    0.5628: real time    0.5668
    MIXING:  cpu time    0.0060: real time    0.0061
    --------------------------------------------
      LOOP:  cpu time    9.1436: real time    9.2120

 eigenvalue-minimisations  :  1845
 total energy-change (2. order) : 0.1706405E+00  (-0.2257871E-01)
 number of electron     376.0000045 magnetization 
 augmentation part      112.9659369 magnetization 

 Broyden mixing:
  rms(total) = 0.16911E+00    rms(broyden)= 0.16908E+00
  rms(prec ) = 0.18925E+00
  weight for this iteration     100.00

 eigenvalues of (default mixing * dielectric matrix)
  average eigenvalue GAMMA=   0.6787
  1.9673  1.0806  0.5592  0.4757  0.1400  0.2722  0.2560

 Free energy of the ion-electron system (eV)
  ---------------------------------------------------
  alpha Z        PSCENC =       975.10247152
  Ewald energy   TEWEN  =     91620.41960288
  -Hartree energ DENC   =   -120315.99529082
  -exchange      EXHF   =         0.00000000
  -V(xc)+E(xc)   XCENC  =       178.71386958
  PAW double counting   =     29676.85609603   -28757.75732629
  entropy T*S    EENTRO =        -0.01222242
  eigenvalues    EBANDS =      -867.41593763
  atomic energy  EATOM  =     27259.89416086
  Solvation  Ediel_sol  =         0.00000000
  ---------------------------------------------------
  free energy    TOTEN  =      -230.19457627 eV

  energy without entropy =     -230.18235385  energy(sigma->0) =     -230.19050213


--------------------------------------------------------------------------------------------------------




--------------------------------------- Iteration      1(  13)  ---------------------------------------


    POTLOK:  cpu time    0.1633: real time    0.1647
    SETDIJ:  cpu time    0.0106: real time    0.0106
    EDDIAG:  cpu time    1.8674: real time    1.8811
  RMM-DIIS:  cpu time    6.2212: real time    6.2687
    ORTHCH:  cpu time    0.2603: real time    0.2620
       DOS:  cpu time    0.0013: real time    0.0013
    CHARGE:  cpu time    0.5524: real time    0.5564
    MIXING:  cpu time    0.0081: real time    0.0082
    --------------------------------------------
      LOOP:  cpu time    9.0847: real time    9.1530

 eigenvalue-minimisations  :  1834
 total energy-change (2. order) :-0.1334086E-01  (-0.1074100E-01)
 number of electron     376.0000045 magnetization 
 augmentation part      112.9873553 magnetization 

 Broyden mixing:
  rms(total) = 0.19316E+00    rms(broyden)= 0.19315E+00
  rms(prec ) = 0.24924E+00
  weight for this iteration     100.00

 eigenvalues of (default mixing * dielectric matrix)
  average eigenvalue GAMMA=   0.6935
  2.1580  1.1373  0.8268  0.4453  0.1400  0.3043  0.3043  0.2321

 Free energy of the ion-electron system (eV)
  ---------------------------------------------------
  alpha Z        PSCENC =       975.10247152
  Ewald energy   TEWEN  =     91620.41960288
  -Hartree energ DENC   =   -120315.05258728
  -exchange      EXHF   =         0.00000000
  -V(xc)+E(xc)   XCENC  =       178.62757038
  PAW double counting   =     29937.18046650   -29021.19948001
  entropy T*S    EENTRO =        -0.01781341
  eigenvalues    EBANDS =      -865.16230857
  atomic energy  EATOM  =     27259.89416086
  Solvation  Ediel_sol  =         0.00000000
  ---------------------------------------------------
  free energy    TOTEN  =      -230.20791713 eV

  energy without entropy =     -230.19010372  energy(sigma->0) =     -230.20197933


--------------------------------------------------------------------------------------------------------




--------------------------------------- Iteration      1(  14)  ---------------------------------------


    POTLOK:  cpu time    0.1627: real time    0.1640
    SETDIJ:  cpu time    0.0104: real time    0.0104
    EDDIAG:  cpu time    1.8852: real time    1.8987
  RMM-DIIS:  cpu time    5.8952: real time    6.3315
    ORTHCH:  cpu time    0.2357: real time    0.2497
       DOS:  cpu time    0.0012: real time    0.0012
    CHARGE:  cpu time    0.4789: real time    0.4822
    MIXING:  cpu time    0.0057: real time    0.0057
    --------------------------------------------
      LOOP:  cpu time    8.6748: real time    9.1433

 eigenvalue-minimisations  :  1830
 total energy-change (2. order) : 0.4296887E-01  (-0.7353560E-02)
 number of electron     376.0000045 magnetization 
 augmentation part      112.9729627 magnetization 

 Broyden mixing:
  rms(total) = 0.10176E+00    rms(broyden)= 0.10175E+00
  rms(prec ) = 0.13433E+00
  weight for this iteration     100.00

 eigenvalues of (default mixing * dielectric matrix)
  average eigenvalue GAMMA=   0.7283
  2.4228  1.2527  0.7775  0.7775  0.3973  0.1400  0.3018  0.2582  0.2267

 Free energy of the ion-electron system (eV)
  ---------------------------------------------------
  alpha Z        PSCENC =       975.10247152
  Ewald energy   TEWEN  =     91620.41960288
  -Hartree energ DENC   =   -120319.35676683
  -exchange      EXHF   =         0.00000000
  -V(xc)+E(xc)   XCENC  =       178.57943778
  PAW double counting   =     30058.83259367   -29144.26361286
  entropy T*S    EENTRO =        -0.01385549
  eigenvalues    EBANDS =      -859.35897978
  atomic energy  EATOM  =     27259.89416086
  Solvation  Ediel_sol  =         0.00000000
  ---------------------------------------------------
  free energy    TOTEN  =      -230.16494826 eV

  energy without entropy =     -230.15109277  energy(sigma->0) =     -230.16032976


--------------------------------------------------------------------------------------------------------




--------------------------------------- Iteration      1(  15)  ---------------------------------------


    POTLOK:  cpu time    0.1439: real time    0.1450
    SETDIJ:  cpu time    0.0106: real time    0.0107
    EDDIAG:  cpu time    1.6439: real time    1.6554
  RMM-DIIS:  cpu time    6.4318: real time    6.4790
    ORTHCH:  cpu time    0.2646: real time    0.2663
       DOS:  cpu time    0.0012: real time    0.0012
    CHARGE:  cpu time    0.6169: real time    0.6209
    MIXING:  cpu time    0.0074: real time    0.0074
    --------------------------------------------
      LOOP:  cpu time    9.1203: real time    9.1859

 eigenvalue-minimisations  :  1832
 total energy-change (2. order) : 0.7596213E-02  (-0.2840788E-02)
 number of electron     376.0000046 magnetization 
 augmentation part      112.9551025 magnetization 

 Broyden mixing:
  rms(total) = 0.62835E-01    rms(broyden)= 0.62789E-01
  rms(prec ) = 0.79533E-01
  weight for this iteration     100.00

 eigenvalues of (default mixing * dielectric matrix)
  average eigenvalue GAMMA=   0.7092
  2.4830  1.2810  0.8300  0.8300  0.4387  0.1400  0.3196  0.2934  0.2516  0.2248

 Free energy of the ion-electron system (eV)
  ---------------------------------------------------
  alpha Z        PSCENC =       975.10247152
  Ewald energy   TEWEN  =     91620.41960288
  -Hartree energ DENC   =   -120321.04649300
  -exchange      EXHF   =         0.00000000
  -V(xc)+E(xc)   XCENC  =       178.55755226
  PAW double counting   =     30144.42113640   -29230.76493074
  entropy T*S    EENTRO =        -0.00973198
  eigenvalues    EBANDS =      -856.73112026
  atomic energy  EATOM  =     27259.89416086
  Solvation  Ediel_sol  =         0.00000000
  ---------------------------------------------------
  free energy    TOTEN  =      -230.15735205 eV

  energy without entropy =     -230.14762007  energy(sigma->0) =     -230.15410805


--------------------------------------------------------------------------------------------------------




--------------------------------------- Iteration      1(  16)  ---------------------------------------


    POTLOK:  cpu time    0.1576: real time    0.1588
    SETDIJ:  cpu time    0.0104: real time    0.0105
    EDDIAG:  cpu time    1.8650: real time    1.8783
  RMM-DIIS:  cpu time    6.3656: real time    6.4118
    ORTHCH:  cpu time    0.2621: real time    0.2637
       DOS:  cpu time    0.0012: real time    0.0012
    CHARGE:  cpu time    0.5869: real time    0.5908
    MIXING:  cpu time    0.0072: real time    0.0073
    --------------------------------------------
      LOOP:  cpu time    9.2560: real time    9.3224

 eigenvalue-minimisations  :  1826
 total energy-change (2. order) : 0.6416994E-02  (-0.7289553E-03)
 number of electron     376.0000046 magnetization 
 augmentation part      112.9554410 magnetization 

 Broyden mixing:
  rms(total) = 0.22903E-01    rms(broyden)= 0.22901E-01
  rms(prec ) = 0.28228E-01
  weight for this iteration     100.00

 eigenvalues of (default mixing * dielectric matrix)
  average eigenvalue GAMMA=   0.6882
  2.5048  1.2866  0.8246  0.8246  0.5248  0.1400  0.3950  0.2995  0.2995  0.2479
  0.2234

 Free energy of the ion-electron system (eV)
  ---------------------------------------------------
  alpha Z        PSCENC =       975.10247152
  Ewald energy   TEWEN  =     91620.41960288
  -Hartree energ DENC   =   -120322.09885648
  -exchange      EXHF   =         0.00000000
  -V(xc)+E(xc)   XCENC  =       178.56475122
  PAW double counting   =     30159.51622048   -29245.99359157
  entropy T*S    EENTRO =        -0.01105878
  eigenvalues    EBANDS =      -855.54463519
  atomic energy  EATOM  =     27259.89416086
  Solvation  Ediel_sol  =         0.00000000
  ---------------------------------------------------
  free energy    TOTEN  =      -230.15093505 eV

  energy without entropy =     -230.13987628  energy(sigma->0) =     -230.14724880


--------------------------------------------------------------------------------------------------------




--------------------------------------- Iteration      1(  17)  ---------------------------------------


    POTLOK:  cpu time    0.1583: real time    0.1594
    SETDIJ:  cpu time    0.0111: real time    0.0111
    EDDIAG:  cpu time    1.8878: real time    1.9011
  RMM-DIIS:  cpu time    6.3269: real time    6.3724
    ORTHCH:  cpu time    0.2810: real time    0.2827
       DOS:  cpu time    0.0012: real time    0.0012
    CHARGE:  cpu time    0.5284: real time    0.5322
    MIXING:  cpu time    0.0068: real time    0.0068
    --------------------------------------------
      LOOP:  cpu time    9.2013: real time    9.2670

 eigenvalue-minimisations  :  1816
 total energy-change (2. order) : 0.6009863E-03  (-0.1512139E-03)
 number of electron     376.0000046 magnetization 
 augmentation part      112.9561996 magnetization 

 Broyden mixing:
  rms(total) = 0.12876E-01    rms(broyden)= 0.12874E-01
  rms(prec ) = 0.15419E-01
  weight for this iteration     100.00

 eigenvalues of (default mixing * dielectric matrix)
  average eigenvalue GAMMA=   0.7258
  2.5518  1.3151  1.0307  1.0307  0.8246  0.4526  0.1400  0.3301  0.3051  0.2616
  0.2448  0.2219

 Free energy of the ion-electron system (eV)
  ---------------------------------------------------
  alpha Z        PSCENC =       975.10247152
  Ewald energy   TEWEN  =     91620.41960288
  -Hartree energ DENC   =   -120322.45987205
  -exchange      EXHF   =         0.00000000
  -V(xc)+E(xc)   XCENC  =       178.56982712
  PAW double counting   =     30161.54038325   -29248.01383910
  entropy T*S    EENTRO =        -0.01165887
  eigenvalues    EBANDS =      -855.19140969
  atomic energy  EATOM  =     27259.89416086
  Solvation  Ediel_sol  =         0.00000000
  ---------------------------------------------------
  free energy    TOTEN  =      -230.15033407 eV

  energy without entropy =     -230.13867520  energy(sigma->0) =     -230.14644778


--------------------------------------------------------------------------------------------------------




--------------------------------------- Iteration      1(  18)  ---------------------------------------


    POTLOK:  cpu time    0.1465: real time    0.1476
    SETDIJ:  cpu time    0.0098: real time    0.0099
    EDDIAG:  cpu time    1.7668: real time    1.7785
  RMM-DIIS:  cpu time    5.9706: real time    6.0108
    ORTHCH:  cpu time    0.2604: real time    0.2620
       DOS:  cpu time    0.0012: real time    0.0012
    CHARGE:  cpu time    0.5315: real time    0.5350
    MIXING:  cpu time    0.0078: real time    0.0078
    --------------------------------------------
      LOOP:  cpu time    8.6946: real time    8.7528

 eigenvalue-minimisations  :  1724
 total energy-change (2. order) :-0.1848983E-03  (-0.7136743E-04)
 number of electron     376.0000046 magnetization 
 augmentation part      112.9547251 magnetization 

 Broyden mixing:
  rms(total) = 0.10857E-01    rms(broyden)= 0.10856E-01
  rms(prec ) = 0.13525E-01
  weight for this iteration     100.00

 eigenvalues of (default mixing * dielectric matrix)
  average eigenvalue GAMMA=   0.7547
  2.5733  1.8628  1.2770  0.8886  0.8886  0.4529  0.1400  0.3738  0.3283  0.3105
  0.2577  0.2368  0.2214

 Free energy of the ion-electron system (eV)
  ---------------------------------------------------
  alpha Z        PSCENC =       975.10247152
  Ewald energy   TEWEN  =     91620.41960288
  -Hartree energ DENC   =   -120323.45873412
  -exchange      EXHF   =         0.00000000
  -V(xc)+E(xc)   XCENC  =       178.57805870
  PAW double counting   =     30162.58809779   -29249.01893305
  entropy T*S    EENTRO =        -0.01118303
  eigenvalues    EBANDS =      -854.24406053
  atomic energy  EATOM  =     27259.89416086
  Solvation  Ediel_sol  =         0.00000000
  ---------------------------------------------------
  free energy    TOTEN  =      -230.15051897 eV

  energy without entropy =     -230.13933594  energy(sigma->0) =     -230.14679129


--------------------------------------------------------------------------------------------------------




--------------------------------------- Iteration      1(  19)  ---------------------------------------


    POTLOK:  cpu time    0.1591: real time    0.1603
    SETDIJ:  cpu time    0.0111: real time    0.0112
    EDDIAG:  cpu time    1.8360: real time    1.8481
  RMM-DIIS:  cpu time    4.5504: real time    4.5813
    ORTHCH:  cpu time    0.2632: real time    0.2648
       DOS:  cpu time    0.0012: real time    0.0013
    --------------------------------------------
      LOOP:  cpu time    6.8210: real time    6.8670

 eigenvalue-minimisations  :  1229
 total energy-change (2. order) :-0.3446403E-04  (-0.3411549E-04)
 number of electron     376.0000046 magnetization 
 augmentation part      112.9547251 magnetization 

 Free energy of the ion-electron system (eV)
  ---------------------------------------------------
  alpha Z        PSCENC =       975.10247152
  Ewald energy   TEWEN  =     91620.41960288
  -Hartree energ DENC   =   -120324.75387929
  -exchange      EXHF   =         0.00000000
  -V(xc)+E(xc)   XCENC  =       178.58718610
  PAW double counting   =     30159.58923614   -29245.93698449
  entropy T*S    EENTRO =        -0.01196282
  eigenvalues    EBANDS =      -853.04038433
  atomic energy  EATOM  =     27259.89416086
  Solvation  Ediel_sol  =         0.00000000
  ---------------------------------------------------
  free energy    TOTEN  =      -230.15055343 eV

  energy without entropy =     -230.13859061  energy(sigma->0) =     -230.14656582


--------------------------------------------------------------------------------------------------------




 average (electrostatic) potential at core
  the test charge radii are     0.6991  0.7215  1.2059
  (the norm of the test charge is              1.0000)
       1 -56.3218       2 -74.9910       3 -76.2182       4 -72.3204       5 -72.2995
       6 -72.3058       7 -72.3056       8 -72.3195       9 -72.3128      10 -72.2815
      11 -72.3197      12 -72.2873      13 -72.8529      14 -72.9549      15 -72.9146
      16 -72.9756      17 -72.9961      18 -72.9416      19 -72.9931      20 -73.0113
      21 -72.9374      22 -72.9657      23 -72.9540      24 -72.8499      25 -72.9406
      26 -73.0013      27 -73.1011      28 -72.9384      29 -72.9140      30 -72.9425
      31 -72.3803      32 -72.3751      33 -72.4535      34 -72.5351      35 -72.3822
      36 -73.3504      37 -72.6537      38 -73.2381      39 -72.3291
 
 
 
 E-fermi :   1.1067     XC(G=0):  -6.6095     alpha+bet : -6.8913


 k-point     1 :       0.0000    0.0000    0.0000
  band No.  band energies     occupation 
      1     -22.1238      2.00000
      2     -17.3963      2.00000
      3      -8.7718      2.00000
      4      -8.0983      2.00000
      5      -6.8452      2.00000
      6      -6.0474      2.00000
      7      -6.0111      2.00000
      8      -5.7861      2.00000
      9      -5.6770      2.00000
     10      -5.6610      2.00000
     11      -5.6231      2.00000
     12      -5.6223      2.00000
     13      -5.5619      2.00000
     14      -5.5469      2.00000
     15      -5.4663      2.00000
     16      -5.3023      2.00000
     17      -5.0914      2.00000
     18      -5.0820      2.00000
     19      -5.0757      2.00000
     20      -5.0595      2.00000
     21      -5.0109      2.00000
     22      -4.9740      2.00000
     23      -4.7327      2.00000
     24      -4.6582      2.00000
     25      -4.5737      2.00000
     26      -4.5449      2.00000
     27      -4.5266      2.00000
     28      -4.4878      2.00000
     29      -4.3937      2.00000
     30      -4.3742      2.00000
     31      -4.3500      2.00000
     32      -4.3275      2.00000
     33      -4.3078      2.00000
     34      -4.2590      2.00000
     35      -4.1784      2.00000
     36      -4.1456      2.00000
     37      -4.1185      2.00000
     38      -4.1092      2.00000
     39      -4.0924      2.00000
     40      -4.0678      2.00000
     41      -4.0419      2.00000
     42      -4.0290      2.00000
     43      -4.0071      2.00000
     44      -3.9940      2.00000
     45      -3.9615      2.00000
     46      -3.9317      2.00000
     47      -3.6581      2.00000
     48      -3.5904      2.00000
     49      -3.5118      2.00000
     50      -3.5035      2.00000
     51      -3.4671      2.00000
     52      -3.4470      2.00000
     53      -3.4024      2.00000
     54      -3.3878      2.00000
     55      -3.3689      2.00000
     56      -3.3381      2.00000
     57      -3.2604      2.00000
     58      -3.1887      2.00000
     59      -3.1552      2.00000
     60      -3.1481      2.00000
     61      -3.1366      2.00000
     62      -2.9948      2.00000
     63      -2.9829      2.00000
     64      -2.6496      2.00000
     65      -2.6200      2.00000
     66      -2.5849      2.00000
     67      -2.5493      2.00000
     68      -2.5156      2.00000
     69      -2.5005      2.00000
     70      -2.4781      2.00000
     71      -2.4464      2.00000
     72      -2.4187      2.00000
     73      -2.3982      2.00000
     74      -2.3806      2.00000
     75      -2.3733      2.00000
     76      -2.3662      2.00000
     77      -2.3521      2.00000
     78      -2.3347      2.00000
     79      -2.3197      2.00000
     80      -2.2978      2.00000
     81      -2.2888      2.00000
     82      -2.2766      2.00000
     83      -2.2552      2.00000
     84      -2.2353      2.00000
     85      -2.2066      2.00000
     86      -2.1601      2.00000
     87      -2.1363      2.00000
     88      -2.1197      2.00000
     89      -2.0896      2.00000
     90      -2.0834      2.00000
     91      -2.0612      2.00000
     92      -1.9664      2.00000
     93      -1.9567      2.00000
     94      -1.9171      2.00000
     95      -1.8899      2.00000
     96      -1.8722      2.00000
     97      -1.8449      2.00000
     98      -1.8335      2.00000
     99      -1.7944      2.00000
    100      -1.7450      2.00000
    101      -1.7210      2.00000
    102      -1.6182      2.00000
    103      -1.6157      2.00000
    104      -1.5878      2.00000
    105      -1.5699      2.00000
    106      -1.5535      2.00000
    107      -1.5241      2.00000
    108      -1.5205      2.00000
    109      -1.4842      2.00000
    110      -1.4757      2.00000
    111      -1.4718      2.00000
    112      -1.4657      2.00000
    113      -1.4468      2.00000
    114      -1.3183      2.00000
    115      -1.2883      2.00000
    116      -1.1866      2.00000
    117      -1.1596      2.00000
    118      -1.0908      2.00000
    119      -1.0563      2.00000
    120      -1.0041      2.00000
    121      -0.9843      2.00000
    122      -0.9495      2.00000
    123      -0.9168      2.00000
    124      -0.8940      2.00000
    125      -0.8776      2.00000
    126      -0.8422      2.00000
    127      -0.8060      2.00000
    128      -0.7478      2.00000
    129      -0.6827      2.00000
    130      -0.6782      2.00000
    131      -0.6549      2.00000
    132      -0.6351      2.00000
    133      -0.6197      2.00000
    134      -0.5535      2.00000
    135      -0.5342      2.00000
    136      -0.4071      2.00000
    137      -0.3938      2.00000
    138      -0.3740      2.00000
    139      -0.3402      2.00000
    140      -0.3335      2.00000
    141      -0.2718      2.00000
    142      -0.2253      2.00000
    143      -0.1940      2.00000
    144      -0.1641      2.00000
    145      -0.1286      2.00000
    146      -0.1097      2.00000
    147      -0.0965      2.00000
    148      -0.0586      2.00000
    149      -0.0268      2.00000
    150       0.0155      2.00000
    151       0.0665      2.00000
    152       0.1013      2.00000
    153       0.1202      2.00000
    154       0.1370      2.00000
    155       0.1460      2.00000
    156       0.1965      2.00000
    157       0.2308      2.00000
    158       0.2546      2.00000
    159       0.2783      2.00000
    160       0.3150      2.00000
    161       0.3190      2.00000
    162       0.3410      2.00000
    163       0.3449      2.00000
    164       0.3562      2.00000
    165       0.3714      2.00000
    166       0.3851      2.00000
    167       0.4251      2.00002
    168       0.4530      2.00004
    169       0.4788      2.00008
    170       0.5056      2.00018
    171       0.5170      2.00025
    172       0.5587      2.00074
    173       0.5966      2.00184
    174       0.6383      2.00456
    175       0.6461      2.00534
    176       0.6555      2.00642
    177       0.6620      2.00728
    178       0.6722      2.00881
    179       0.6938      2.01290
    180       0.7196      2.01958
    181       0.7574      2.03313
    182       0.7759      2.04120
    183       0.8091      2.05635
    184       0.8194      2.06073
    185       0.8301      2.06477
    186       0.8328      2.06564
    187       0.8359      2.06663
    188       0.8424      2.06839
    189       0.8523      2.07027
    190       0.8593      2.07087
    191       0.8635      2.07089
    192       0.8704      2.07030
    193       0.8901      2.06345
    194       0.9408      1.99432
    195       0.9605      1.94031
    196       1.0933      1.11320
    197       1.1109      0.96446
    198       1.1881      0.37026
    199       1.2116      0.23357
    200       1.2234      0.17496
    201       1.2272      0.15756
    202       1.2640      0.02707
    203       1.2661      0.02148
    204       1.4965     -0.01878
    205       1.5094     -0.01529
    206       1.9513     -0.00000
    207       2.0158     -0.00000
    208       2.0863     -0.00000
    209       2.0908     -0.00000
    210       2.2411     -0.00000
    211       2.5270     -0.00000
    212       3.6112     -0.00000
    213       4.0072     -0.00000
    214       4.3529     -0.00000
    215       4.4111     -0.00000
    216       4.4368     -0.00000
    217       4.5928     -0.00000
    218       4.9118     -0.00000
    219       5.4745     -0.00000
    220       5.7034     -0.00000
    221       5.8783     -0.00000
    222       5.8985     -0.00000
    223       5.9211     -0.00000
    224       5.9438     -0.00000
    225       6.0239     -0.00000
    226       6.1758     -0.00000
    227       6.5649     -0.00000
    228       6.8326      0.00000

 k-point     2 :       0.5000    0.0000    0.0000
  band No.  band energies     occupation 
      1     -22.1236      2.00000
      2     -17.3960      2.00000
      3      -8.7599      2.00000
      4      -7.2521      2.00000
      5      -7.2192      2.00000
      6      -6.1647      2.00000
      7      -6.0618      2.00000
      8      -5.9788      2.00000
      9      -5.8087      2.00000
     10      -5.7412      2.00000
     11      -5.6289      2.00000
     12      -5.4475      2.00000
     13      -5.3600      2.00000
     14      -5.2447      2.00000
     15      -5.0094      2.00000
     16      -4.9428      2.00000
     17      -4.8862      2.00000
     18      -4.8726      2.00000
     19      -4.8510      2.00000
     20      -4.8283      2.00000
     21      -4.8183      2.00000
     22      -4.7923      2.00000
     23      -4.7635      2.00000
     24      -4.7438      2.00000
     25      -4.7333      2.00000
     26      -4.7011      2.00000
     27      -4.6794      2.00000
     28      -4.6335      2.00000
     29      -4.6189      2.00000
     30      -4.5634      2.00000
     31      -4.3888      2.00000
     32      -4.3455      2.00000
     33      -4.3296      2.00000
     34      -4.2973      2.00000
     35      -4.2527      2.00000
     36      -4.1826      2.00000
     37      -4.0913      2.00000
     38      -4.0199      2.00000
     39      -4.0057      2.00000
     40      -3.9972      2.00000
     41      -3.9584      2.00000
     42      -3.9169      2.00000
     43      -3.8682      2.00000
     44      -3.8514      2.00000
     45      -3.7639      2.00000
     46      -3.7364      2.00000
     47      -3.6935      2.00000
     48      -3.6706      2.00000
     49      -3.6405      2.00000
     50      -3.5875      2.00000
     51      -3.4796      2.00000
     52      -3.4388      2.00000
     53      -3.4254      2.00000
     54      -3.3885      2.00000
     55      -3.3655      2.00000
     56      -3.3499      2.00000
     57      -3.2775      2.00000
     58      -3.2397      2.00000
     59      -3.1784      2.00000
     60      -3.1496      2.00000
     61      -3.1069      2.00000
     62      -3.0636      2.00000
     63      -3.0137      2.00000
     64      -3.0024      2.00000
     65      -2.9977      2.00000
     66      -2.9493      2.00000
     67      -2.9163      2.00000
     68      -2.8764      2.00000
     69      -2.8726      2.00000
[...]
     83      -2.2702      2.00000
     84      -2.2608      2.00000
     85      -2.2416      2.00000
     86      -2.1973      2.00000
     87      -2.1767      2.00000
     88      -2.1670      2.00000
     89      -2.1526      2.00000
     90      -2.1379      2.00000
     91      -2.1043      2.00000
     92      -2.0987      2.00000
     93      -2.0581      2.00000
     94      -1.9885      2.00000
     95      -1.9698      2.00000
     96      -1.9518      2.00000
     97      -1.8983      2.00000
     98      -1.8642      2.00000
     99      -1.8436      2.00000
    100      -1.8356      2.00000
    101      -1.7658      2.00000
    102      -1.7643      2.00000
    103      -1.7337      2.00000
    104      -1.6980      2.00000
    105      -1.6876      2.00000
    106      -1.6675      2.00000
    107      -1.6381      2.00000
    108      -1.6281      2.00000
    109      -1.6177      2.00000
    110      -1.5553      2.00000
    111      -1.5127      2.00000
    112      -1.4639      2.00000
    113      -1.4385      2.00000
    114      -1.3838      2.00000
    115      -1.3057      2.00000
    116      -1.3012      2.00000
    117      -1.2222      2.00000
    118      -1.1844      2.00000
    119      -1.1320      2.00000
    120      -1.0820      2.00000
    121      -1.0645      2.00000
    122      -1.0554      2.00000
    123      -1.0236      2.00000
    124      -1.0016      2.00000
    125      -0.9861      2.00000
    126      -0.9647      2.00000
    127      -0.9433      2.00000
    128      -0.9220      2.00000
    129      -0.9037      2.00000
    130      -0.8961      2.00000
    131      -0.8228      2.00000
    132      -0.8099      2.00000
    133      -0.7617      2.00000
    134      -0.7355      2.00000
    135      -0.7084      2.00000
    136      -0.6933      2.00000
    137      -0.6708      2.00000
    138      -0.6378      2.00000
    139      -0.5917      2.00000
    140      -0.5473      2.00000
    141      -0.4663      2.00000
    142      -0.4594      2.00000
    143      -0.3814      2.00000
    144      -0.2711      2.00000
    145      -0.2502      2.00000
    146      -0.1881      2.00000
    147      -0.1496      2.00000
    148      -0.1195      2.00000
    149      -0.0869      2.00000
    150      -0.0448      2.00000
    151      -0.0335      2.00000
    152       0.0434      2.00000
    153       0.0632      2.00000
    154       0.0822      2.00000
    155       0.1065      2.00000
    156       0.1165      2.00000
    157       0.1254      2.00000
    158       0.1802      2.00000
    159       0.1967      2.00000
    160       0.2161      2.00000
    161       0.2360      2.00000
    162       0.3085      2.00000
    163       0.3212      2.00000
    164       0.3617      2.00000
    165       0.3784      2.00000
    166       0.4069      2.00001
    167       0.5360      2.00045
    168       0.5726      2.00112
    169       0.5828      2.00143
    170       0.6289      2.00398
    171       0.6531      2.00648
    172       0.6812      2.01091
    173       0.7040      2.01604
    174       0.7934      2.05056
    175       0.8007      2.05388
    176       0.8172      2.06098
    177       0.8553      2.07082
    178       0.8734      2.06914
    179       0.9112      2.04182
    180       0.9325      2.00639
    181       0.9505      1.96222
    182       1.0197      1.64698
    183       1.0422      1.49530
    184       1.0918      1.10152
    185       1.1033      1.00485
    186       1.1153      0.90337
    187       1.1417      0.68566
    188       1.1605      0.54147
    189       1.1679      0.48779
    190       1.1759      0.43190
    191       1.3093     -0.05544
    192       1.3340     -0.06904
    193       1.3720     -0.06739
    194       1.4037     -0.05540
    195       1.4382     -0.03961
    196       1.4690     -0.02691
    197       1.5758     -0.00424
    198       1.7425     -0.00006
    199       1.8295     -0.00000
    200       2.0053     -0.00000
    201       2.2220     -0.00000
    202       2.3755     -0.00000
    203       2.7744     -0.00000
    204       2.9485     -0.00000
    205       2.9543     -0.00000
    206       2.9960     -0.00000
    207       3.0203     -0.00000
    208       3.2300     -0.00000
    209       3.3940     -0.00000
    210       3.5170     -0.00000
    211       3.5689     -0.00000
    212       3.6352     -0.00000
    213       3.7191     -0.00000
    214       3.8310     -0.00000
    215       3.9580     -0.00000
    216       4.1819     -0.00000
    217       4.2343     -0.00000
    218       4.4187     -0.00000
    219       4.4316     -0.00000
    220       4.6167     -0.00000
    221       4.6958     -0.00000
    222       4.8476     -0.00000
    223       5.2053     -0.00000
    224       5.5394     -0.00000
    225       6.0927     -0.00000
    226       6.5235     -0.00000
    227       6.5727      0.00000
    228       6.6427      0.00000


--------------------------------------------------------------------------------------------------------


 soft charge-density along one line, spin component           1
         0         1         2         3         4         5         6         7         8         9
 total charge-density along one line
 
 pseudopotential strength for first ion, spin component:           1
 10.101   0.016   0.004   0.011  -0.000  -0.004  -0.010   0.000
  0.016  -0.002  -0.000  -0.000  -0.000  -0.000  -0.000   0.000
  0.004  -0.000  -4.245  -0.007   0.001  -0.011  -0.002   0.000
  0.011  -0.000  -0.007  -4.264   0.005  -0.002  -0.017   0.001
 -0.000  -0.000   0.001   0.005  -4.243   0.000   0.001  -0.010
 -0.004  -0.000  -0.011  -0.002   0.000  -0.770  -0.000   0.000
 -0.010  -0.000  -0.002  -0.017   0.001  -0.000  -0.770   0.000
  0.000   0.000   0.000   0.001  -0.010   0.000   0.000  -0.770
 total augmentation occupancy for first ion, spin component:           1
  1.635  -0.904   0.018   0.032  -0.063   0.032   0.092  -0.027
 -0.904   1.307  -0.200  -0.598   0.111  -0.080  -0.245   0.040
  0.018  -0.200   0.852   0.186   0.001   0.117   0.051  -0.006
  0.032  -0.598   0.186   1.351  -0.025   0.052   0.252  -0.014
 -0.063   0.111   0.001  -0.025   0.800  -0.007  -0.015   0.103
  0.032  -0.080   0.117   0.052  -0.007   0.020   0.021  -0.004
  0.092  -0.245   0.051   0.252  -0.015   0.021   0.073  -0.008
 -0.027   0.040  -0.006  -0.014   0.103  -0.004  -0.008   0.015


------------------------ aborting loop because EDIFF is reached ----------------------------------------


    CHARGE:  cpu time    0.7327: real time    0.7378
    FORLOC:  cpu time    0.0528: real time    0.0532
    FORNL :  cpu time    3.2439: real time    3.2681
    STRESS:  cpu time    9.7307: real time    9.8043
    FORCOR:  cpu time    0.1955: real time    0.1967
    FORHAR:  cpu time    0.0872: real time    0.0877
    MIXING:  cpu time    0.0065: real time    0.0066
    OFIELD:  cpu time    0.0000: real time    0.0000

  FORCE on cell =-STRESS in cart. coord.  units (eV):
  Direction    XX          YY          ZZ          XY          YZ          ZX
  --------------------------------------------------------------------------------------
  Alpha Z   975.10247   975.10247   975.10247
  Ewald  111355.02915111365.52186************  -221.48734   250.42339   -86.73056
  Hartree118106.90040118089.24911************  -141.96887   105.37159   -44.49863
  E(xc)   -1666.14585 -1665.86210 -1673.65159    -0.52455     0.72126    -0.26581
  Local  ************************240148.90969   351.32740  -330.77648   123.19148
  n-local   123.71018   122.83120    89.67967    -1.13657     1.31396     0.38591
  augment  1894.81551  1892.81814  1933.84431     3.01747    -4.66406     1.08500
  Kinetic  5523.03517  5513.95918  5605.25712    11.08899   -21.60854     7.65539
  Fock        0.00000     0.00000     0.00000     0.00000     0.00000     0.00000
  -------------------------------------------------------------------------------------
  Total     -35.44444   -38.35658    -0.38353     0.31653     0.78112     0.82278
  in kB     -42.21491   -45.68332    -0.45679     0.37699     0.93033     0.97994
  external pressure =      -29.45 kB  Pullay stress =        0.00 kB


 VOLUME and BASIS-vectors are now :
 -----------------------------------------------------------------------------
  energy-cutoff  :      450.00
  volume of cell :     1345.22
      direct lattice vectors                 reciprocal lattice vectors
     7.296955120 -4.212899000  0.000000000     0.137043463  0.000000000  0.000000000
     0.000000000  8.425798000  0.000000000     0.068521732  0.118683121  0.000000000
     0.000000000  0.000000000 21.879635000     0.000000000  0.000000000  0.045704602

  length of vectors
     8.425798004  8.425798000 21.879635000     0.137043463  0.137043463  0.045704602


 FORCES acting on ions
    electron-ion (+dipol)            ewald-force                    non-local-force                 convergence-correction
 -----------------------------------------------------------------------------------------------
   0.642E+01 0.867E+01 -.878E+03   -.695E+01 -.135E+02 0.864E+03   0.487E+00 0.315E+01 0.108E+02   -.319E-02 0.152E-01 0.767E-01
   -.867E+02 0.455E+02 -.160E+04   0.883E+02 -.419E+02 0.162E+04   -.908E+00 -.334E+01 -.230E+02   -.107E-01 0.201E-01 0.432E-01
   0.637E+02 -.101E+03 -.157E+04   -.738E+02 0.121E+03 0.164E+04   0.999E+01 -.197E+02 -.591E+02   0.105E-01 -.182E-01 -.147E-02
   0.346E+00 0.781E+00 0.234E+04   -.274E+00 -.739E+00 -.234E+04   0.241E-01 -.447E-01 -.115E+01   -.870E-01 -.452E-01 0.272E-01
   0.709E+00 0.317E+00 0.234E+04   -.701E+00 -.253E+00 -.234E+04   -.193E-01 -.257E-01 -.110E+01   -.282E-01 -.833E-01 0.108E-01
   -.671E-01 0.767E+00 0.234E+04   0.150E-01 -.672E+00 -.234E+04   0.379E-01 -.176E-01 -.114E+01   -.166E-01 -.100E+00 0.319E-01
   0.543E-01 0.135E+00 0.234E+04   -.314E-01 -.689E-01 -.234E+04   -.913E-02 0.222E-02 -.115E+01   -.170E-03 -.471E-02 -.707E-02
   0.964E-01 0.226E+00 0.234E+04   -.105E+00 -.298E+00 -.234E+04   0.157E-02 0.292E-01 -.125E+01   0.293E-02 0.499E-01 -.167E-01
   -.116E+00 -.285E+00 0.234E+04   0.761E-01 0.258E+00 -.234E+04   0.236E-01 0.175E-01 -.119E+01   0.294E-01 0.105E-01 -.144E-01
   -.130E+00 -.695E+00 0.234E+04   0.129E+00 0.552E+00 -.234E+04   -.551E-01 0.876E-01 -.104E+01   0.580E-01 0.332E-01 0.131E-01
   -.762E+00 -.445E+00 0.234E+04   0.743E+00 0.407E+00 -.234E+04   -.400E-02 -.264E-01 -.125E+01   0.293E-01 0.898E-01 0.228E-01
   -.125E+00 -.879E+00 0.234E+04   0.150E+00 0.815E+00 -.234E+04   -.219E-01 0.290E-01 -.103E+01   0.120E-01 0.498E-01 0.106E-01
   0.151E+01 -.445E+01 0.855E+03   -.164E+01 0.442E+01 -.855E+03   0.102E+00 0.530E-01 -.330E+00   0.201E-01 0.686E-02 0.814E-02
   -.659E+01 -.868E+00 0.859E+03   0.644E+01 0.849E+00 -.859E+03   0.210E+00 0.115E+00 -.107E+00   0.501E-01 0.289E-01 -.175E-01
   -.995E-02 -.253E+01 0.853E+03   0.117E+00 0.242E+01 -.853E+03   -.267E-01 0.359E-01 -.117E+00   -.149E-01 0.608E-01 0.810E-03
   0.213E+01 0.339E+01 0.859E+03   -.216E+01 -.340E+01 -.858E+03   0.743E-01 0.674E-01 -.252E+00   -.770E-01 -.568E-01 0.414E-01
   0.300E+01 0.280E+01 0.866E+03   -.304E+01 -.267E+01 -.866E+03   0.475E-01 -.426E-01 -.312E+00   -.284E-02 -.109E+00 0.405E-01
   0.193E+01 0.661E+01 0.863E+03   -.185E+01 -.660E+01 -.862E+03   -.610E-01 0.327E-01 -.176E+00   -.655E-01 -.862E-01 0.323E-01
   0.107E+01 0.686E+00 0.867E+03   -.105E+01 -.564E+00 -.867E+03   -.103E+00 -.109E+00 -.375E+00   0.200E-01 0.500E-01 0.136E-01
   -.109E+01 -.292E+01 0.863E+03   0.113E+01 0.287E+01 -.863E+03   -.374E-01 0.297E-01 -.402E+00   0.434E-01 0.796E-01 0.114E-01
   -.277E+01 -.275E+01 0.862E+03   0.279E+01 0.288E+01 -.862E+03   0.653E-01 -.121E+00 -.252E+00   0.265E-01 0.261E-01 0.234E-01
   -.116E+02 0.198E+02 -.627E+03   0.115E+02 -.199E+02 0.627E+03   0.385E+00 -.441E+00 0.161E+00   -.774E-01 0.103E-02 0.207E-01
   -.114E+02 0.809E+01 -.620E+03   0.114E+02 -.806E+01 0.620E+03   0.360E+00 -.384E+00 0.577E+00   0.744E-02 0.719E-01 -.191E-01
   -.363E+01 0.171E+02 -.655E+03   0.339E+01 -.168E+02 0.655E+03   0.309E-01 -.439E+00 -.271E+00   0.149E-01 0.280E-01 -.416E-01
   -.185E+01 0.525E+01 -.639E+03   0.147E+01 -.451E+01 0.639E+03   0.367E+00 -.624E+00 -.489E+00   -.263E-01 -.833E-02 -.258E-01
   0.192E+02 0.362E+01 -.628E+03   -.185E+02 -.368E+01 0.628E+03   -.880E+00 -.103E+00 -.237E+00   0.310E-01 -.312E-02 -.208E-01
   -.171E+01 -.192E+02 -.624E+03   0.165E+01 0.190E+02 0.624E+03   -.167E+00 0.264E+00 -.261E+00   0.149E-01 0.141E-01 0.392E-01
   -.135E+01 -.137E+02 -.627E+03   0.126E+01 0.136E+02 0.627E+03   0.557E-01 0.365E+00 0.383E+00   0.415E-01 0.269E-01 0.418E-02
   0.115E+02 -.691E+01 -.629E+03   -.114E+02 0.695E+01 0.629E+03   -.368E+00 0.543E-01 0.436E+00   0.340E-02 -.537E-01 0.149E-01
   0.701E+00 -.890E+01 -.622E+03   -.770E+00 0.880E+01 0.622E+03   0.104E+00 0.334E+00 0.223E+00   -.185E-02 -.690E-01 0.190E-01
   -.107E+02 -.116E+02 -.215E+04   0.114E+02 0.117E+02 0.215E+04   -.800E+00 -.184E-01 0.136E+01   -.106E-01 -.866E-02 0.538E-02
   0.146E+02 0.377E+02 -.215E+04   -.151E+02 -.383E+02 0.214E+04   0.558E+00 0.426E+00 0.129E+01   0.223E-01 0.222E-01 -.422E-02
   0.518E+02 -.869E+01 -.215E+04   -.520E+02 0.888E+01 0.214E+04   -.155E+00 -.607E-01 0.104E+01   0.160E-01 -.162E-01 -.790E-02
   -.115E+02 0.350E+01 -.215E+04   0.112E+02 -.362E+01 0.215E+04   0.374E+00 0.113E+00 0.146E+01   0.208E-02 -.171E-02 -.398E-01
   0.284E+02 0.166E+02 -.219E+04   -.284E+02 -.170E+02 0.219E+04   -.138E+00 0.322E+00 0.951E+00   -.625E-02 0.207E-01 -.107E-01
   0.625E+02 0.582E+02 -.196E+04   -.656E+02 -.568E+02 0.197E+04   0.302E+01 -.105E+01 -.207E+01   0.153E-01 -.925E-02 -.418E-01
   -.567E+02 -.529E+02 -.205E+04   0.581E+02 0.552E+02 0.205E+04   -.143E+01 -.217E+01 0.298E+01   -.156E-01 -.118E-01 -.426E-01
   -.759E+02 0.965E+02 -.207E+04   0.764E+02 -.974E+02 0.207E+04   -.294E+00 0.906E+00 -.876E+00   -.230E-01 0.105E-01 -.887E-02
   0.411E+01 -.742E+02 -.215E+04   -.423E+01 0.756E+02 0.215E+04   0.245E+00 -.141E+01 0.839E+00   0.635E-02 -.155E-01 0.271E-01
 -----------------------------------------------------------------------------------------------
   -.111E+02 0.237E+02 0.763E+02   0.231E-13 -.995E-13 0.682E-11   0.111E+02 -.236E+02 -.764E+02   0.103E-01 0.148E-01 0.218E+00
 
 
 POSITION                                       TOTAL-FORCE (eV/Angst)
 -----------------------------------------------------------------------------------
      5.07979      0.68552     10.32581        -0.047681     -1.634150     -2.720730
      6.59386     -0.49396     10.13520         0.634285      0.343291      0.290469
      4.91006      1.04469     11.39444        -0.127640      0.939041      2.504108
      7.20031     -1.38846      1.62732         0.008226     -0.050375      0.156531
      2.33567      1.42014      1.62732        -0.040064     -0.047825      0.138567
      4.76799      0.01584      1.62732        -0.031638     -0.025023      0.150087
      7.20031      1.42015      1.62732         0.012781      0.061136      0.129220
      2.33567      4.22875      1.62732        -0.004568      0.005514      0.121474
      4.76799      2.82445      1.62732         0.012480     -0.000942      0.140337
      2.33567      7.03734      1.62732         0.001075     -0.024326      0.065896
      4.76799      5.63304      1.62732         0.005457      0.022959      0.123730
      7.20031      4.22874      1.62732         0.014422      0.011992      0.037771
      1.52490      0.01584      3.92052        -0.012421      0.025431      0.066655
      3.95722     -1.38846      3.92052         0.109816      0.123137      0.019083
      6.38953     -2.79276      3.92052         0.064880     -0.008822      0.031802
      1.52490      2.82445      3.92052        -0.036323     -0.002012      0.039898
      3.95722      1.42015      3.92052         0.004998     -0.022435     -0.031669
      6.38953      0.01585      3.92052        -0.044593     -0.049862      0.051953
      1.52490      5.63305      3.92052        -0.068641      0.061380     -0.217383
      3.95722      4.22874      3.92052         0.045825      0.065422     -0.091332
      6.38953      2.82445      3.92052         0.118305      0.033021     -0.137539
      0.70163      4.23674      6.20279         0.264874     -0.483890     -0.234028
      3.12960      5.65907      6.17606         0.336937     -0.282098      0.042362
      5.59929     -1.38080      6.26345        -0.191168     -0.134987     -0.354511
      0.71295      1.44920      6.22559        -0.033858      0.100803     -0.030261
      3.17655      0.02308      6.22462        -0.236826     -0.167751     -0.326267
      0.73827      7.03213      6.20820        -0.212407      0.125249     -0.481911
      5.56994      4.19717      6.19360         0.010068      0.296195     -0.100102
      3.17608      2.81797      6.19353        -0.298957      0.043306      0.045639
      5.57325      1.40420      6.20784         0.032419      0.153374     -0.170366
      2.37561      4.19749      8.44847        -0.108932      0.072473      0.069392
      4.73863      5.60948      8.47580         0.025639     -0.134374     -0.087998
      2.36501      1.38634      8.50038        -0.428719      0.110995     -0.158234
      7.18682      4.18660      8.42388         0.112771     -0.004415      0.542724
      2.33000      7.00116      8.51081        -0.071491     -0.057623     -0.029285
      4.66899      0.01545      8.55408        -0.067103      0.405427      0.428889
      7.24877      1.40924      8.39411         0.015854      0.130423      0.626815
      7.25623     -1.53136      8.63601         0.108107      0.010140     -0.113119
      4.77106      2.84796      8.57387         0.123812     -0.009799     -0.538668
 -----------------------------------------------------------------------------------
    total drift:                                0.033108      0.088889      0.057348
  FORCES: max atom, RMS     3.174129    0.733847
  Number: max atom                 1
  FORCE total and by dimension    4.582871    2.720730


--------------------------------------------------------------------------------------------------------



  FREE ENERGIE OF THE ION-ELECTRON SYSTEM (eV)
  ---------------------------------------------------
  free  energy   TOTEN  =      -230.46493774 eV

  energy  without entropy=     -230.45139716  energy(sigma->0) =     -230.46042421
 
 d Force = 0.5641574E-01[-0.527E-01, 0.166E+00]  d Energy = 0.6262468E-01-0.621E-02
 d Force =-0.1206333E+01[-0.190E+01,-0.508E+00]  d Ewald  =-0.1198768E+01-0.757E-02


--------------------------------------------------------------------------------------------------------


    POTLOK:  cpu time    0.1848: real time    0.2571


--------------------------------------------------------------------------------------------------------


 stress matrix after NEB project (eV)
    -35.44444      0.31653      0.82278
      0.31653    -38.35658      0.78112
      0.82278      0.78112     -0.38353
  FORCES: max atom, RMS     3.174129    0.733847
  FORCE total and by dimension    4.582871    2.720730
  Stress total and by dimension   52.253773   38.356578
 Quasi-Newton relaxation of ions (Broydens 2nd method)
  g(Force)  = 0.405E+00   g(Stress)= 0.000E+00

 retain information from N=  2 steps
 eigenvalues of (default step * inverse Hessian matrix)
  average eigenvalue of G=   0.5604
 eigenvalue spectrum of G is  0.5604  0.5604
  RESET_HESSIAN           0


--------------------------------------------------------------------------------------------------------


    WAVPRE:  cpu time    0.0771: real time    0.2689
    FEWALD:  cpu time    0.0011: real time    0.0011

 real space projection operators:
  total allocation   :      13546.48 KBytes
  max/ min on nodes  :       6781.75       6764.73

    ORTHCH:  cpu time    1.3199: real time    1.3415
     LOOP+:  cpu time   94.6382: real time   95.9696
