 running on    8 total cores
 distrk:  each k-point on    8 cores,    1 groups
 distr:  one band on    2 cores,    4 groups
 using from now: INCAR     
 vasp.5.4.4 16052018 (build Apr 24 2014 20:13:14) complex standard
 Contain Constrained Minimization Technique (TS), Periodic NBO, VASPsol, libbeef, VASP2WANNIER90, Constrained Cell Relaxation
 POSCAR found type information on POSCAR  C  O  Pt
 POSCAR found :  3 types and      39 ions
 scaLAPACK will be used
 LDA part: xc-table for Pade appr. of Perdew
 POSCAR found type information on POSCAR  C  O  Pt
 POSCAR found :  3 types and      39 ions
 POSCAR, INCAR and KPOINTS ok, starting setup
 FFT: planning ...
 WAVECAR not read
 entering main loop
       N       E                     dE             d eps       ncg     rms          rms(c)
DAV:   1     0.242488747805E+04    0.24249E+04   -0.15954E+05  1824   0.129E+03
DAV:   2    -0.620244267525E+02   -0.24869E+04   -0.23062E+04  2104   0.286E+02
DAV:   3    -0.239998597456E+03   -0.17797E+03   -0.16136E+03  2152   0.692E+01
DAV:   4    -0.247936626152E+03   -0.79380E+01   -0.76340E+01  2328   0.139E+01
DAV:   5    -0.248179479270E+03   -0.24285E+00   -0.24032E+00  2560   0.245E+00    0.272E+01
RMM:   6    -0.244364763106E+03    0.38147E+01   -0.54694E+01  1829   0.148E+01    0.283E+01
RMM:   7    -0.247916419135E+03   -0.35517E+01   -0.30940E+01  1830   0.878E+00    0.231E+01
RMM:   8    -0.243421446329E+03    0.44950E+01   -0.10702E+01  1826   0.491E+00    0.231E+01
RMM:   9    -0.231829013551E+03    0.11592E+02   -0.66101E+00  1831   0.424E+00    0.864E+00
RMM:  10    -0.230618255373E+03    0.12108E+01   -0.19335E+00  1831   0.227E+00    0.501E+00
RMM:  11    -0.230365216741E+03    0.25304E+00   -0.47883E-01  1831   0.108E+00    0.329E+00
RMM:  12    -0.230194576270E+03    0.17064E+00   -0.22579E-01  1845   0.755E-01    0.169E+00
RMM:  13    -0.230207917129E+03   -0.13341E-01   -0.10741E-01  1834   0.532E-01    0.193E+00
RMM:  14    -0.230164948261E+03    0.42969E-01   -0.73536E-02  1830   0.462E-01    0.102E+00
RMM:  15    -0.230157352048E+03    0.75962E-02   -0.28408E-02  1832   0.291E-01    0.628E-01
RMM:  16    -0.230150935054E+03    0.64170E-02   -0.72896E-03  1826   0.148E-01    0.229E-01
RMM:  17    -0.230150334068E+03    0.60099E-03   -0.15121E-03  1816   0.657E-02    0.129E-01
RMM:  18    -0.230150518966E+03   -0.18490E-03   -0.71367E-04  1724   0.449E-02    0.109E-01
RMM:  19    -0.230150553430E+03   -0.34464E-04   -0.34115E-04  1229   0.331E-02
   1 F= -.23015055E+03 E0= -.23014657E+03  d E =-.230151E+03
 BRION: g(F)=  0.350E+00 g(S)=  0.000E+00
 bond charge predicted
       N       E                     dE             d eps       ncg     rms          rms(c)
DAV:   1    -0.230347161532E+03   -0.19664E+00   -0.35167E+01  1852   0.112E+01    0.867E-01
RMM:   2    -0.230534892084E+03   -0.18773E+00   -0.78770E-01  1833   0.177E+00    0.300E+00
RMM:   3    -0.230419914959E+03    0.11498E+00   -0.62264E-02  1849   0.431E-01    0.958E-01
RMM:   4    -0.230410085234E+03    0.98297E-02   -0.19666E-02  1838   0.238E-01    0.649E-01
RMM:   5    -0.230404226641E+03    0.58586E-02   -0.62308E-03  1835   0.131E-01    0.394E-01
RMM:   6    -0.230403498963E+03    0.72768E-03   -0.62337E-03  1830   0.137E-01    0.289E-01
RMM:   7    -0.230403263257E+03    0.23571E-03   -0.46940E-03  1829   0.118E-01    0.255E-01
RMM:   8    -0.230402300631E+03    0.96263E-03   -0.14288E-03  1823   0.652E-02    0.829E-02
RMM:   9    -0.230402313057E+03   -0.12426E-04   -0.25781E-04  1065   0.292E-02
   2 F= -.23040231E+03 E0= -.23039805E+03  d E =-.251760E+00
 BRION: g(F)=  0.222E+00 g(S)=  0.000E+00 retain N=  1 mean eig= 1.22
 eig:   1.215
 bond charge predicted
       N       E                     dE             d eps       ncg     rms          rms(c)
DAV:   1    -0.230432704847E+03   -0.30404E-01   -0.12258E+01  1840   0.679E+00    0.603E-01
RMM:   2    -0.230485675096E+03   -0.52970E-01   -0.47144E-01  1847   0.113E+00    0.993E-01
RMM:   3    -0.230474617641E+03    0.11057E-01   -0.17450E-02  1854   0.221E-01    0.683E-01
RMM:   4    -0.230469392472E+03    0.52252E-02   -0.48095E-03  1843   0.114E-01    0.441E-01
RMM:   5    -0.230468556854E+03    0.83562E-03   -0.58356E-03  1832   0.123E-01    0.462E-01
RMM:   6    -0.230466236080E+03    0.23208E-02   -0.69142E-03  1830   0.134E-01    0.268E-01
RMM:   7    -0.230465228810E+03    0.10073E-02   -0.24719E-03  1827   0.835E-02    0.133E-01
RMM:   8    -0.230465004358E+03    0.22445E-03   -0.43885E-04  1355   0.369E-02    0.743E-02
RMM:   9    -0.230464937735E+03    0.66623E-04   -0.13893E-04   997   0.228E-02
   3 F= -.23046494E+03 E0= -.23046042E+03  d E =-.626247E-01
 BRION: g(F)=  0.405E+00 g(S)=  0.000E+00 retain N=  2 mean eig= 0.56
 eig:   0.560  0.560
 bond charge predicted
[mpiexec@node11] Sending Ctrl-C to processes as requested
[mpiexec@node11] Press Ctrl-C again to force abort
