metal                                   
           1
     7.296955   -4.212899    0.000000
     0.000000    8.425798    0.000000
     0.000000    0.000000   21.879635
   C    O    Pt
   1   2  36
Direct configuration=     1
   0.69904970  0.43316154  0.47179985
   0.90166550  0.38959586  0.46166061
   0.67091315  0.46001742  0.52168839
   0.98675500  0.32859100  0.07437600
   0.32008800  0.32859100  0.07437600
   0.65342200  0.32859100  0.07437600
   0.98675500  0.66192500  0.07437600
   0.32008800  0.66192500  0.07437600
   0.65342200  0.66192500  0.07437600
   0.32008800  0.99525800  0.07437600
   0.65342200  0.99525800  0.07437600
   0.98675500  0.99525800  0.07437600
   0.20897700  0.10636900  0.17918600
   0.54231100  0.10636900  0.17918600
   0.87564400  0.10636900  0.17918600
   0.20897700  0.43970300  0.17918600
   0.54231100  0.43970300  0.17918600
   0.87564400  0.43970300  0.17918600
   0.20897700  0.77303600  0.17918600
   0.54231100  0.77303600  0.17918600
   0.87564400  0.77303600  0.17918600
   0.09395895  0.55350640  0.28427974
   0.42624359  0.88641078  0.28221883
   0.76819436  0.22148521  0.28712956
   0.09756778  0.21982169  0.28459783
   0.43709667  0.22222121  0.28538316
   0.10227788  0.88415538  0.28513212
   0.76354694  0.87821869  0.28333898
   0.43741742  0.55265192  0.28296594
   0.76393025  0.54745864  0.28427269
   0.32593747  0.66095530  0.38602714
   0.64948268  0.99149035  0.38756916
   0.32715304  0.32713810  0.38875011
   0.98429260  0.98863453  0.38387725
   0.31969482  0.99115163  0.38884614
   0.63998026  0.31956981  0.38975489
   0.99357851  0.66311025  0.38200808
   0.99217271  0.31625324  0.39571079
   0.65308728  0.66478188  0.39264852
Direct configuration=     2
   0.69731225  0.43045314  0.47096865
   0.90263476  0.39184839  0.46285647
   0.67183293  0.46065128  0.52186720
   0.98675500  0.32859100  0.07437600
   0.32008800  0.32859100  0.07437600
   0.65342200  0.32859100  0.07437600
   0.98675500  0.66192500  0.07437600
   0.32008800  0.66192500  0.07437600
   0.65342200  0.66192500  0.07437600
   0.32008800  0.99525800  0.07437600
   0.65342200  0.99525800  0.07437600
   0.98675500  0.99525800  0.07437600
   0.20897700  0.10636900  0.17918600
   0.54231100  0.10636900  0.17918600
   0.87564400  0.10636900  0.17918600
   0.20897700  0.43970300  0.17918600
   0.54231100  0.43970300  0.17918600
   0.87564400  0.43970300  0.17918600
   0.20897700  0.77303600  0.17918600
   0.54231100  0.77303600  0.17918600
   0.87564400  0.77303600  0.17918600
   0.09544493  0.55169981  0.28372159
   0.42801755  0.88623810  0.28224838
   0.76772811  0.22034438  0.28656425
   0.09770716  0.22057414  0.28456505
   0.43593178  0.22105181  0.28478531
   0.10163538  0.88501367  0.28418432
   0.76335099  0.87919308  0.28316298
   0.43601108  0.55231012  0.28303201
   0.76374275  0.54816039  0.28389422
   0.32577386  0.66095033  0.38608925
   0.64937906  0.99075599  0.38745049
   0.32513839  0.32682456  0.38860928
   0.98466043  0.98917212  0.38459414
   0.31946166  0.99077086  0.38896931
   0.64008227  0.32119457  0.39069881
   0.99339732  0.66364992  0.38311920
   0.99398700  0.31545406  0.39488806
   0.65354461  0.66484645  0.39220011
Direct configuration=     3
   0.69615165  0.42943507  0.47193685
   0.90364538  0.39319838  0.46322515
   0.67289108  0.46043253  0.52077828
   0.98675500  0.32859100  0.07437600
   0.32008800  0.32859100  0.07437600
   0.65342200  0.32859100  0.07437600
   0.98675500  0.66192500  0.07437600
   0.32008800  0.66192500  0.07437600
   0.65342200  0.66192500  0.07437600
   0.32008800  0.99525800  0.07437600
   0.65342200  0.99525800  0.07437600
   0.98675500  0.99525800  0.07437600
   0.20897700  0.10636900  0.17918600
   0.54231100  0.10636900  0.17918600
   0.87564400  0.10636900  0.17918600
   0.20897700  0.43970300  0.17918600
   0.54231100  0.43970300  0.17918600
   0.87564400  0.43970300  0.17918600
   0.20897700  0.77303600  0.17918600
   0.54231100  0.77303600  0.17918600
   0.87564400  0.77303600  0.17918600
   0.09615434  0.55090696  0.28349623
   0.42889107  0.88608165  0.28227425
   0.76734612  0.21979489  0.28626870
   0.09770578  0.22084904  0.28453813
   0.43532509  0.22040137  0.28449375
   0.10117473  0.88518197  0.28374329
   0.76332393  0.87979573  0.28307580
   0.43526043  0.55207586  0.28307281
   0.76377751  0.54854304  0.28372684
   0.32556200  0.66095196  0.38613409
   0.64939783  0.99044973  0.38738305
   0.32410867  0.32658918  0.38850651
   0.98490687  0.98933185  0.38500994
   0.31931104  0.99057469  0.38898303
   0.63985397  0.32176099  0.39096096
   0.99339612  0.66395080  0.38364927
   0.99441877  0.31546299  0.39470544
   0.65384226  0.66492624  0.39186533
