 vasp.5.4.4 16052018 (build Apr 24 2014 20:13:14) complex standard
 Contain Constrained Minimization Technique (TS), Periodic NBO, VASPsol, libbeef, VASP2WANNIER90, Constrained Cell Relaxation
 executed on Center for Computational Chemistry by phu@node09 date 2025.09.27 23:24:01
 running on    8 total cores
 distrk:  each k-point on    8 cores,    1 groups
 distr:  one band on NCORES_PER_BAND=   2 cores,    4 groups


--------------------------------------------------------------------------------------------------------


 INCAR:
 POTCAR:   PAW_PBE C 08Apr2002                    
 POTCAR:   PAW_PBE O 08Apr2002                    
 POTCAR:    PAW_PBE Pt 04Feb2005                  
 POTCAR:   PAW_PBE C 08Apr2002                    
   VRHFIN =C: s2p2                                                              
   LEXCH  = PE                                                                  
   EATOM  =   147.1560 eV,   10.8157 Ry                                         
                                                                                
   TITEL  = PAW_PBE C 08Apr2002                                                 
   LULTRA =        F    use ultrasoft PP ?                                      
   IUNSCR =        0    unscreen: 0-lin 1-nonlin 2-no                           
   RPACOR =     .000    partial core radius                                     
   POMASS =   12.011; ZVAL   =    4.000    mass and valenz                      
   RCORE  =    1.500    outmost cutoff radius                                   
   RWIGS  =    1.630; RWIGS  =     .863    wigner-seitz radius (au A)           
   ENMAX  =  400.000; ENMIN  =  300.000 eV                                      
   ICORE  =        2    local potential                                         
   LCOR   =        T    correct aug charges                                     
   LPAW   =        T    paw PP                                                  
   EAUG   =  644.873                                                            
   DEXC   =     .000                                                            
   RMAX   =    2.266    core radius for proj-oper                               
   RAUG   =    1.300    factor for augmentation sphere                          
   RDEP   =    1.501    radius for radial grids                                 
   RDEPT  =    1.300    core radius for aug-charge                              
   QCUT   =   -5.516; QGAM   =   11.032    optimization parameters              
                                                                                
   Description                                                                  
     l     E      TYP  RCUT    TYP  RCUT                                        
     0   .000     23  1.200                                                     
     0   .000     23  1.200                                                     
     1   .000     23  1.500                                                     
     1  2.500     23  1.500                                                     
     2   .000      7  1.500                                                     
  local pseudopotential read in
  atomic valenz-charges read in
  non local Contribution for L=           0  read in
    real space projection operators read in
  non local Contribution for L=           0  read in
    real space projection operators read in
  non local Contribution for L=           1  read in
    real space projection operators read in
  non local Contribution for L=           1  read in
    real space projection operators read in
    PAW grid and wavefunctions read in
 
   number of l-projection  operators is LMAX  =           4
   number of lm-projection operators is LMMAX =           8
 
 POTCAR:   PAW_PBE O 08Apr2002                    
   VRHFIN =O: s2p4                                                              
   LEXCH  = PE                                                                  
   EATOM  =   432.3788 eV,   31.7789 Ry                                         
                                                                                
   TITEL  = PAW_PBE O 08Apr2002                                                 
   LULTRA =        F    use ultrasoft PP ?                                      
   IUNSCR =        0    unscreen: 0-lin 1-nonlin 2-no                           
   RPACOR =     .000    partial core radius                                     
   POMASS =   16.000; ZVAL   =    6.000    mass and valenz                      
   RCORE  =    1.520    outmost cutoff radius                                   
   RWIGS  =    1.550; RWIGS  =     .820    wigner-seitz radius (au A)           
   ENMAX  =  400.000; ENMIN  =  300.000 eV                                      
   ICORE  =        2    local potential                                         
   LCOR   =        T    correct aug charges                                     
   LPAW   =        T    paw PP                                                  
   EAUG   =  605.392                                                            
   DEXC   =     .000                                                            
   RMAX   =    2.264    core radius for proj-oper                               
   RAUG   =    1.300    factor for augmentation sphere                          
   RDEP   =    1.550    radius for radial grids                                 
   QCUT   =   -5.520; QGAM   =   11.041    optimization parameters              
                                                                                
   Description                                                                  
     l     E      TYP  RCUT    TYP  RCUT                                        
     0   .000     23  1.200                                                     
     0  -.700     23  1.200                                                     
     1   .000     23  1.520                                                     
     1   .600     23  1.520                                                     
     2   .000      7  1.500                                                     
  local pseudopotential read in
  atomic valenz-charges read in
  non local Contribution for L=           0  read in
    real space projection operators read in
  non local Contribution for L=           0  read in
    real space projection operators read in
  non local Contribution for L=           1  read in
    real space projection operators read in
  non local Contribution for L=           1  read in
    real space projection operators read in
    PAW grid and wavefunctions read in
 
   number of l-projection  operators is LMAX  =           4
   number of lm-projection operators is LMMAX =           8
 
 POTCAR:    PAW_PBE Pt 04Feb2005                  
   VRHFIN =Pt: s1d9                                                             
   LEXCH  = PE                                                                  
   EATOM  =   729.1182 eV,   53.5887 Ry                                         
                                                                                
   TITEL  = PAW_PBE Pt 04Feb2005                                                
   LULTRA =        F    use ultrasoft PP ?                                      
   IUNSCR =        1    unscreen: 0-lin 1-nonlin 2-no                           
   RPACOR =    2.330    partial core radius                                     
   POMASS =  195.080; ZVAL   =   10.000    mass and valenz                      
   RCORE  =    2.600    outmost cutoff radius                                   
   RWIGS  =    2.750; RWIGS  =    1.455    wigner-seitz radius (au A)           
   ENMAX  =  230.283; ENMIN  =  172.712 eV                                      
   ICORE  =        3    local potential                                         
   LCOR   =        T    correct aug charges                                     
   LPAW   =        T    paw PP                                                  
   EAUG   =  358.966                                                            
   DEXC   =     .000                                                            
   RMAX   =    3.038    core radius for proj-oper                               
   RAUG   =    1.300    factor for augmentation sphere                          
   RDEP   =    2.761    radius for radial grids                                 
   QCUT   =   -4.114; QGAM   =    8.228    optimization parameters              
                                                                                
   Description                                                                  
     l     E      TYP  RCUT    TYP  RCUT                                        
     2   .000     23  2.500                                                     
     2   .000     23  2.500                                                     
     0   .000     23  2.500                                                     
     0   .000     23  2.500                                                     
     1  -.200     23  2.600                                                     
     1  1.500     23  2.600                                                     
     3   .000     23  2.500                                                     
  local pseudopotential read in
  partial core-charges read in
  atomic valenz-charges read in
  non local Contribution for L=           2  read in
    real space projection operators read in
  non local Contribution for L=           2  read in
    real space projection operators read in
  non local Contribution for L=           0  read in
    real space projection operators read in
  non local Contribution for L=           0  read in
    real space projection operators read in
  non local Contribution for L=           1  read in
    real space projection operators read in
  non local Contribution for L=           1  read in
    real space projection operators read in
    PAW grid and wavefunctions read in
 
   number of l-projection  operators is LMAX  =           6
   number of lm-projection operators is LMMAX =          18
 
 Optimization of the real space projectors (new method)

 maximal supplied QI-value         = 25.13
 optimisation between [QCUT,QGAM] = [ 10.81, 21.61] = [ 32.71,130.83] Ry 
 Optimized for a Real-space Cutoff    1.23 Angstroem

   l    n(q)    QCUT    max X(q) W(low)/X(q) W(high)/X(q)  e(spline) 
   0      8    10.807     5.582    0.53E-04    0.84E-04    0.44E-07
   0      8    10.807    69.432    0.35E-03    0.71E-03    0.24E-06
   1      7    10.807     2.780    0.44E-04    0.88E-04    0.89E-07
   1      7    10.807     4.549    0.14E-03    0.28E-03    0.13E-06
 Optimization of the real space projectors (new method)

 maximal supplied QI-value         = 24.76
 optimisation between [QCUT,QGAM] = [ 10.64, 21.54] = [ 31.73,129.89] Ry 
 Optimized for a Real-space Cutoff    1.23 Angstroem

   l    n(q)    QCUT    max X(q) W(low)/X(q) W(high)/X(q)  e(spline) 
   0      8    10.645     4.192    0.69E-04    0.93E-04    0.58E-07
   0      8    10.645     8.473    0.40E-03    0.65E-03    0.17E-06
   1      7    10.645     2.474    0.80E-04    0.12E-03    0.30E-07
   1      7    10.645     3.912    0.24E-03    0.53E-03    0.16E-06
 Optimization of the real space projectors (new method)

 maximal supplied QI-value         = 14.36
 optimisation between [QCUT,QGAM] = [ 10.77, 21.69] = [ 32.49,131.70] Ry 
 Optimized for a Real-space Cutoff    1.46 Angstroem

   l    n(q)    QCUT    max X(q) W(low)/X(q) W(high)/X(q)  e(spline) 
   2      9    10.771     3.903    0.38E-04    0.12E-03    0.82E-07
   2      9    10.771    18.372    0.13E-03    0.32E-03    0.28E-06
   0     10    10.771    13.697    0.11E-04    0.86E-05    0.85E-08
   0     10    10.771    65.529    0.40E-04    0.12E-03    0.14E-06
   1      9    10.771     7.604    0.48E-04    0.31E-04    0.38E-07
   1      9    10.771    12.136    0.35E-03    0.16E-03    0.23E-06
 PAW_PBE C 08Apr2002                    :
 energy of atom  1       EATOM= -147.1560
 kinetic energy error for atom=    0.0116 (will be added to EATOM!!)
 PAW_PBE O 08Apr2002                    :
 energy of atom  2       EATOM= -432.3788
 kinetic energy error for atom=    0.0389 (will be added to EATOM!!)
  PAW_PBE Pt 04Feb2005                  :
 energy of atom  3       EATOM= -729.1182
 kinetic energy error for atom=    0.0051 (will be added to EATOM!!)
 
 
 POSCAR: C    O    Pt                            
  positions in direct lattice
  No initial velocities read in
 exchange correlation table for  LEXCH =        8
   RHO(1)=    0.500       N(1)  =     2000
   RHO(2)=  100.500       N(2)  =     4000

 VTST: version 3.2, (02/03/18)

 CHAIN: initializing optimizer
 
 OPT: Using VASP QUASI-newton optimizer
 CHAIN: Read ICHAIN            0
 
 POSCAR: C    O    Pt                            
  positions in direct lattice
  No initial velocities read in
 


--------------------------------------------------------------------------------------------------------


 ion  position               nearest neighbor table
   1  0.698  0.434  0.478-   3 1.16  36 1.93
   2  0.907  0.382  0.462-  38 1.80  36 2.45  37 2.62
   3  0.670  0.461  0.528-   1 1.16
   4  0.987  0.329  0.074-  15 2.81  16 2.81  12 2.81   5 2.81  11 2.81   6 2.81  18 2.81   8 2.81
                             7 2.81
   5  0.320  0.329  0.074-  13 2.81  10 2.81   4 2.81  12 2.81  16 2.81  17 2.81   8 2.81   9 2.81
                             6 2.81
   6  0.653  0.329  0.074-  14 2.81  18 2.81  11 2.81   4 2.81  17 2.81   7 2.81  10 2.81   9 2.81
                             5 2.81
   7  0.987  0.662  0.074-  18 2.81  21 2.81  19 2.81  12 2.81   8 2.81  10 2.81   9 2.81   6 2.81
                             4 2.81
   8  0.320  0.662  0.074-  16 2.81  19 2.81  10 2.81   7 2.81  20 2.81   4 2.81  11 2.81   5 2.81
                             9 2.81
   9  0.653  0.662  0.074-  17 2.81  20 2.81  21 2.81  11 2.81  12 2.81   7 2.81   6 2.81   5 2.81
                             8 2.81
  10  0.320  0.995  0.074-  13 2.81  19 2.81   5 2.81   8 2.81  12 2.81   7 2.81  14 2.81   6 2.81
                            11 2.81
  11  0.653  0.995  0.074-  14 2.81  20 2.81  15 2.81   9 2.81   6 2.81  12 2.81   4 2.81   8 2.81
                            10 2.81
  12  0.987  0.995  0.074-  15 2.81  21 2.81  13 2.81   7 2.81   4 2.81  10 2.81   5 2.81  11 2.81
                             9 2.81
  13  0.209  0.106  0.179-  25 2.77  10 2.81   5 2.81  12 2.81  19 2.81  15 2.81  21 2.81  16 2.81
                            17 2.81  14 2.81  26 2.83  27 2.85
  14  0.542  0.106  0.179-  23 2.74  24 2.74  26 2.80  11 2.81   6 2.81  20 2.81  15 2.81  10 2.81
                            18 2.81  19 2.81  17 2.81  13 2.81
  15  0.876  0.106  0.179-  25 2.78  28 2.79  24 2.80  12 2.81   4 2.81  11 2.81  21 2.81  13 2.81
                            14 2.81  20 2.81  16 2.81  18 2.81
  16  0.209  0.440  0.179-  22 2.77  25 2.80  29 2.81   8 2.81   4 2.81  19 2.81  18 2.81   5 2.81
                            15 2.81  20 2.81  13 2.81  17 2.81
  17  0.542  0.440  0.179-  30 2.74  29 2.80  26 2.81   9 2.81  20 2.81  21 2.81  18 2.81   6 2.81
                             5 2.81  14 2.81  13 2.81  16 2.81
  18  0.876  0.440  0.179-  24 2.75  22 2.75  30 2.77   7 2.81   6 2.81  21 2.81  16 2.81  19 2.81
                            17 2.81   4 2.81  14 2.81  15 2.81
  19  0.209  0.773  0.179-  23 2.76  22 2.76   8 2.81  10 2.81   7 2.81  16 2.81  13 2.81  18 2.81
                            21 2.81  14 2.81  20 2.81  27 2.86
  20  0.542  0.773  0.179-  23 2.74  28 2.79  29 2.79  11 2.81   9 2.81  17 2.81  14 2.81  21 2.81
                            15 2.81   8 2.81  16 2.81  19 2.81
  21  0.876  0.773  0.179-  30 2.75  28 2.75   7 2.81  12 2.81   9 2.81  18 2.81  15 2.81  19 2.81
                            13 2.81  17 2.81  20 2.81  27 2.85
  22  0.095  0.550  0.281-  18 2.75  19 2.76  16 2.77  24 2.80  27 2.81  30 2.82  37 2.82  29 2.84
                            31 2.84  23 2.84  25 2.85  38 3.01
  23  0.434  0.886  0.281-  14 2.74  20 2.74  19 2.76  35 2.77  24 2.79  29 2.80  32 2.80  26 2.81
                            28 2.82  31 2.83  27 2.84  22 2.84
  24  0.760  0.222  0.282-  26 2.72  14 2.74  18 2.75  30 2.77  23 2.79  22 2.80  15 2.80  32 2.83
                            25 2.88  28 2.90  36 2.98  38 3.00
  25  0.097  0.214  0.283-  33 2.76  27 2.77  13 2.77  34 2.78  15 2.78  28 2.80  16 2.80  26 2.83
                            29 2.84  22 2.85  24 2.88  38 2.91
  26  0.436  0.220  0.284-  33 2.67  24 2.72  35 2.74  30 2.77  14 2.80  17 2.81  23 2.81  29 2.82
                            25 2.83  13 2.83  27 2.84  36 2.91
  27  0.097  0.885  0.286-  34 2.66  35 2.70  28 2.77  25 2.77  37 2.78  22 2.81  30 2.82  26 2.84
                            23 2.84  13 2.85  21 2.85  19 2.86
  28  0.767  0.881  0.282-  30 2.75  21 2.75  27 2.77  34 2.78  20 2.79  29 2.79  32 2.79  15 2.79
                            25 2.80  23 2.82  24 2.90  39 2.93
  29  0.433  0.553  0.284-  31 2.73  33 2.75  30 2.77  28 2.79  20 2.79  23 2.80  17 2.80  16 2.81
                            26 2.82  22 2.84  25 2.84  39 2.90
  30  0.761  0.552  0.281-  17 2.74  28 2.75  21 2.75  26 2.77  18 2.77  24 2.77  29 2.77  22 2.82
                            27 2.82  39 2.94  37 2.94  36 3.02
  31  0.327  0.661  0.386-  29 2.73  39 2.74  32 2.77  37 2.78  35 2.81  23 2.83  33 2.83  22 2.84
                            38 2.87
  32  0.653  0.991  0.386-  31 2.77  35 2.78  28 2.79  39 2.79  23 2.80  38 2.80  24 2.83  34 2.83
                            36 2.86
  33  0.326  0.324  0.383-  26 2.67  36 2.72  29 2.75  25 2.76  35 2.78  39 2.80  38 2.83  34 2.83
                            31 2.83
  34  0.988  0.989  0.385-  27 2.66  28 2.78  25 2.78  38 2.78  37 2.80  39 2.81  35 2.82  32 2.83
                            33 2.83
  35  0.324  0.993  0.384-  27 2.70  26 2.74  23 2.77  37 2.77  32 2.78  33 2.78  36 2.79  31 2.81
                            34 2.82
  36  0.648  0.327  0.397-   1 1.93   2 2.45  33 2.72  39 2.79  35 2.79  32 2.86  37 2.90  26 2.91
                            38 2.91  24 2.98  30 3.02
  37  0.998  0.663  0.390-   2 2.62  35 2.77  31 2.78  27 2.78  34 2.80  22 2.82  38 2.86  36 2.90
                            39 2.91  30 2.94
  38  0.989  0.319  0.395-   2 1.80  34 2.78  32 2.80  33 2.83  37 2.86  31 2.87  25 2.91  36 2.91
                            24 3.00  22 3.01
  39  0.651  0.660  0.394-  31 2.74  36 2.79  32 2.79  33 2.80  34 2.81  29 2.90  37 2.91  28 2.93
                            30 2.94
 

IMPORTANT INFORMATION: All symmetrisations will be switched off!
NOSYMM: (Re-)initialisation of all symmetry stuff for point group C_1.

 
 
 KPOINTS: mesh auto                               

Automatic generation of k-mesh.
Space group operators:
 irot       det(A)        alpha          n_x          n_y          n_z        tau_x        tau_y        tau_z
    1     1.000000     0.000000     1.000000     0.000000     0.000000     0.000000     0.000000     0.000000
 
 Subroutine IBZKPT returns following result:
 ===========================================
 
 Found      4 irreducible k-points:
 
 Following reciprocal coordinates:
            Coordinates               Weight
  0.000000  0.000000  0.000000      1.000000
  0.500000  0.000000  0.000000      1.000000
 -0.000000  0.500000  0.000000      1.000000
  0.500000  0.500000  0.000000      1.000000
 
 Following cartesian coordinates:
            Coordinates               Weight
  0.000000  0.000000  0.000000      1.000000
  0.068522  0.000000  0.000000      1.000000
  0.034261  0.059342  0.000000      1.000000
  0.102783  0.059342  0.000000      1.000000
 


--------------------------------------------------------------------------------------------------------




 Dimension of arrays:
   k-points           NKPTS =      4   k-points in BZ     NKDIM =      4   number of bands    NBANDS=    228
   number of dos      NEDOS =    301   number of ions     NIONS =     39
   non local maximal  LDIM  =      6   non local SUM 2l+1 LMDIM =     18
   total plane-waves  NPLWV = 276480
   max r-space proj   IRMAX =   2756   max aug-charges    IRDMAX=  12646
   dimension x,y,z NGX =    48 NGY =   48 NGZ =  120
   dimension x,y,z NGXF=    96 NGYF=   96 NGZF=  240
   support grid    NGXF=    96 NGYF=   96 NGZF=  240
   ions per type =               1   2  36
   NGX,Y,Z   is equivalent  to a cutoff of   9.47,  9.47,  9.12 a.u.
   NGXF,Y,Z  is equivalent  to a cutoff of  18.94, 18.94, 18.24 a.u.

 SYSTEM =  metal                                   
 POSCAR =  C    O    Pt                            

 Startparameter for this run:
   NWRITE =      2    write-flag & timer
   PREC   = normal    normal or accurate (medium, high low for compatibility)
   ISTART =      0    job   : 0-new  1-cont  2-samecut
   ICHARG =      2    charge: 1-file 2-atom 10-const
   ISPIN  =      1    spin polarized calculation?
   LNONCOLLINEAR =      F non collinear calculations
   LSORBIT =      F    spin-orbit coupling
   INIWAV =      1    electr: 0-lowe 1-rand  2-diag
   LASPH  =      F    aspherical Exc in radial PAW
   METAGGA=      F    non-selfconsistent MetaGGA calc.

 Electronic Relaxation 1
   ENCUT  =  450.0 eV  33.07 Ry    5.75 a.u.  14.57 14.57 37.84*2*pi/ulx,y,z
   ENINI  =  450.0     initial cutoff
   ENAUG  =  644.9 eV  augmentation charge cutoff
   NELM   =     60;   NELMIN=  8; NELMDL= -5     # of ELM steps 
   EDIFF  = 0.1E-03   stopping-criterion for ELM
   LREAL  =      T    real-space projection
   NLSPLINE    = F    spline interpolate recip. space projectors
   LCOMPAT=      F    compatible to vasp.4.4
   GGA_COMPAT  = T    GGA compatible to vasp.4.4-vasp.4.6
   LMAXPAW     = -100 max onsite density
   LMAXMIX     =    2 max onsite mixed and CHGCAR
   VOSKOWN=      0    Vosko Wilk Nusair interpolation
   ROPT   =   -0.00050  -0.00050  -0.00050
 Ionic relaxation
   EDIFFG = -.5E-01   stopping-criterion for IOM
   NSW    =   5000    number of steps for IOM
   NBLOCK =      1;   KBLOCK =   5000    inner block; outer block 
   IBRION =      1    ionic relax: 0-MD 1-quasi-New 2-CG
   NFREE  =      0    steps in history (QN), initial steepest desc. (CG)
   ISIF   =      2    stress and relaxation
   IWAVPR =     11    prediction:  0-non 1-charg 2-wave 3-comb
   ISYM   =      0    0-nonsym 1-usesym 2-fastsym
   LCORR  =      T    Harris-Foulkes like correction to forces

   POTIM  = 0.2000    time-step for ionic-motion
   TEIN   =    0.0    initial temperature
   TEBEG  =    0.0;   TEEND  =   0.0 temperature during run
   SMASS  =  -3.00    Nose mass-parameter (am)
   estimated Nose-frequenzy (Omega)   =  0.10E-29 period in steps =****** mass=  -0.162E-26a.u.
   SCALEE = 1.0000    scale energy and forces
   NPACO  =    256;   APACO  = 16.0  distance and # of slots for P.C.
   PSTRESS=    0.0 pullay stress

  Mass of Ions in am
   POMASS =  12.01 16.00195.08
  Ionic Valenz
   ZVAL   =   4.00  6.00 10.00
  Atomic Wigner-Seitz radii
   RWIGS  =  -1.00 -1.00 -1.00
  virtual crystal weights 
   VCA    =   1.00  1.00  1.00
   NELECT =     376.0000    total number of electrons
   NUPDOWN=      -1.0000    fix difference up-down

 DOS related values:
   EMIN   =  10.00;   EMAX   =-10.00  energy-range for DOS
   EFERMI =   0.00
   ISMEAR =     1;   SIGMA  =   0.20  broadening in eV -4-tet -1-fermi 0-gaus

 Electronic relaxation 2 (details)
   IALGO  =     68    algorithm
   LDIAG  =      T    sub-space diagonalisation (order eigenvalues)
   LSUBROT=      F    optimize rotation matrix (better conditioning)
   TURBO    =      0    0=normal 1=particle mesh
   IRESTART =      0    0=no restart 2=restart with 2 vectors
   NREBOOT  =      0    no. of reboots
   NMIN     =      0    reboot dimension
   EREF     =   0.00    reference energy to select bands
   IMIX   =      4    mixing-type and parameters
     AMIX     =   0.40;   BMIX     =  1.00
     AMIX_MAG =   1.60;   BMIX_MAG =  1.00
     AMIN     =   0.10
     WC   =   100.;   INIMIX=   1;  MIXPRE=   1;  MAXMIX= -45

 Intra band minimization:
   WEIMIN = 0.0010     energy-eigenvalue tresh-hold
   EBREAK =  0.11E-06  absolut break condition
   DEPER  =   0.30     relativ break condition  

   TIME   =   0.40     timestep for ELM

  volume/ion in A,a.u.               =      34.49       232.77
  Fermi-wavevector in a.u.,A,eV,Ry     =   1.070385  2.022734 15.588510  1.145723
  Thomas-Fermi vector in A             =   2.206093
 
 Write flags
   LWAVE        =      F    write WAVECAR
   LDOWNSAMPLE  =      F    k-point downsampling of WAVECAR
   LCHARG       =      F    write CHGCAR
   LVTOT        =      F    write LOCPOT, total local potential
   LVHAR        =      F    write LOCPOT, Hartree potential only
   LELF         =      F    write electronic localiz. function (ELF)
   LORBIT       =      0    0 simple, 1 ext, 2 COOP (PROOUT), +10 PAW based schemes


 Dipole corrections
   LMONO  =      F    monopole corrections only (constant potential shift)
   LDIPOL =      F    correct potential (dipole corrections)
   IDIPOL =      0    1-x, 2-y, 3-z, 4-all directions 
   EPSILON=  1.0000000 bulk dielectric constant

 Exchange correlation treatment:
   GGA     =    --    GGA type
   LEXCH   =     8    internal setting for exchange type
   VOSKOWN=      0    Vosko Wilk Nusair interpolation
   LHFCALC =     F    Hartree Fock is set to
   LHFONE  =     F    Hartree Fock one center treatment
   AEXX    =    0.0000 exact exchange contribution

 Linear response parameters
   LEPSILON=     F    determine dielectric tensor
   LRPA    =     F    only Hartree local field effects (RPA)
   LNABLA  =     F    use nabla operator in PAW spheres
   LVEL    =     F    velocity operator in full k-point grid
   LINTERFAST=   F  fast interpolation
   KINTER  =     0    interpolate to denser k-point grid
   CSHIFT  =0.1000    complex shift for real part using Kramers Kronig
   OMEGAMAX=  -1.0    maximum frequency
   DEG_THRESHOLD= 0.2000000E-02 threshold for treating states as degnerate
   RTIME   =   -0.100 relaxation time in fs
  (WPLASMAI=    0.000 imaginary part of plasma frequency in eV, 0.658/RTIME)
   DFIELD  = 0.0000000 0.0000000 0.0000000 field for delta impulse in time
 
 Orbital magnetization related:
   ORBITALMAG=     F  switch on orbital magnetization
   LCHIMAG   =     F  perturbation theory with respect to B field
   DQ        =  0.001000  dq finite difference perturbation B field
   LLRAUG    =     F  two centre corrections for induced B field



--------------------------------------------------------------------------------------------------------


 quasi-Newton-method for relaxation of ions
   using selective dynamics as specified on POSCAR
 charge density and potential will be updated during run
 non-spin polarized calculation
 RMM-DIIS sequential band-by-band and
  variant of blocked Davidson during initial phase
 perform sub-space diagonalisation
    before iterative eigenvector-optimisation
 modified Broyden-mixing scheme, WC =      100.0
 initial mixing is a Kerker type mixing with AMIX =  0.4000 and BMIX =      1.0000
 Hartree-type preconditioning will be used
 using additional bands           40
 real space projection scheme for non local part
 use partial core corrections
 calculate Harris-corrections to forces 
   (improved forces if not selfconsistent)
 use gradient corrections 
 use of overlap-Matrix (Vanderbilt PP)
 Methfessel and Paxton  Order N= 1 SIGMA  =   0.20


--------------------------------------------------------------------------------------------------------


  energy-cutoff  :      450.00
  volume of cell :     1345.22
      direct lattice vectors                 reciprocal lattice vectors
     7.296955120 -4.212899000  0.000000000     0.137043463  0.000000000  0.000000000
     0.000000000  8.425798000  0.000000000     0.068521732  0.118683121  0.000000000
     0.000000000  0.000000000 21.879635000     0.000000000  0.000000000  0.045704602

  length of vectors
     8.425798004  8.425798000 21.879635000     0.137043463  0.137043463  0.045704602


 
 k-points in units of 2pi/SCALE and weight: mesh auto                               
   0.00000000  0.00000000  0.00000000       0.250
   0.06852173  0.00000000  0.00000000       0.250
   0.03426087  0.05934156  0.00000000       0.250
   0.10278260  0.05934156  0.00000000       0.250
 
 k-points in reciprocal lattice and weights: mesh auto                               
   0.00000000  0.00000000  0.00000000       0.250
   0.50000000  0.00000000  0.00000000       0.250
  -0.00000000  0.50000000  0.00000000       0.250
   0.50000000  0.50000000  0.00000000       0.250
 
 position of ions in fractional coordinates (direct lattice) 
   0.69767794  0.43368843  0.47785102
   0.90712690  0.38187746  0.46178126
   0.66954140  0.46054431  0.52773956
   0.98675500  0.32859100  0.07437600
   0.32008800  0.32859100  0.07437600
   0.65342200  0.32859100  0.07437600
   0.98675500  0.66192500  0.07437600
   0.32008800  0.66192500  0.07437600
   0.65342200  0.66192500  0.07437600
   0.32008800  0.99525800  0.07437600
   0.65342200  0.99525800  0.07437600
   0.98675500  0.99525800  0.07437600
   0.20897700  0.10636900  0.17918600
   0.54231100  0.10636900  0.17918600
   0.87564400  0.10636900  0.17918600
   0.20897700  0.43970300  0.17918600
   0.54231100  0.43970300  0.17918600
   0.87564400  0.43970300  0.17918600
   0.20897700  0.77303600  0.17918600
   0.54231100  0.77303600  0.17918600
   0.87564400  0.77303600  0.17918600
   0.09484552  0.55039387  0.28138095
   0.43397033  0.88565592  0.28055911
   0.75968078  0.22165695  0.28150078
   0.09748896  0.21390533  0.28275310
   0.43583367  0.21953803  0.28429602
   0.09715736  0.88532903  0.28649639
   0.76673371  0.88083283  0.28220871
   0.43274255  0.55294555  0.28351032
   0.76128580  0.55168466  0.28101927
   0.32651795  0.66058405  0.38566693
   0.65315933  0.99149782  0.38554715
   0.32552088  0.32401613  0.38325209
   0.98811808  0.98946118  0.38538374
   0.32410665  0.99298023  0.38418755
   0.64772920  0.32742198  0.39688239
   0.99825121  0.66278170  0.38966305
   0.98909100  0.31901625  0.39521071
   0.65122166  0.65985778  0.39397288
 
 position of ions in cartesian coordinates  (Angst):
   5.09092463  0.71492441 10.45520600
   6.61926431 -0.60401170 10.10360552
   4.88561352  1.05974307 11.54674887
   7.20030695 -1.38845776  1.62731973
   2.33566777  1.42014298  1.62731973
   4.76799101  0.01584050  1.62731973
   7.20030695  1.42014719  1.62731973
   2.33566777  4.22874793  1.62731973
   4.76799101  2.82444545  1.62731973
   2.33566777  7.03734445  1.62731973
   4.76799101  5.63304198  1.62731973
   7.20030695  4.22874371  1.62731973
   1.52489579  0.01584471  3.92052428
   3.95721903 -1.38845776  3.92052428
   6.38953497 -2.79275602  3.92052428
   1.52489579  2.82444966  3.92052428
   3.95721903  1.42014719  3.92052428
   6.38953497  0.01584893  3.92052428
   1.52489579  5.63304619  3.92052428
   3.95721903  4.22874371  3.92052428
   6.38953497  2.82444545  3.92052428
   0.69208347  4.23793299  6.15651246
   3.16666202  5.63408471  6.13853084
   5.54335656 -1.33282174  6.15913426
   0.71137257  1.39161194  6.18653454
   3.18025876  0.01365988  6.22029314
   0.70895288  7.05028940  6.26843639
   5.59482148  4.19154780  6.17462353
   3.15770293  2.83590691  6.20310242
   5.55506829  1.44116337  6.14859897
   2.38258686  4.19036057  8.43825172
   4.76607431  5.60246609  8.43563090
   2.37531126  1.35870785  8.38541583
   7.21025329  4.17415839  8.43205561
   2.36499169  7.00122226  8.40588337
   4.72645090  0.02997381  8.68364194
   7.28419425  1.37893319  8.52568529
   7.21735260 -1.47897395  8.64706606
   4.75193521  2.81629732  8.61998283
 


--------------------------------------------------------------------------------------------------------


 k-point  1 :   0.0000 0.0000 0.0000  plane waves:   29241
 k-point  2 :   0.5000 0.0000 0.0000  plane waves:   29108
 k-point  3 :  -0.0000 0.5000 0.0000  plane waves:   29108
 k-point  4 :   0.5000 0.5000 0.0000  plane waves:   29108

 maximum and minimum number of plane-waves per node :     14624    14548

 maximum number of plane-waves:     29241
 maximum index in each direction: 
   IXMAX=   14   IYMAX=   14   IZMAX=   37
   IXMIN=  -15   IYMIN=  -15   IZMIN=  -37


 real space projection operators:
  total allocation   :      13555.86 KBytes
  max/ min on nodes  :       6789.09       6766.77


 parallel 3D FFT for wavefunctions:
    minimum data exchange during FFTs selected (reduces bandwidth)
 parallel 3D FFT for charge:
    minimum data exchange during FFTs selected (reduces bandwidth)


 total amount of memory used by VASP MPI-rank0   131957. kBytes
=======================================================================

   base      :      30000. kBytes
   nonlr-proj:      10149. kBytes
   fftplans  :      13556. kBytes
   grid      :      23353. kBytes
   one-center:        311. kBytes
   wavefun   :      54588. kBytes
 
     INWAV:  cpu time    0.0000: real time    0.0062
 Broyden mixing: mesh for mixing (old mesh)
   NGX = 29   NGY = 29   NGZ = 75
  (NGX  = 96   NGY  = 96   NGZ  =240)
  gives a total of  63075 points

 initial charge density was supplied:
 charge density of overlapping atoms calculated
 number of electron     376.0000000 magnetization 
 keeping initial charge density in first step


--------------------------------------------------------------------------------------------------------


 Maximum index for non-local projection operator         1320
 Maximum index for augmentation-charges         1558 (set IRDMAX)


--------------------------------------------------------------------------------------------------------


 First call to EWALD:  gamma=   0.161
 Maximum number of real-space cells 4x 4x 2
 Maximum number of reciprocal cells 2x 2x 5

    FEWALD:  cpu time    0.0024: real time    0.0024


--------------------------------------- Iteration      1(   1)  ---------------------------------------


    POTLOK:  cpu time    0.2188: real time    0.3442
    SETDIJ:  cpu time    0.0145: real time    0.0145
     EDDAV:  cpu time    9.3594: real time    9.4154
       DOS:  cpu time    0.0010: real time    0.0010
    --------------------------------------------
      LOOP:  cpu time    9.5936: real time    9.7751

 eigenvalue-minimisations  :  1824
 total energy-change (2. order) : 0.2423909E+04  (-0.1595355E+05)
 number of electron     376.0000000 magnetization 
 augmentation part      376.0000000 magnetization 

 Free energy of the ion-electron system (eV)
  ---------------------------------------------------
  alpha Z        PSCENC =       975.10247152
  Ewald energy   TEWEN  =     91331.69804104
  -Hartree energ DENC   =   -120417.09608236
  -exchange      EXHF   =         0.00000000
  -V(xc)+E(xc)   XCENC  =       189.99002445
  PAW double counting   =     24789.08602224   -23775.73976456
  entropy T*S    EENTRO =        -0.00065741
  eigenvalues    EBANDS =      2070.97513830
  atomic energy  EATOM  =     27259.89416086
  Solvation  Ediel_sol  =         0.00000000
  ---------------------------------------------------
  free energy    TOTEN  =      2423.90935408 eV

  energy without entropy =     2423.91001149  energy(sigma->0) =     2423.90957322


--------------------------------------------------------------------------------------------------------




--------------------------------------- Iteration      1(   2)  ---------------------------------------


     EDDAV:  cpu time    8.8495: real time    8.9026
       DOS:  cpu time    0.0010: real time    0.0010
    --------------------------------------------
      LOOP:  cpu time    8.8505: real time    8.9036

 eigenvalue-minimisations  :  2128
 total energy-change (2. order) :-0.2488177E+04  (-0.2308273E+04)
 number of electron     376.0000000 magnetization 
 augmentation part      376.0000000 magnetization 

 Free energy of the ion-electron system (eV)
  ---------------------------------------------------
  alpha Z        PSCENC =       975.10247152
  Ewald energy   TEWEN  =     91331.69804104
  -Hartree energ DENC   =   -120417.09608236
  -exchange      EXHF   =         0.00000000
  -V(xc)+E(xc)   XCENC  =       189.99002445
  PAW double counting   =     24789.08602224   -23775.73976456
  entropy T*S    EENTRO =        -0.05346618
  eigenvalues    EBANDS =      -417.14950009
  atomic energy  EATOM  =     27259.89416086
  Solvation  Ediel_sol  =         0.00000000
  ---------------------------------------------------
  free energy    TOTEN  =       -64.26809308 eV

  energy without entropy =      -64.21462690  energy(sigma->0) =      -64.25027102


--------------------------------------------------------------------------------------------------------




--------------------------------------- Iteration      1(   3)  ---------------------------------------


     EDDAV:  cpu time    8.4975: real time    8.5466
       DOS:  cpu time    0.0010: real time    0.0010
    --------------------------------------------
      LOOP:  cpu time    8.4985: real time    8.5477

 eigenvalue-minimisations  :  2184
 total energy-change (2. order) :-0.1758876E+03  (-0.1601185E+03)
 number of electron     376.0000000 magnetization 
 augmentation part      376.0000000 magnetization 

 Free energy of the ion-electron system (eV)
  ---------------------------------------------------
  alpha Z        PSCENC =       975.10247152
  Ewald energy   TEWEN  =     91331.69804104
  -Hartree energ DENC   =   -120417.09608236
  -exchange      EXHF   =         0.00000000
  -V(xc)+E(xc)   XCENC  =       189.99002445
  PAW double counting   =     24789.08602224   -23775.73976456
  entropy T*S    EENTRO =        -0.00122603
  eigenvalues    EBANDS =      -593.08934655
  atomic energy  EATOM  =     27259.89416086
  Solvation  Ediel_sol  =         0.00000000
  ---------------------------------------------------
  free energy    TOTEN  =      -240.15569939 eV

  energy without entropy =     -240.15447336  energy(sigma->0) =     -240.15529071


--------------------------------------------------------------------------------------------------------




--------------------------------------- Iteration      1(   4)  ---------------------------------------


     EDDAV:  cpu time    9.7414: real time    9.8029
       DOS:  cpu time    0.0011: real time    0.0011
    --------------------------------------------
      LOOP:  cpu time    9.7425: real time    9.8041

 eigenvalue-minimisations  :  2336
 total energy-change (2. order) :-0.7448854E+01  (-0.7153632E+01)
 number of electron     376.0000000 magnetization 
 augmentation part      376.0000000 magnetization 

 Free energy of the ion-electron system (eV)
  ---------------------------------------------------
  alpha Z        PSCENC =       975.10247152
  Ewald energy   TEWEN  =     91331.69804104
  -Hartree energ DENC   =   -120417.09608236
  -exchange      EXHF   =         0.00000000
  -V(xc)+E(xc)   XCENC  =       189.99002445
  PAW double counting   =     24789.08602224   -23775.73976456
  entropy T*S    EENTRO =        -0.00480231
  eigenvalues    EBANDS =      -600.53462442
  atomic energy  EATOM  =     27259.89416086
  Solvation  Ediel_sol  =         0.00000000
  ---------------------------------------------------
  free energy    TOTEN  =      -247.60455354 eV

  energy without entropy =     -247.59975123  energy(sigma->0) =     -247.60295277


--------------------------------------------------------------------------------------------------------




--------------------------------------- Iteration      1(   5)  ---------------------------------------


     EDDAV:  cpu time    9.3527: real time    9.4100
       DOS:  cpu time    0.0010: real time    0.0010
    CHARGE:  cpu time    0.4354: real time    0.4384
    MIXING:  cpu time    0.0075: real time    0.0075
    --------------------------------------------
      LOOP:  cpu time    9.7966: real time    9.8570

 eigenvalue-minimisations  :  2336
 total energy-change (2. order) :-0.2154159E+00  (-0.2142499E+00)
 number of electron     376.0000019 magnetization 
 augmentation part      105.8878988 magnetization 

 Broyden mixing:
  rms(total) = 0.27237E+01    rms(broyden)= 0.27233E+01
  rms(prec ) = 0.30235E+01
  weight for this iteration     100.00

 Free energy of the ion-electron system (eV)
  ---------------------------------------------------
  alpha Z        PSCENC =       975.10247152
  Ewald energy   TEWEN  =     91331.69804104
  -Hartree energ DENC   =   -120417.09608236
  -exchange      EXHF   =         0.00000000
  -V(xc)+E(xc)   XCENC  =       189.99002445
  PAW double counting   =     24789.08602224   -23775.73976456
  entropy T*S    EENTRO =        -0.00476668
  eigenvalues    EBANDS =      -600.75007598
  atomic energy  EATOM  =     27259.89416086
  Solvation  Ediel_sol  =         0.00000000
  ---------------------------------------------------
  free energy    TOTEN  =      -247.81996947 eV

  energy without entropy =     -247.81520279  energy(sigma->0) =     -247.81838057


--------------------------------------------------------------------------------------------------------




--------------------------------------- Iteration      1(   6)  ---------------------------------------


    POTLOK:  cpu time    0.1305: real time    0.1315
    SETDIJ:  cpu time    0.0094: real time    0.0095
    EDDIAG:  cpu time    1.5503: real time    1.5746
  RMM-DIIS:  cpu time    5.5392: real time    5.5844
    ORTHCH:  cpu time    0.3523: real time    0.3546
       DOS:  cpu time    0.0013: real time    0.0014
    CHARGE:  cpu time    0.6420: real time    0.6462
    MIXING:  cpu time    0.0069: real time    0.0069
    --------------------------------------------
      LOOP:  cpu time    8.2321: real time    8.3091

 eigenvalue-minimisations  :  1828
 total energy-change (2. order) : 0.3447107E+01  (-0.5530392E+01)
 number of electron     376.0000021 magnetization 
 augmentation part      112.7384329 magnetization 

 Broyden mixing:
  rms(total) = 0.27696E+01    rms(broyden)= 0.27687E+01
  rms(prec ) = 0.38292E+01
  weight for this iteration     100.00

 eigenvalues of (default mixing * dielectric matrix)
  average eigenvalue GAMMA=   0.5143
  0.5143

 Free energy of the ion-electron system (eV)
  ---------------------------------------------------
  alpha Z        PSCENC =       975.10247152
  Ewald energy   TEWEN  =     91331.69804104
  -Hartree energ DENC   =   -119966.89379462
  -exchange      EXHF   =         0.00000000
  -V(xc)+E(xc)   XCENC  =       182.85141752
  PAW double counting   =     26766.08740558   -25806.42703004
  entropy T*S    EENTRO =        -0.14164374
  eigenvalues    EBANDS =      -986.54389050
  atomic energy  EATOM  =     27259.89416086
  Solvation  Ediel_sol  =         0.00000000
  ---------------------------------------------------
  free energy    TOTEN  =      -244.37286237 eV

  energy without entropy =     -244.23121863  energy(sigma->0) =     -244.32564779


--------------------------------------------------------------------------------------------------------




--------------------------------------- Iteration      1(   7)  ---------------------------------------


    POTLOK:  cpu time    0.1693: real time    0.1705
    SETDIJ:  cpu time    0.0218: real time    0.0219
    EDDIAG:  cpu time    1.9118: real time    1.9247
  RMM-DIIS:  cpu time    6.5117: real time    6.5552
    ORTHCH:  cpu time    0.2766: real time    0.2784
       DOS:  cpu time    0.0015: real time    0.0015
    CHARGE:  cpu time    0.4690: real time    0.4720
    MIXING:  cpu time    0.0061: real time    0.0062
    --------------------------------------------
      LOOP:  cpu time    9.3678: real time    9.4304

 eigenvalue-minimisations  :  1831
 total energy-change (2. order) :-0.1917625E+01  (-0.3111906E+01)
 number of electron     376.0000036 magnetization 
 augmentation part      111.3759363 magnetization 

 Broyden mixing:
  rms(total) = 0.22210E+01    rms(broyden)= 0.22204E+01
  rms(prec ) = 0.39126E+01
  weight for this iteration     100.00

 eigenvalues of (default mixing * dielectric matrix)
  average eigenvalue GAMMA=   0.5518
  0.8664  0.2371

 Free energy of the ion-electron system (eV)
  ---------------------------------------------------
  alpha Z        PSCENC =       975.10247152
  Ewald energy   TEWEN  =     91331.69804104
  -Hartree energ DENC   =   -120152.03256160
  -exchange      EXHF   =         0.00000000
  -V(xc)+E(xc)   XCENC  =       180.67468551
  PAW double counting   =     27413.23328335   -26461.18457843
  entropy T*S    EENTRO =        -0.12338971
  eigenvalues    EBANDS =      -793.55260025
  atomic energy  EATOM  =     27259.89416086
  Solvation  Ediel_sol  =         0.00000000
  ---------------------------------------------------
  free energy    TOTEN  =      -246.29048772 eV

  energy without entropy =     -246.16709800  energy(sigma->0) =     -246.24935781


--------------------------------------------------------------------------------------------------------




--------------------------------------- Iteration      1(   8)  ---------------------------------------


    POTLOK:  cpu time    0.1344: real time    0.1353
    SETDIJ:  cpu time    0.0121: real time    0.0122
    EDDIAG:  cpu time    1.3652: real time    1.3739
  RMM-DIIS:  cpu time    4.1230: real time    4.1505
    ORTHCH:  cpu time    0.2141: real time    0.2153
       DOS:  cpu time    0.0011: real time    0.0011
    CHARGE:  cpu time    0.3752: real time    0.3775
    MIXING:  cpu time    0.0104: real time    0.0104
    --------------------------------------------
      LOOP:  cpu time    6.2355: real time    6.2761

 eigenvalue-minimisations  :  1825
 total energy-change (2. order) : 0.3485789E+01  (-0.1033067E+01)
 number of electron     376.0000021 magnetization 
 augmentation part      111.9042287 magnetization 

 Broyden mixing:
  rms(total) = 0.22614E+01    rms(broyden)= 0.22612E+01
  rms(prec ) = 0.37249E+01
  weight for this iteration     100.00

 eigenvalues of (default mixing * dielectric matrix)
  average eigenvalue GAMMA=   0.5170
  1.1296  0.2704  0.1510

 Free energy of the ion-electron system (eV)
  ---------------------------------------------------
  alpha Z        PSCENC =       975.10247152
  Ewald energy   TEWEN  =     91331.69804104
  -Hartree energ DENC   =   -120123.90370525
  -exchange      EXHF   =         0.00000000
  -V(xc)+E(xc)   XCENC  =       179.60704232
  PAW double counting   =     27992.06013787   -27049.07942711
  entropy T*S    EENTRO =        -0.03601733
  eigenvalues    EBANDS =      -808.14740277
  atomic energy  EATOM  =     27259.89416086
  Solvation  Ediel_sol  =         0.00000000
  ---------------------------------------------------
  free energy    TOTEN  =      -242.80469884 eV

  energy without entropy =     -242.76868151  energy(sigma->0) =     -242.79269306


--------------------------------------------------------------------------------------------------------




--------------------------------------- Iteration      1(   9)  ---------------------------------------


    POTLOK:  cpu time    0.1431: real time    0.1438
    SETDIJ:  cpu time    0.0111: real time    0.0112
    EDDIAG:  cpu time    0.9567: real time    0.9622
  RMM-DIIS:  cpu time    3.7163: real time    3.7395
    ORTHCH:  cpu time    0.2279: real time    0.2293
       DOS:  cpu time    0.0013: real time    0.0013
    CHARGE:  cpu time    0.3733: real time    0.3756
    MIXING:  cpu time    0.0048: real time    0.0049
    --------------------------------------------
      LOOP:  cpu time    5.4345: real time    5.4676

 eigenvalue-minimisations  :  1831
 total energy-change (2. order) : 0.1129871E+02  (-0.6135420E+00)
 number of electron     376.0000022 magnetization 
 augmentation part      112.7176534 magnetization 

 Broyden mixing:
  rms(total) = 0.84573E+00    rms(broyden)= 0.84536E+00
  rms(prec ) = 0.11462E+01
  weight for this iteration     100.00

 eigenvalues of (default mixing * dielectric matrix)
  average eigenvalue GAMMA=   0.5290
  1.2915  0.3701  0.3153  0.1391

 Free energy of the ion-electron system (eV)
  ---------------------------------------------------
  alpha Z        PSCENC =       975.10247152
  Ewald energy   TEWEN  =     91331.69804104
  -Hartree energ DENC   =   -120048.18692233
  -exchange      EXHF   =         0.00000000
  -V(xc)+E(xc)   XCENC  =       178.95237443
  PAW double counting   =     28685.05129590   -27752.79318373
  entropy T*S    EENTRO =        -0.09090655
  eigenvalues    EBANDS =      -861.13332379
  atomic energy  EATOM  =     27259.89416086
  Solvation  Ediel_sol  =         0.00000000
  ---------------------------------------------------
  free energy    TOTEN  =      -231.50599265 eV

  energy without entropy =     -231.41508610  energy(sigma->0) =     -231.47569046


--------------------------------------------------------------------------------------------------------




--------------------------------------- Iteration      1(  10)  ---------------------------------------


    POTLOK:  cpu time    0.1552: real time    0.1562
    SETDIJ:  cpu time    0.0105: real time    0.0105
    EDDIAG:  cpu time    1.3112: real time    1.3192
  RMM-DIIS:  cpu time    4.2309: real time    4.2561
    ORTHCH:  cpu time    0.2278: real time    0.2292
       DOS:  cpu time    0.0012: real time    0.0012
    CHARGE:  cpu time    0.4170: real time    0.4195
    MIXING:  cpu time    0.0050: real time    0.0050
    --------------------------------------------
      LOOP:  cpu time    6.3588: real time    6.3969

 eigenvalue-minimisations  :  1831
 total energy-change (2. order) : 0.1080553E+01  (-0.1874633E+00)
 number of electron     376.0000023 magnetization 
 augmentation part      112.8145633 magnetization 

 Broyden mixing:
  rms(total) = 0.51879E+00    rms(broyden)= 0.51870E+00
  rms(prec ) = 0.63534E+00
  weight for this iteration     100.00

 eigenvalues of (default mixing * dielectric matrix)
  average eigenvalue GAMMA=   0.5421
  1.3976  0.4608  0.4608  0.1407  0.2503

 Free energy of the ion-electron system (eV)
  ---------------------------------------------------
  alpha Z        PSCENC =       975.10247152
  Ewald energy   TEWEN  =     91331.69804104
  -Hartree energ DENC   =   -120040.29110559
  -exchange      EXHF   =         0.00000000
  -V(xc)+E(xc)   XCENC  =       178.77088672
  PAW double counting   =     29100.41286209   -28173.70783320
  entropy T*S    EENTRO =        -0.00533189
  eigenvalues    EBANDS =      -862.29959112
  atomic energy  EATOM  =     27259.89416086
  Solvation  Ediel_sol  =         0.00000000
  ---------------------------------------------------
  free energy    TOTEN  =      -230.42543957 eV

  energy without entropy =     -230.42010768  energy(sigma->0) =     -230.42366228


--------------------------------------------------------------------------------------------------------




--------------------------------------- Iteration      1(  11)  ---------------------------------------


    POTLOK:  cpu time    0.1294: real time    0.1303
    SETDIJ:  cpu time    0.0097: real time    0.0098
    EDDIAG:  cpu time    1.1949: real time    1.2019
  RMM-DIIS:  cpu time    4.2912: real time    4.3177
    ORTHCH:  cpu time    0.2043: real time    0.2053
       DOS:  cpu time    0.0011: real time    0.0011
    CHARGE:  cpu time    0.3174: real time    0.3193
    MIXING:  cpu time    0.0064: real time    0.0064
    --------------------------------------------
      LOOP:  cpu time    6.1545: real time    6.1918

 eigenvalue-minimisations  :  1831
 total energy-change (2. order) : 0.2798975E+00  (-0.4737865E-01)
 number of electron     376.0000023 magnetization 
 augmentation part      112.9361917 magnetization 

 Broyden mixing:
  rms(total) = 0.32566E+00    rms(broyden)= 0.32531E+00
  rms(prec ) = 0.43983E+00
  weight for this iteration     100.00

 eigenvalues of (default mixing * dielectric matrix)
  average eigenvalue GAMMA=   0.6025
  1.6255  0.9041  0.1393  0.3772  0.3387  0.2302

 Free energy of the ion-electron system (eV)
  ---------------------------------------------------
  alpha Z        PSCENC =       975.10247152
  Ewald energy   TEWEN  =     91331.69804104
  -Hartree energ DENC   =   -120041.13350864
  -exchange      EXHF   =         0.00000000
  -V(xc)+E(xc)   XCENC  =       178.77261884
  PAW double counting   =     29385.39255360   -28462.33892556
  entropy T*S    EENTRO =        -0.04761005
  eigenvalues    EBANDS =      -857.48534364
  atomic energy  EATOM  =     27259.89416086
  Solvation  Ediel_sol  =         0.00000000
  ---------------------------------------------------
  free energy    TOTEN  =      -230.14554204 eV

  energy without entropy =     -230.09793198  energy(sigma->0) =     -230.12967202


--------------------------------------------------------------------------------------------------------




--------------------------------------- Iteration      1(  12)  ---------------------------------------


    POTLOK:  cpu time    0.1184: real time    0.1192
    SETDIJ:  cpu time    0.0097: real time    0.0098
    EDDIAG:  cpu time    1.2879: real time    1.2957
  RMM-DIIS:  cpu time    4.2005: real time    4.2273
    ORTHCH:  cpu time    0.1979: real time    0.1990
       DOS:  cpu time    0.0010: real time    0.0010
    CHARGE:  cpu time    0.3200: real time    0.3218
    MIXING:  cpu time    0.0051: real time    0.0051
    --------------------------------------------
      LOOP:  cpu time    6.1404: real time    6.1788

 eigenvalue-minimisations  :  1840
 total energy-change (2. order) : 0.1471662E+00  (-0.2168579E-01)
 number of electron     376.0000023 magnetization 
 augmentation part      112.9772327 magnetization 

 Broyden mixing:
  rms(total) = 0.18918E+00    rms(broyden)= 0.18916E+00
  rms(prec ) = 0.21750E+00
  weight for this iteration     100.00

 eigenvalues of (default mixing * dielectric matrix)
  average eigenvalue GAMMA=   0.6659
  1.9672  1.0672  0.4877  0.4877  0.1393  0.2686  0.2433

 Free energy of the ion-electron system (eV)
  ---------------------------------------------------
  alpha Z        PSCENC =       975.10247152
  Ewald energy   TEWEN  =     91331.69804104
  -Hartree energ DENC   =   -120034.68961178
  -exchange      EXHF   =         0.00000000
  -V(xc)+E(xc)   XCENC  =       178.71312837
  PAW double counting   =     29743.94966559   -28825.19600218
  entropy T*S    EENTRO =        -0.03908506
  eigenvalues    EBANDS =      -859.43114418
  atomic energy  EATOM  =     27259.89416086
  Solvation  Ediel_sol  =         0.00000000
  ---------------------------------------------------
  free energy    TOTEN  =      -229.99837581 eV

  energy without entropy =     -229.95929075  energy(sigma->0) =     -229.98534746


--------------------------------------------------------------------------------------------------------




--------------------------------------- Iteration      1(  13)  ---------------------------------------


    POTLOK:  cpu time    0.1213: real time    0.1220
    SETDIJ:  cpu time    0.0111: real time    0.0111
    EDDIAG:  cpu time    1.1646: real time    1.1717
  RMM-DIIS:  cpu time    3.5129: real time    3.5358
    ORTHCH:  cpu time    0.2035: real time    0.2047
       DOS:  cpu time    0.0012: real time    0.0012
    CHARGE:  cpu time    0.3924: real time    0.3950
    MIXING:  cpu time    0.0122: real time    0.0123
    --------------------------------------------
      LOOP:  cpu time    5.4191: real time    5.4538

 eigenvalue-minimisations  :  1834
 total energy-change (2. order) :-0.9683182E-02  (-0.1166880E-01)
 number of electron     376.0000022 magnetization 
 augmentation part      112.9881113 magnetization 

 Broyden mixing:
  rms(total) = 0.19785E+00    rms(broyden)= 0.19784E+00
  rms(prec ) = 0.26184E+00
  weight for this iteration     100.00

 eigenvalues of (default mixing * dielectric matrix)
  average eigenvalue GAMMA=   0.6889
  2.2063  1.1247  0.8209  0.4302  0.1394  0.2849  0.2849  0.2198

 Free energy of the ion-electron system (eV)
  ---------------------------------------------------
  alpha Z        PSCENC =       975.10247152
  Ewald energy   TEWEN  =     91331.69804104
  -Hartree energ DENC   =   -120034.14524557
  -exchange      EXHF   =         0.00000000
  -V(xc)+E(xc)   XCENC  =       178.63777397
  PAW double counting   =     29974.90019645   -29058.88258715
  entropy T*S    EENTRO =        -0.02979951
  eigenvalues    EBANDS =      -857.18307062
  atomic energy  EATOM  =     27259.89416086
  Solvation  Ediel_sol  =         0.00000000
  ---------------------------------------------------
  free energy    TOTEN  =      -230.00805900 eV

  energy without entropy =     -229.97825948  energy(sigma->0) =     -229.99812582


--------------------------------------------------------------------------------------------------------




--------------------------------------- Iteration      1(  14)  ---------------------------------------


    POTLOK:  cpu time    0.1677: real time    0.1690
    SETDIJ:  cpu time    0.0100: real time    0.0101
    EDDIAG:  cpu time    1.1933: real time    1.2016
  RMM-DIIS:  cpu time    3.8328: real time    3.8576
    ORTHCH:  cpu time    0.2762: real time    0.2780
       DOS:  cpu time    0.0012: real time    0.0012
    CHARGE:  cpu time    0.3955: real time    0.3986
    MIXING:  cpu time    0.0053: real time    0.0054
    --------------------------------------------
      LOOP:  cpu time    5.8819: real time    5.9214

 eigenvalue-minimisations  :  1831
 total energy-change (2. order) : 0.5285664E-01  (-0.6478754E-02)
 number of electron     376.0000023 magnetization 
 augmentation part      112.9794692 magnetization 

 Broyden mixing:
  rms(total) = 0.87697E-01    rms(broyden)= 0.87679E-01
  rms(prec ) = 0.11303E+00
  weight for this iteration     100.00

 eigenvalues of (default mixing * dielectric matrix)
  average eigenvalue GAMMA=   0.7178
  2.4036  1.2226  0.8984  0.6269  0.4045  0.1394  0.3033  0.2447  0.2171

 Free energy of the ion-electron system (eV)
  ---------------------------------------------------
  alpha Z        PSCENC =       975.10247152
  Ewald energy   TEWEN  =     91331.69804104
  -Hartree energ DENC   =   -120039.77310862
  -exchange      EXHF   =         0.00000000
  -V(xc)+E(xc)   XCENC  =       178.58421335
  PAW double counting   =     30118.28956847   -29203.94605125
  entropy T*S    EENTRO =        -0.03730818
  eigenvalues    EBANDS =      -849.76718955
  atomic energy  EATOM  =     27259.89416086
  Solvation  Ediel_sol  =         0.00000000
  ---------------------------------------------------
  free energy    TOTEN  =      -229.95520236 eV

  energy without entropy =     -229.91789418  energy(sigma->0) =     -229.94276630


--------------------------------------------------------------------------------------------------------




--------------------------------------- Iteration      1(  15)  ---------------------------------------


    POTLOK:  cpu time    0.1296: real time    0.1307
    SETDIJ:  cpu time    0.0101: real time    0.0102
    EDDIAG:  cpu time    1.2102: real time    1.2186
  RMM-DIIS:  cpu time    3.7652: real time    3.7893
    ORTHCH:  cpu time    0.2376: real time    0.2389
       DOS:  cpu time    0.0011: real time    0.0011
    CHARGE:  cpu time    0.3072: real time    0.3089
    MIXING:  cpu time    0.0055: real time    0.0055
    --------------------------------------------
      LOOP:  cpu time    5.6665: real time    5.7032

 eigenvalue-minimisations  :  1831
 total energy-change (2. order) : 0.4863362E-02  (-0.2711081E-02)
 number of electron     376.0000023 magnetization 
 augmentation part      112.9586652 magnetization 

 Broyden mixing:
  rms(total) = 0.58378E-01    rms(broyden)= 0.58330E-01
  rms(prec ) = 0.72086E-01
  weight for this iteration     100.00

 eigenvalues of (default mixing * dielectric matrix)
  average eigenvalue GAMMA=   0.7080
  2.4817  1.2849  0.9141  0.7391  0.4480  0.1394  0.3087  0.3087  0.2392  0.2162

 Free energy of the ion-electron system (eV)
  ---------------------------------------------------
  alpha Z        PSCENC =       975.10247152
  Ewald energy   TEWEN  =     91331.69804104
  -Hartree energ DENC   =   -120042.39799077
  -exchange      EXHF   =         0.00000000
  -V(xc)+E(xc)   XCENC  =       178.57245583
  PAW double counting   =     30192.81876895   -29279.26220713
  entropy T*S    EENTRO =        -0.03140012
  eigenvalues    EBANDS =      -846.34463919
  atomic energy  EATOM  =     27259.89416086
  Solvation  Ediel_sol  =         0.00000000
  ---------------------------------------------------
  free energy    TOTEN  =      -229.95033900 eV

  energy without entropy =     -229.91893887  energy(sigma->0) =     -229.93987229


--------------------------------------------------------------------------------------------------------




--------------------------------------- Iteration      1(  16)  ---------------------------------------


    POTLOK:  cpu time    0.1359: real time    0.1367
    SETDIJ:  cpu time    0.0167: real time    0.0168
    EDDIAG:  cpu time    1.1711: real time    1.1777
  RMM-DIIS:  cpu time    4.0547: real time    4.0837
    ORTHCH:  cpu time    0.2251: real time    0.2265
       DOS:  cpu time    0.0012: real time    0.0012
    CHARGE:  cpu time    0.3302: real time    0.3320
    MIXING:  cpu time    0.0193: real time    0.0194
    --------------------------------------------
      LOOP:  cpu time    5.9542: real time    5.9940

 eigenvalue-minimisations  :  1831
 total energy-change (2. order) : 0.5472174E-02  (-0.5997469E-03)
 number of electron     376.0000023 magnetization 
 augmentation part      112.9609274 magnetization 

 Broyden mixing:
  rms(total) = 0.20926E-01    rms(broyden)= 0.20920E-01
  rms(prec ) = 0.25128E-01
  weight for this iteration     100.00

 eigenvalues of (default mixing * dielectric matrix)
  average eigenvalue GAMMA=   0.6860
  2.5047  1.3009  0.8851  0.6948  0.5561  0.4012  0.1394  0.3048  0.3048  0.2386
  0.2159

 Free energy of the ion-electron system (eV)
  ---------------------------------------------------
  alpha Z        PSCENC =       975.10247152
  Ewald energy   TEWEN  =     91331.69804104
  -Hartree energ DENC   =   -120043.55271199
  -exchange      EXHF   =         0.00000000
  -V(xc)+E(xc)   XCENC  =       178.58421140
  PAW double counting   =     30210.74966830   -29297.34741623
  entropy T*S    EENTRO =        -0.03382857
  eigenvalues    EBANDS =      -845.03946316
  atomic energy  EATOM  =     27259.89416086
  Solvation  Ediel_sol  =         0.00000000
  ---------------------------------------------------
  free energy    TOTEN  =      -229.94486682 eV

  energy without entropy =     -229.91103825  energy(sigma->0) =     -229.93359063


--------------------------------------------------------------------------------------------------------




--------------------------------------- Iteration      1(  17)  ---------------------------------------


    POTLOK:  cpu time    0.1356: real time    0.1365
    SETDIJ:  cpu time    0.0169: real time    0.0169
    EDDIAG:  cpu time    1.1519: real time    1.1584
  RMM-DIIS:  cpu time    4.4044: real time    4.4315
    ORTHCH:  cpu time    0.2283: real time    0.2296
       DOS:  cpu time    0.0012: real time    0.0012
    CHARGE:  cpu time    0.4272: real time    0.4296
    MIXING:  cpu time    0.0069: real time    0.0069
    --------------------------------------------
      LOOP:  cpu time    6.3724: real time    6.4106

 eigenvalue-minimisations  :  1807
 total energy-change (2. order) : 0.4936544E-03  (-0.1327505E-03)
 number of electron     376.0000023 magnetization 
 augmentation part      112.9606746 magnetization 

 Broyden mixing:
  rms(total) = 0.12763E-01    rms(broyden)= 0.12761E-01
  rms(prec ) = 0.15221E-01
  weight for this iteration     100.00

 eigenvalues of (default mixing * dielectric matrix)
  average eigenvalue GAMMA=   0.7322
  2.5356  1.4009  0.9939  0.9603  0.9603  0.4449  0.1394  0.3322  0.3020  0.2157
  0.2373  0.2641

 Free energy of the ion-electron system (eV)
  ---------------------------------------------------
  alpha Z        PSCENC =       975.10247152
  Ewald energy   TEWEN  =     91331.69804104
  -Hartree energ DENC   =   -120044.02896669
  -exchange      EXHF   =         0.00000000
  -V(xc)+E(xc)   XCENC  =       178.59076547
  PAW double counting   =     30213.05239776   -29299.64824627
  entropy T*S    EENTRO =        -0.03317318
  eigenvalues    EBANDS =      -844.57182368
  atomic energy  EATOM  =     27259.89416086
  Solvation  Ediel_sol  =         0.00000000
  ---------------------------------------------------
  free energy    TOTEN  =      -229.94437317 eV

  energy without entropy =     -229.91119999  energy(sigma->0) =     -229.93331544


--------------------------------------------------------------------------------------------------------




--------------------------------------- Iteration      1(  18)  ---------------------------------------


    POTLOK:  cpu time    0.1538: real time    0.1547
    SETDIJ:  cpu time    0.0098: real time    0.0099
    EDDIAG:  cpu time    1.0845: real time    1.0908
  RMM-DIIS:  cpu time    3.6032: real time    3.6259
    ORTHCH:  cpu time    0.2390: real time    0.2405
       DOS:  cpu time    0.0011: real time    0.0011
    CHARGE:  cpu time    0.3714: real time    0.3739
    MIXING:  cpu time    0.0062: real time    0.0062
    --------------------------------------------
      LOOP:  cpu time    5.4690: real time    5.5030

 eigenvalue-minimisations  :  1680
 total energy-change (2. order) :-0.1127715E-03  (-0.6787395E-04)
 number of electron     376.0000023 magnetization 
 augmentation part      112.9596269 magnetization 

 Broyden mixing:
  rms(total) = 0.11878E-01    rms(broyden)= 0.11877E-01
  rms(prec ) = 0.14733E-01
  weight for this iteration     100.00

 eigenvalues of (default mixing * dielectric matrix)
  average eigenvalue GAMMA=   0.7524
  2.5676  1.9300  1.2556  0.8800  0.8800  0.4497  0.1394  0.3608  0.3129  0.3129
  0.2158  0.2449  0.2325

 Free energy of the ion-electron system (eV)
  ---------------------------------------------------
  alpha Z        PSCENC =       975.10247152
  Ewald energy   TEWEN  =     91331.69804104
  -Hartree energ DENC   =   -120045.51357980
  -exchange      EXHF   =         0.00000000
  -V(xc)+E(xc)   XCENC  =       178.60359578
  PAW double counting   =     30212.11139382   -29298.63896975
  entropy T*S    EENTRO =        -0.03369632
  eigenvalues    EBANDS =      -843.16790309
  atomic energy  EATOM  =     27259.89416086
  Solvation  Ediel_sol  =         0.00000000
  ---------------------------------------------------
  free energy    TOTEN  =      -229.94448594 eV

  energy without entropy =     -229.91078962  energy(sigma->0) =     -229.93325384


--------------------------------------------------------------------------------------------------------




--------------------------------------- Iteration      1(  19)  ---------------------------------------


    POTLOK:  cpu time    0.1085: real time    0.1093
    SETDIJ:  cpu time    0.0091: real time    0.0091
    EDDIAG:  cpu time    1.0959: real time    1.1025
  RMM-DIIS:  cpu time    2.7006: real time    2.7167
    ORTHCH:  cpu time    0.2288: real time    0.2301
       DOS:  cpu time    0.0013: real time    0.0013
    CHARGE:  cpu time    0.4824: real time    0.4851
    MIXING:  cpu time    0.0063: real time    0.0063
    --------------------------------------------
      LOOP:  cpu time    4.6328: real time    4.6605

 eigenvalue-minimisations  :  1212
 total energy-change (2. order) : 0.1457996E-03  (-0.3249758E-04)
 number of electron     376.0000023 magnetization 
 augmentation part      112.9592471 magnetization 

 Broyden mixing:
  rms(total) = 0.45040E-02    rms(broyden)= 0.45028E-02
  rms(prec ) = 0.63181E-02
  weight for this iteration     100.00

 eigenvalues of (default mixing * dielectric matrix)
  average eigenvalue GAMMA=   0.7478
  2.5609  2.0765  1.2735  0.8604  0.8604  0.6051  0.4441  0.1394  0.3616  0.3051
  0.2936  0.2156  0.2418  0.2317

 Free energy of the ion-electron system (eV)
  ---------------------------------------------------
  alpha Z        PSCENC =       975.10247152
  Ewald energy   TEWEN  =     91331.69804104
  -Hartree energ DENC   =   -120046.85578122
  -exchange      EXHF   =         0.00000000
  -V(xc)+E(xc)   XCENC  =       178.61366712
  PAW double counting   =     30209.72411890   -29296.18244449
  entropy T*S    EENTRO =        -0.03389738
  eigenvalues    EBANDS =      -841.90467650
  atomic energy  EATOM  =     27259.89416086
  Solvation  Ediel_sol  =         0.00000000
  ---------------------------------------------------
  free energy    TOTEN  =      -229.94434014 eV

  energy without entropy =     -229.91044276  energy(sigma->0) =     -229.93304101


--------------------------------------------------------------------------------------------------------




--------------------------------------- Iteration      1(  20)  ---------------------------------------


    POTLOK:  cpu time    0.1080: real time    0.1087
    SETDIJ:  cpu time    0.0097: real time    0.0098
    EDDIAG:  cpu time    1.0324: real time    1.0376
  RMM-DIIS:  cpu time    2.2681: real time    2.2816
    ORTHCH:  cpu time    0.2249: real time    0.2262
       DOS:  cpu time    0.0012: real time    0.0012
    --------------------------------------------
      LOOP:  cpu time    3.6444: real time    3.6651

 eigenvalue-minimisations  :   998
 total energy-change (2. order) :-0.3968880E-04  (-0.8339846E-05)
 number of electron     376.0000023 magnetization 
 augmentation part      112.9592471 magnetization 

 Free energy of the ion-electron system (eV)
  ---------------------------------------------------
  alpha Z        PSCENC =       975.10247152
  Ewald energy   TEWEN  =     91331.69804104
  -Hartree energ DENC   =   -120047.48391116
  -exchange      EXHF   =         0.00000000
  -V(xc)+E(xc)   XCENC  =       178.61712224
  PAW double counting   =     30207.85326687   -29294.27891632
  entropy T*S    EENTRO =        -0.03382657
  eigenvalues    EBANDS =      -841.31278832
  atomic energy  EATOM  =     27259.89416086
  Solvation  Ediel_sol  =         0.00000000
  ---------------------------------------------------
  free energy    TOTEN  =      -229.94437983 eV

  energy without entropy =     -229.91055326  energy(sigma->0) =     -229.93310431


--------------------------------------------------------------------------------------------------------




 average (electrostatic) potential at core
  the test charge radii are     0.6991  0.7215  1.2059
  (the norm of the test charge is              1.0000)
       1 -56.4116       2 -75.2552       3 -76.4808       4 -72.2671       5 -72.2613
       6 -72.2564       7 -72.2599       8 -72.2591       9 -72.2578      10 -72.2539
      11 -72.2618      12 -72.2511      13 -72.7786      14 -72.9832      15 -72.8944
      16 -72.9267      17 -72.9469      18 -72.9548      19 -72.9363      20 -72.9770
      21 -72.9123      22 -72.8383      23 -72.9454      24 -72.8253      25 -72.9179
      26 -73.0083      27 -73.0067      28 -72.9033      29 -72.8957      30 -72.8056
      31 -72.3169      32 -72.3189      33 -72.5299      34 -72.4434      35 -72.4466
      36 -73.2877      37 -72.3704      38 -73.3556      39 -72.1802
 
 
 
 E-fermi :   1.1624     XC(G=0):  -6.6249     alpha+bet : -6.8913


 k-point     1 :       0.0000    0.0000    0.0000
  band No.  band energies     occupation 
      1     -22.3155      2.00000
      2     -17.7895      2.00000
      3      -8.9096      2.00000
      4      -8.0889      2.00000
      5      -6.7617      2.00000
      6      -6.2030      2.00000
      7      -5.9945      2.00000
      8      -5.7723      2.00000
      9      -5.6651      2.00000
     10      -5.6428      2.00000
     11      -5.6191      2.00000
     12      -5.6023      2.00000
     13      -5.5644      2.00000
     14      -5.5301      2.00000
     15      -5.4956      2.00000
     16      -5.3703      2.00000
     17      -5.0924      2.00000
     18      -5.0435      2.00000
     19      -5.0252      2.00000
     20      -4.9929      2.00000
     21      -4.9766      2.00000
     22      -4.9594      2.00000
     23      -4.8116      2.00000
     24      -4.7090      2.00000
     25      -4.5181      2.00000
     26      -4.5000      2.00000
     27      -4.4919      2.00000
     28      -4.4625      2.00000
     29      -4.3930      2.00000
     30      -4.3657      2.00000
     31      -4.3288      2.00000
     32      -4.3016      2.00000
     33      -4.2822      2.00000
     34      -4.1989      2.00000
     35      -4.1303      2.00000
     36      -4.1192      2.00000
     37      -4.1041      2.00000
     38      -4.0667      2.00000
     39      -4.0645      2.00000
     40      -4.0257      2.00000
     41      -4.0130      2.00000
     42      -3.9985      2.00000
     43      -3.9769      2.00000
     44      -3.9744      2.00000
     45      -3.9508      2.00000
     46      -3.8994      2.00000
     47      -3.7801      2.00000
     48      -3.5869      2.00000
     49      -3.5608      2.00000
     50      -3.4142      2.00000
     51      -3.3910      2.00000
     52      -3.3618      2.00000
     53      -3.3572      2.00000
     54      -3.3190      2.00000
     55      -3.2551      2.00000
     56      -3.2373      2.00000
     57      -3.2331      2.00000
     58      -3.1636      2.00000
     59      -3.1568      2.00000
     60      -3.1377      2.00000
     61      -3.0773      2.00000
     62      -3.0480      2.00000
     63      -2.9808      2.00000
     64      -2.6088      2.00000
     65      -2.5580      2.00000
     66      -2.5198      2.00000
     67      -2.5135      2.00000
     68      -2.4592      2.00000
     69      -2.4416      2.00000
     70      -2.4282      2.00000
     71      -2.3924      2.00000
     72      -2.3824      2.00000
     73      -2.3557      2.00000
     74      -2.3484      2.00000
     75      -2.3369      2.00000
     76      -2.3269      2.00000
     77      -2.3128      2.00000
     78      -2.3037      2.00000
     79      -2.2774      2.00000
     80      -2.2636      2.00000
     81      -2.2517      2.00000
     82      -2.2372      2.00000
     83      -2.2260      2.00000
     84      -2.2176      2.00000
     85      -2.1920      2.00000
     86      -2.1350      2.00000
     87      -2.0951      2.00000
     88      -2.0617      2.00000
     89      -2.0363      2.00000
     90      -2.0195      2.00000
     91      -1.9793      2.00000
     92      -1.9617      2.00000
     93      -1.9380      2.00000
     94      -1.9251      2.00000
     95      -1.9111      2.00000
     96      -1.8654      2.00000
     97      -1.8605      2.00000
     98      -1.8006      2.00000
     99      -1.7532      2.00000
    100      -1.7335      2.00000
    101      -1.6407      2.00000
    102      -1.5794      2.00000
    103      -1.5702      2.00000
    104      -1.5494      2.00000
    105      -1.5482      2.00000
    106      -1.5314      2.00000
    107      -1.4829      2.00000
    108      -1.4744      2.00000
    109      -1.4536      2.00000
    110      -1.4329      2.00000
    111      -1.4282      2.00000
    112      -1.4244      2.00000
    113      -1.3846      2.00000
    114      -1.3078      2.00000
    115      -1.2750      2.00000
    116      -1.1275      2.00000
    117      -1.0716      2.00000
    118      -1.0071      2.00000
    119      -0.9711      2.00000
    120      -0.9165      2.00000
    121      -0.8911      2.00000
    122      -0.8889      2.00000
    123      -0.8670      2.00000
    124      -0.8547      2.00000
    125      -0.7837      2.00000
    126      -0.7354      2.00000
    127      -0.7038      2.00000
    128      -0.6950      2.00000
    129      -0.6489      2.00000
    130      -0.6264      2.00000
    131      -0.6174      2.00000
    132      -0.5923      2.00000
    133      -0.5748      2.00000
    134      -0.5288      2.00000
    135      -0.4949      2.00000
    136      -0.4827      2.00000
    137      -0.3477      2.00000
    138      -0.3309      2.00000
    139      -0.3262      2.00000
    140      -0.3069      2.00000
    141      -0.2445      2.00000
    142      -0.2053      2.00000
    143      -0.1526      2.00000
    144      -0.1385      2.00000
    145      -0.1134      2.00000
    146      -0.0869      2.00000
    147      -0.0586      2.00000
    148      -0.0151      2.00000
    149       0.0567      2.00000
    150       0.0998      2.00000
    151       0.1258      2.00000
    152       0.1386      2.00000
    153       0.1515      2.00000
    154       0.2061      2.00000
    155       0.2144      2.00000
    156       0.2641      2.00000
    157       0.2904      2.00000
    158       0.3142      2.00000
    159       0.3189      2.00000
    160       0.3386      2.00000
    161       0.3596      2.00000
    162       0.3683      2.00000
    163       0.3723      2.00000
    164       0.3889      2.00000
    165       0.4118      2.00000
    166       0.4289      2.00000
    167       0.4409      2.00000
    168       0.4726      2.00001
    169       0.4983      2.00003
    170       0.5366      2.00009
    171       0.5459      2.00012
    172       0.5692      2.00023
    173       0.6289      2.00106
    174       0.6528      2.00186
    175       0.6896      2.00416
    176       0.6956      2.00471
    177       0.7044      2.00562
    178       0.7322      2.00952
    179       0.7550      2.01416
    180       0.8020      2.02872
    181       0.8228      2.03726
    182       0.8311      2.04097
    183       0.8448      2.04726
    184       0.8550      2.05195
    185       0.8725      2.05966
    186       0.8824      2.06354
    187       0.8909      2.06642
    188       0.8989      2.06858
    189       0.9107      2.07058
    190       0.9147      2.07086
    191       0.9317      2.06921
    192       0.9366      2.06773
    193       0.9437      2.06461
    194       0.9838      2.02034
    195       1.0560      1.77427
    196       1.1448      1.14883
    197       1.1793      0.85749
    198       1.2500      0.33166
    199       1.2748      0.19542
    200       1.2947      0.10853
    201       1.3032      0.07765
    202       1.3084      0.06034
    203       1.3245      0.01456
    204       1.5159     -0.03144
    205       1.6297     -0.00466
    206       2.0071     -0.00000
    207       2.0587     -0.00000
    208       2.1138     -0.00000
    209       2.1623     -0.00000
    210       2.2603     -0.00000
    211       2.5910     -0.00000
    212       3.6689     -0.00000
    213       3.9998     -0.00000
    214       4.3674     -0.00000
    215       4.4094     -0.00000
    216       4.4719     -0.00000
    217       4.6134     -0.00000
    218       4.8675     -0.00000
    219       5.4580     -0.00000
    220       5.5097     -0.00000
    221       5.8844     -0.00000
    222       5.9223     -0.00000
    223       5.9605     -0.00000
    224       6.0165     -0.00000
    225       6.0487     -0.00000
    226       6.4829     -0.00000
    227       6.5927     -0.00000
    228       6.6975      0.00000

 k-point     2 :       0.5000    0.0000    0.0000
  band No.  band energies     occupation 
      1     -22.3153      2.00000
      2     -17.7891      2.00000
      3      -8.9035      2.00000
      4      -7.2413      2.00000
      5      -7.1907      2.00000
      6      -6.2171      2.00000
      7      -6.0773      2.00000
      8      -5.9541      2.00000
      9      -5.8092      2.00000
     10      -5.7483      2.00000
[...]
     89      -2.1399      2.00000
     90      -2.1207      2.00000
     91      -2.0995      2.00000
     92      -2.0821      2.00000
     93      -2.0364      2.00000
     94      -1.9974      2.00000
     95      -1.9493      2.00000
     96      -1.9223      2.00000
     97      -1.8756      2.00000
     98      -1.8648      2.00000
     99      -1.8356      2.00000
    100      -1.8228      2.00000
    101      -1.7596      2.00000
    102      -1.7411      2.00000
    103      -1.7088      2.00000
    104      -1.6963      2.00000
    105      -1.6721      2.00000
    106      -1.6413      2.00000
    107      -1.6326      2.00000
    108      -1.5928      2.00000
    109      -1.5784      2.00000
    110      -1.5367      2.00000
    111      -1.5141      2.00000
    112      -1.4502      2.00000
    113      -1.4198      2.00000
    114      -1.3461      2.00000
    115      -1.2851      2.00000
    116      -1.2624      2.00000
    117      -1.2005      2.00000
    118      -1.1682      2.00000
    119      -1.1271      2.00000
    120      -1.0864      2.00000
    121      -1.0727      2.00000
    122      -1.0402      2.00000
    123      -1.0078      2.00000
    124      -0.9826      2.00000
    125      -0.9662      2.00000
    126      -0.9436      2.00000
    127      -0.9305      2.00000
    128      -0.9135      2.00000
    129      -0.9014      2.00000
    130      -0.8843      2.00000
    131      -0.8314      2.00000
    132      -0.7855      2.00000
    133      -0.7405      2.00000
    134      -0.7174      2.00000
    135      -0.6980      2.00000
    136      -0.6691      2.00000
    137      -0.6557      2.00000
    138      -0.6315      2.00000
    139      -0.5699      2.00000
    140      -0.5427      2.00000
    141      -0.4671      2.00000
    142      -0.4510      2.00000
    143      -0.3682      2.00000
    144      -0.2794      2.00000
    145      -0.2471      2.00000
    146      -0.1738      2.00000
    147      -0.1425      2.00000
    148      -0.1019      2.00000
    149      -0.0888      2.00000
    150      -0.0430      2.00000
    151      -0.0211      2.00000
    152       0.0709      2.00000
    153       0.0825      2.00000
    154       0.1056      2.00000
    155       0.1172      2.00000
    156       0.1310      2.00000
    157       0.1546      2.00000
    158       0.1794      2.00000
    159       0.2194      2.00000
    160       0.2310      2.00000
    161       0.2713      2.00000
    162       0.3295      2.00000
    163       0.3413      2.00000
    164       0.3772      2.00000
    165       0.4003      2.00000
    166       0.4306      2.00001
    167       0.5336      2.00021
    168       0.6082      2.00144
    169       0.6193      2.00186
    170       0.6352      2.00266
    171       0.6586      2.00438
    172       0.6975      2.00932
    173       0.7399      2.01901
    174       0.8137      2.04835
    175       0.8181      2.05039
    176       0.8360      2.05840
    177       0.8731      2.07006
    178       0.9031      2.06770
    179       0.9387      2.03852
    180       0.9567      2.00818
    181       0.9685      1.98128
    182       1.0430      1.65786
    183       1.0821      1.38444
    184       1.1159      1.11000
    185       1.1205      1.07102
    186       1.1292      0.99787
    187       1.1535      0.79368
    188       1.1770      0.60618
    189       1.1973      0.45726
    190       1.2132      0.35251
    191       1.3222     -0.04250
    192       1.3627     -0.06989
    193       1.3905     -0.06902
    194       1.4158     -0.06090
    195       1.4477     -0.04671
    196       1.5257     -0.01683
    197       1.6051     -0.00388
    198       1.7472     -0.00011
    199       1.8511     -0.00000
    200       2.0116     -0.00000
    201       2.2703     -0.00000
    202       2.3366     -0.00000
    203       2.8245     -0.00000
    204       2.9569     -0.00000
    205       2.9826     -0.00000
    206       3.0134     -0.00000
    207       3.0334     -0.00000
    208       3.2148     -0.00000
    209       3.3762     -0.00000
    210       3.5413     -0.00000
    211       3.5859     -0.00000
    212       3.6127     -0.00000
    213       3.7412     -0.00000
    214       3.8451     -0.00000
    215       3.9873     -0.00000
    216       4.1750     -0.00000
    217       4.2586     -0.00000
    218       4.4048     -0.00000
    219       4.4579     -0.00000
    220       4.6333     -0.00000
    221       4.6458     -0.00000
    222       4.8220     -0.00000
    223       5.1161     -0.00000
    224       5.5120     -0.00000
    225       5.7242     -0.00000
    226       6.5595     -0.00000
    227       6.5920      0.00000
    228       6.7238      0.00000


--------------------------------------------------------------------------------------------------------


 soft charge-density along one line, spin component           1
         0         1         2         3         4         5         6         7         8         9
 total charge-density along one line
 
 pseudopotential strength for first ion, spin component:           1
 10.101   0.016   0.004   0.010   0.001  -0.003  -0.009  -0.000
  0.016  -0.002  -0.000  -0.000  -0.000  -0.000  -0.000  -0.000
  0.004  -0.000  -4.250  -0.006   0.001  -0.010  -0.002  -0.000
  0.010  -0.000  -0.006  -4.266   0.001  -0.002  -0.016   0.000
  0.001  -0.000   0.001   0.001  -4.248  -0.000   0.000  -0.010
 -0.003  -0.000  -0.010  -0.002  -0.000  -0.770  -0.000   0.000
 -0.009  -0.000  -0.002  -0.016   0.000  -0.000  -0.770   0.000
 -0.000  -0.000  -0.000   0.000  -0.010   0.000   0.000  -0.770
 total augmentation occupancy for first ion, spin component:           1
  1.649  -0.865  -0.005  -0.007  -0.038   0.030   0.082  -0.013
 -0.865   1.193  -0.199  -0.543   0.040  -0.079  -0.228   0.012
 -0.005  -0.199   0.847   0.192   0.017   0.112   0.053  -0.000
 -0.007  -0.543   0.192   1.331   0.015   0.053   0.251  -0.000
 -0.038   0.040   0.017   0.015   0.776  -0.000  -0.001   0.095
  0.030  -0.079   0.112   0.053  -0.000   0.019   0.020  -0.001
  0.082  -0.228   0.053   0.251  -0.001   0.020   0.072  -0.002
 -0.013   0.012  -0.000  -0.000   0.095  -0.001  -0.002   0.012


------------------------ aborting loop because EDIFF is reached ----------------------------------------


    CHARGE:  cpu time    0.4123: real time    0.4148
    FORLOC:  cpu time    0.0403: real time    0.0405
    FORNL :  cpu time    1.6776: real time    1.6882
    STRESS:  cpu time    5.2556: real time    5.2891
    FORCOR:  cpu time    0.1341: real time    0.1349
    FORHAR:  cpu time    0.0614: real time    0.0617
    MIXING:  cpu time    0.0046: real time    0.0046
    OFIELD:  cpu time    0.0000: real time    0.0000

  FORCE on cell =-STRESS in cart. coord.  units (eV):
  Direction    XX          YY          ZZ          XY          YZ          ZX
  --------------------------------------------------------------------------------------
  Alpha Z   975.10247   975.10247   975.10247
  Ewald  111062.28687111089.17599************  -187.50762   244.84790   -77.48983
  Hartree117841.14074117826.32730************  -127.18552   101.30425   -50.42027
  E(xc)   -1666.05136 -1665.70233 -1673.19860    -0.40050     0.68532    -0.15822
  Local  ************************239571.77004   304.74054  -321.90998   123.70953
  n-local   124.60964   123.86196    91.30191    -1.64233     1.51699    -0.73033
  augment  1895.95089  1893.36258  1931.83747     2.95529    -4.59699     1.19118
  Kinetic  5526.54323  5514.76142  5596.04900     9.01249   -21.76173     4.50580
  Fock        0.00000     0.00000     0.00000     0.00000     0.00000     0.00000
  -------------------------------------------------------------------------------------
  Total     -34.98562   -37.91993    -4.46466    -0.02766     0.08575     0.60785
  in kB     -41.66845   -45.16326    -5.31749    -0.03294     0.10213     0.72396
  external pressure =      -30.72 kB  Pullay stress =        0.00 kB


 VOLUME and BASIS-vectors are now :
 -----------------------------------------------------------------------------
  energy-cutoff  :      450.00
  volume of cell :     1345.22
      direct lattice vectors                 reciprocal lattice vectors
     7.296955120 -4.212899000  0.000000000     0.137043463  0.000000000  0.000000000
     0.000000000  8.425798000  0.000000000     0.068521732  0.118683121  0.000000000
     0.000000000  0.000000000 21.879635000     0.000000000  0.000000000  0.045704602

  length of vectors
     8.425798004  8.425798000 21.879635000     0.137043463  0.137043463  0.045704602


 FORCES acting on ions
    electron-ion (+dipol)            ewald-force                    non-local-force                 convergence-correction
 -----------------------------------------------------------------------------------------------
   0.287E+02 0.177E+02 -.882E+03   -.299E+02 -.222E+02 0.871E+03   0.776E+00 0.421E+01 0.116E+02   -.678E-02 0.113E-01 0.285E-01
   -.747E+02 0.415E+02 -.160E+04   0.740E+02 -.364E+02 0.162E+04   0.142E+01 -.498E+01 -.243E+02   0.192E-01 -.216E-03 -.172E-01
   0.410E+02 -.973E+02 -.154E+04   -.436E+02 0.117E+03 0.159E+04   0.282E+01 -.199E+02 -.586E+02   0.183E-02 -.528E-02 -.119E-01
   0.115E+00 0.228E+00 0.234E+04   -.143E+00 -.302E+00 -.234E+04   0.149E-01 -.405E-01 -.121E+01   0.259E-01 0.667E-01 0.476E-01
   0.322E+00 0.346E+00 0.234E+04   -.335E+00 -.374E+00 -.234E+04   -.274E-01 -.442E-01 -.112E+01   -.393E-02 0.392E-01 0.312E-01
   -.169E+00 0.146E-01 0.234E+04   0.861E-01 0.416E-02 -.234E+04   0.253E-01 -.148E-01 -.114E+01   0.257E-01 -.234E-01 0.235E-01
   0.212E+00 0.352E-01 0.234E+04   -.247E+00 0.803E-01 -.234E+04   0.749E-02 0.178E-01 -.121E+01   0.426E-01 -.843E-01 0.351E-01
   0.328E+00 0.224E+00 0.234E+04   -.294E+00 -.245E+00 -.234E+04   0.677E-02 0.268E-01 -.129E+01   -.534E-01 0.584E-02 0.655E-01
   -.243E+00 0.287E+00 0.234E+04   0.278E+00 -.287E+00 -.234E+04   0.212E-01 0.131E-01 -.122E+01   -.463E-01 -.205E-01 0.214E-01
   0.302E+00 -.709E+00 0.234E+04   -.243E+00 0.617E+00 -.234E+04   -.723E-01 0.105E+00 -.108E+01   0.200E-01 -.448E-01 0.268E-01
   -.510E+00 -.269E+00 0.234E+04   0.587E+00 0.286E+00 -.234E+04   -.142E-01 -.245E-01 -.127E+01   -.395E-01 0.438E-01 0.303E-01
   -.298E+00 -.229E+00 0.234E+04   0.310E+00 0.220E+00 -.234E+04   -.999E-02 0.116E-01 -.106E+01   0.293E-01 0.175E-01 0.898E-02
   0.137E+01 -.230E+01 0.853E+03   -.152E+01 0.228E+01 -.853E+03   0.674E-01 0.136E-01 -.344E+00   0.261E-01 0.136E-01 0.543E-01
   -.324E+01 -.226E+01 0.862E+03   0.312E+01 0.234E+01 -.862E+03   0.180E+00 0.242E-01 -.328E+00   -.384E-02 -.338E-01 0.374E-01
   -.711E+00 -.115E+01 0.857E+03   0.858E+00 0.979E+00 -.857E+03   -.940E-01 0.862E-01 -.302E+00   0.891E-02 0.740E-01 0.666E-01
   0.934E+00 0.320E+01 0.861E+03   -.989E+00 -.336E+01 -.861E+03   0.245E-01 0.617E-01 -.332E+00   -.805E-02 0.760E-01 0.576E-01
   -.311E+00 0.155E+01 0.861E+03   0.256E+00 -.156E+01 -.861E+03   0.108E+00 0.979E-02 -.337E+00   -.256E-01 0.166E-01 0.431E-01
   0.198E+01 0.476E+00 0.859E+03   -.205E+01 -.490E+00 -.859E+03   -.470E-01 0.777E-01 -.241E+00   0.711E-01 -.294E-01 0.280E-01
   0.297E+01 -.739E+00 0.863E+03   -.298E+01 0.985E+00 -.863E+03   -.871E-01 -.123E+00 -.425E+00   0.209E-01 -.897E-01 0.505E-01
   -.202E+01 0.136E+01 0.866E+03   0.213E+01 -.135E+01 -.865E+03   0.476E-01 -.432E-01 -.516E+00   -.971E-01 0.170E-01 0.817E-01
   -.111E+01 0.375E+00 0.860E+03   0.119E+01 -.156E+00 -.860E+03   -.171E-01 -.105E+00 -.358E+00   0.751E-02 -.449E-01 0.677E-01
   0.377E+00 0.142E+01 -.638E+03   -.566E+00 -.144E+01 0.638E+03   0.166E+00 -.188E-01 0.477E+00   0.529E-01 -.788E-02 -.426E-01
   0.175E+01 -.389E+01 -.622E+03   -.172E+01 0.400E+01 0.621E+03   -.297E-01 -.354E-01 0.552E+00   -.298E-01 -.545E-01 -.157E-01
   -.446E+00 -.132E+01 -.659E+03   0.179E+00 0.176E+01 0.659E+03   0.197E+00 -.425E+00 0.196E+00   0.211E-01 -.658E-02 -.322E-01
   -.445E+01 0.175E+02 -.636E+03   0.394E+01 -.168E+02 0.636E+03   0.497E+00 -.891E+00 -.445E+00   0.190E-01 0.380E-01 0.323E-02
   0.116E+02 0.193E+01 -.632E+03   -.109E+02 -.197E+01 0.631E+03   -.768E+00 -.416E-02 0.143E+00   -.179E-01 -.579E-02 0.169E-01
   -.631E+01 -.161E+02 -.635E+03   0.610E+01 0.159E+02 0.635E+03   0.173E+00 0.344E+00 0.283E+00   0.270E-01 -.299E-01 0.515E-01
   -.720E+01 -.245E+01 -.634E+03   0.725E+01 0.239E+01 0.634E+03   0.596E-01 0.564E-01 0.396E+00   -.310E-01 0.117E-01 0.205E-01
   0.921E+00 0.338E+01 -.633E+03   -.831E+00 -.347E+01 0.633E+03   -.329E-01 -.783E-01 0.338E+00   -.544E-01 0.702E-01 -.617E-02
   0.118E+01 0.362E+01 -.649E+03   -.125E+01 -.380E+01 0.649E+03   0.662E-01 0.441E-01 0.316E+00   0.161E-01 0.439E-02 -.260E-01
   -.228E+02 -.114E+02 -.215E+04   0.233E+02 0.117E+02 0.215E+04   -.473E+00 -.209E+00 0.146E+01   -.603E-02 0.161E-03 -.595E-01
   0.198E+02 0.234E+02 -.213E+04   -.201E+02 -.239E+02 0.213E+04   0.326E+00 0.632E+00 0.151E+01   -.141E-01 -.162E-01 -.266E-01
   0.319E+02 -.896E+00 -.211E+04   -.323E+02 0.871E+00 0.211E+04   0.258E+00 0.235E-03 0.131E+01   -.106E-01 0.292E-01 -.463E-01
   -.158E+02 0.582E+01 -.217E+04   0.156E+02 -.614E+01 0.217E+04   0.393E+00 0.277E+00 0.109E+01   0.688E-03 0.982E-02 -.405E-01
   0.190E+02 0.959E+01 -.215E+04   -.190E+02 -.997E+01 0.215E+04   -.144E+00 0.442E+00 0.111E+01   -.104E-01 -.344E-01 -.447E-01
   0.695E+02 0.689E+02 -.199E+04   -.724E+02 -.670E+02 0.200E+04   0.270E+01 -.183E+01 -.361E+01   0.203E-01 -.166E-01 0.153E-01
   -.566E+02 -.580E+02 -.208E+04   0.579E+02 0.604E+02 0.208E+04   -.136E+01 -.227E+01 0.224E+01   0.439E-01 -.188E-01 -.101E-01
   -.574E+02 0.896E+02 -.204E+04   0.578E+02 -.904E+02 0.204E+04   -.400E+00 0.822E+00 -.107E+01   0.118E-01 0.652E-02 -.471E-01
   0.138E+02 -.685E+02 -.214E+04   -.135E+02 0.697E+02 0.214E+04   -.224E+00 -.105E+01 0.963E+00   -.311E-01 0.198E-01 0.309E-01
 -----------------------------------------------------------------------------------------------
   -.652E+01 0.249E+02 0.773E+02   0.373E-13 0.213E-12 0.546E-11   0.655E+01 -.248E+02 -.778E+02   0.218E-01 0.445E-02 0.517E+00
 
 
 POSITION                                       TOTAL-FORCE (eV/Angst)
 -----------------------------------------------------------------------------------
      4.98438      0.67599     10.42701        -0.511605     -0.273453      0.183681
      6.69084     -0.56022     10.15664         0.674636      0.177708     -0.321025
      4.93574      1.05148     11.52498         0.163908     -0.067080     -0.231180
      7.20031     -1.38846      1.62732         0.011617     -0.051089      0.127340
      2.33567      1.42014      1.62732        -0.045578     -0.035724      0.135313
      4.76799      0.01584      1.62732        -0.033698     -0.022292      0.145627
      7.20031      1.42015      1.62732         0.014308      0.046085      0.128556
      2.33567      4.22875      1.62732        -0.013844      0.009234      0.141804
      4.76799      2.82445      1.62732         0.008975     -0.010762      0.164827
      2.33567      7.03734      1.62732         0.005514     -0.034089      0.049455
      4.76799      5.63304      1.62732         0.021611      0.033744      0.118930
      7.20031      4.22874      1.62732         0.029613      0.017949      0.030147
      1.52490      0.01584      3.92052        -0.060165      0.009031     -0.056769
      3.95722     -1.38846      3.92052         0.058455      0.074701     -0.153512
      6.38953     -2.79276      3.92052         0.060779     -0.009425     -0.112251
      1.52490      2.82445      3.92052        -0.039742     -0.017608     -0.137201
      3.95722      1.42015      3.92052         0.025792      0.017124     -0.052690
      6.38953      0.01585      3.92052        -0.048079      0.031546      0.063452
      1.52490      5.63305      3.92052        -0.079695      0.029680     -0.225990
      3.95722      4.22874      3.92052         0.065845     -0.020902     -0.200743
      6.38953      2.82445      3.92052         0.067532      0.066111     -0.196483
      0.70387      4.21522      6.19598         0.027461     -0.053281      0.002406
      3.15230      5.62446      6.15963        -0.028508      0.022307      0.074399
      5.57548     -1.36785      6.22367        -0.050196      0.011576      0.150351
      0.68796      1.44985      6.20297         0.003619     -0.100120      0.078411
      3.17603      0.00734      6.18793        -0.088254     -0.052318      0.085709
      0.70981      7.01135      6.18999        -0.002930      0.106072     -0.004734
      5.57643      4.21631      6.18698         0.076706      0.010438     -0.059851
      3.15609      2.82298      6.18617         0.001468     -0.101875      0.014292
      5.57797      1.42399      6.21702         0.019669     -0.135895      0.020695
      2.37182      4.20152      8.44292         0.039341      0.042595      0.054817
      4.76962      5.59835      8.43288        -0.041514      0.056798      0.148544
      2.33976      1.37836      8.42862        -0.111133      0.002045      0.078075
      7.20040      4.17369      8.48083         0.130682     -0.035252      0.045001
      2.35749      6.99082      8.45515        -0.143619      0.019602      0.073903
      4.68697      0.05757      8.66911        -0.217678      0.033597     -0.172809
      7.26670      1.40345      8.49293        -0.025329      0.046261     -0.046011
      7.26764     -1.52622      8.58942         0.026268      0.035383      0.270690
      4.79296      2.83653      8.54050         0.007769      0.121576     -0.415175
 -----------------------------------------------------------------------------------
    total drift:                                0.056983      0.109107     -0.010804
  FORCES: max atom, RMS     0.767965    0.203159
  Number: max atom                 2
  FORCE total and by dimension    1.268728    0.674636


--------------------------------------------------------------------------------------------------------



  FREE ENERGIE OF THE ION-ELECTRON SYSTEM (eV)
  ---------------------------------------------------
  free  energy   TOTEN  =      -230.70316603 eV

  energy  without entropy=     -230.67662376  energy(sigma->0) =     -230.69431861
 
 d Force = 0.6092843E-01[ 0.428E-01, 0.791E-01]  d Energy = 0.6119780E-01-0.269E-03
 d Force =-0.5227398E+01[-0.522E+01,-0.523E+01]  d Ewald  =-0.5228480E+01 0.108E-02


--------------------------------------------------------------------------------------------------------


    POTLOK:  cpu time    0.1496: real time    0.2280


--------------------------------------------------------------------------------------------------------


 stress matrix after NEB project (eV)
    -34.98562     -0.02766      0.60785
     -0.02766    -37.91993      0.08575
      0.60785      0.08575     -4.46466
  FORCES: max atom, RMS     0.767965    0.203159
  FORCE total and by dimension    1.268728    0.674636
  Stress total and by dimension   51.793850   37.919927
 Quasi-Newton relaxation of ions (Broydens 2nd method)
  g(Force)  = 0.311E-01   g(Stress)= 0.000E+00

 retain information from N=  2 steps
 eigenvalues of (default step * inverse Hessian matrix)
  average eigenvalue of G=   0.4616
 eigenvalue spectrum of G is  0.6007  0.3226
  RESET_HESSIAN           0


--------------------------------------------------------------------------------------------------------


    WAVPRE:  cpu time    0.0589: real time    0.1319
    FEWALD:  cpu time    0.0017: real time    0.0017

 real space projection operators:
  total allocation   :      13549.33 KBytes
  max/ min on nodes  :       6782.75       6766.58

    ORTHCH:  cpu time    0.6419: real time    0.6513
     LOOP+:  cpu time   57.4551: real time   58.4827


--------------------------------------- Iteration      6(   1)  ---------------------------------------


    POTLOK:  cpu time    0.1236: real time    0.2363
    SETDIJ:  cpu time    0.0089: real time    0.0090
