 running on    8 total cores
 distrk:  each k-point on    8 cores,    1 groups
 distr:  one band on    2 cores,    4 groups
 using from now: INCAR     
 vasp.5.4.4 16052018 (build Apr 24 2014 20:13:14) complex standard
 Contain Constrained Minimization Technique (TS), Periodic NBO, VASPsol, libbeef, VASP2WANNIER90, Constrained Cell Relaxation
 POSCAR found type information on POSCAR  C  O  Pt
 POSCAR found :  3 types and      39 ions
 scaLAPACK will be used
 LDA part: xc-table for Pade appr. of Perdew
 POSCAR found type information on POSCAR  C  O  Pt
 POSCAR found :  3 types and      39 ions
 POSCAR, INCAR and KPOINTS ok, starting setup
 FFT: planning ...
 WAVECAR not read
 entering main loop
       N       E                     dE             d eps       ncg     rms          rms(c)
DAV:   1     0.242390935408E+04    0.24239E+04   -0.15954E+05  1824   0.129E+03
DAV:   2    -0.642680930786E+02   -0.24882E+04   -0.23083E+04  2128   0.286E+02
DAV:   3    -0.240155699390E+03   -0.17589E+03   -0.16012E+03  2184   0.691E+01
DAV:   4    -0.247604553540E+03   -0.74489E+01   -0.71536E+01  2336   0.135E+01
DAV:   5    -0.247819969466E+03   -0.21542E+00   -0.21425E+00  2336   0.239E+00    0.272E+01
RMM:   6    -0.244372862372E+03    0.34471E+01   -0.55304E+01  1828   0.149E+01    0.277E+01
RMM:   7    -0.246290487716E+03   -0.19176E+01   -0.31119E+01  1831   0.881E+00    0.222E+01
RMM:   8    -0.242804698840E+03    0.34858E+01   -0.10331E+01  1825   0.487E+00    0.226E+01
RMM:   9    -0.231505992649E+03    0.11299E+02   -0.61354E+00  1831   0.408E+00    0.846E+00
RMM:  10    -0.230425439575E+03    0.10806E+01   -0.18746E+00  1831   0.224E+00    0.519E+00
RMM:  11    -0.230145542035E+03    0.27990E+00   -0.47379E-01  1831   0.109E+00    0.326E+00
RMM:  12    -0.229998375813E+03    0.14717E+00   -0.21686E-01  1840   0.752E-01    0.189E+00
RMM:  13    -0.230008058996E+03   -0.96832E-02   -0.11669E-01  1834   0.558E-01    0.198E+00
RMM:  14    -0.229955202360E+03    0.52857E-01   -0.64788E-02  1831   0.443E-01    0.877E-01
RMM:  15    -0.229950338998E+03    0.48634E-02   -0.27111E-02  1831   0.283E-01    0.584E-01
RMM:  16    -0.229944866824E+03    0.54722E-02   -0.59975E-03  1831   0.136E-01    0.209E-01
RMM:  17    -0.229944373170E+03    0.49365E-03   -0.13275E-03  1807   0.618E-02    0.128E-01
RMM:  18    -0.229944485941E+03   -0.11277E-03   -0.67874E-04  1680   0.434E-02    0.119E-01
RMM:  19    -0.229944340141E+03    0.14580E-03   -0.32498E-04  1212   0.321E-02    0.450E-02
RMM:  20    -0.229944379830E+03   -0.39689E-04   -0.83398E-05   998   0.166E-02
   1 F= -.22994438E+03 E0= -.22993310E+03  d E =-.229944E+03
 BRION: g(F)=  0.622E+00 g(S)=  0.000E+00
 bond charge predicted
       N       E                     dE             d eps       ncg     rms          rms(c)
DAV:   1    -0.230244067091E+03   -0.29973E+00   -0.63036E+01  1848   0.149E+01    0.151E+00
RMM:   2    -0.230966510831E+03   -0.72244E+00   -0.18138E+00  1832   0.246E+00    0.736E+00
RMM:   3    -0.230410540838E+03    0.55597E+00   -0.19444E-01  1836   0.738E-01    0.186E+00
RMM:   4    -0.230367399096E+03    0.43142E-01   -0.52422E-02  1840   0.380E-01    0.924E-01
RMM:   5    -0.230354322828E+03    0.13076E-01   -0.14939E-02  1832   0.201E-01    0.588E-01
RMM:   6    -0.230351091924E+03    0.32309E-02   -0.85940E-03  1829   0.161E-01    0.374E-01
RMM:   7    -0.230352423841E+03   -0.13319E-02   -0.97588E-03  1831   0.173E-01    0.414E-01
RMM:   8    -0.230349772755E+03    0.26511E-02   -0.31205E-03  1822   0.955E-02    0.122E-01
RMM:   9    -0.230349586897E+03    0.18586E-03   -0.45374E-04  1389   0.368E-02    0.595E-02
RMM:  10    -0.230349754177E+03   -0.16728E-03   -0.19531E-04  1028   0.248E-02    0.625E-02
RMM:  11    -0.230349793476E+03   -0.39299E-04   -0.93096E-05   974   0.189E-02
   2 F= -.23034979E+03 E0= -.23034144E+03  d E =-.405414E+00
 BRION: g(F)=  0.133E+00 g(S)=  0.000E+00 retain N=  1 mean eig= 1.42
 eig:   1.417
 bond charge predicted
       N       E                     dE             d eps       ncg     rms          rms(c)
DAV:   1    -0.230465581015E+03   -0.11583E+00   -0.20642E+01  1824   0.848E+00    0.547E-01
RMM:   2    -0.230513144580E+03   -0.47564E-01   -0.35623E-01  1835   0.128E+00    0.120E+00
RMM:   3    -0.230504253344E+03    0.88912E-02   -0.24725E-02  1873   0.278E-01    0.737E-01
RMM:   4    -0.230497947769E+03    0.63056E-02   -0.65747E-03  1844   0.136E-01    0.435E-01
RMM:   5    -0.230495333073E+03    0.26147E-02   -0.24406E-03  1836   0.812E-02    0.272E-01
RMM:   6    -0.230494983397E+03    0.34968E-03   -0.25706E-03  1828   0.845E-02    0.196E-01
RMM:   7    -0.230495105801E+03   -0.12240E-03   -0.26383E-03  1824   0.869E-02    0.186E-01
RMM:   8    -0.230494652523E+03    0.45328E-03   -0.77078E-04  1773   0.477E-02    0.613E-02
RMM:   9    -0.230494613663E+03    0.38860E-04   -0.12420E-04   977   0.205E-02
   3 F= -.23049461E+03 E0= -.23048635E+03  d E =-.144820E+00
 BRION: g(F)=  0.745E-01 g(S)=  0.000E+00 retain N=  2 mean eig= 4.02
 eig:   1.657  6.390
 bond charge predicted
       N       E                     dE             d eps       ncg     rms          rms(c)
DAV:   1    -0.230563425370E+03   -0.68773E-01   -0.54074E+01  1824   0.140E+01    0.990E-01
RMM:   2    -0.230662727544E+03   -0.99302E-01   -0.97051E-01  1833   0.205E+00    0.982E-01
RMM:   3    -0.230674632672E+03   -0.11905E-01   -0.67962E-02  1850   0.465E-01    0.140E+00
RMM:   4    -0.230652133388E+03    0.22499E-01   -0.14082E-02  1858   0.195E-01    0.791E-01
RMM:   5    -0.230644475237E+03    0.76582E-02   -0.83673E-03  1832   0.153E-01    0.429E-01
RMM:   6    -0.230644092432E+03    0.38280E-03   -0.79438E-03  1830   0.149E-01    0.392E-01
RMM:   7    -0.230643296195E+03    0.79624E-03   -0.59242E-03  1830   0.130E-01    0.313E-01
RMM:   8    -0.230642226974E+03    0.10692E-02   -0.18648E-03  1817   0.732E-02    0.131E-01
RMM:   9    -0.230641993933E+03    0.23304E-03   -0.36947E-04  1269   0.341E-02    0.583E-02
RMM:  10    -0.230641968226E+03    0.25707E-04   -0.14879E-04   973   0.226E-02
   4 F= -.23064197E+03 E0= -.23063322E+03  d E =-.147355E+00
 BRION: g(F)=  0.147E+00 g(S)=  0.000E+00 retain N=  3 mean eig= 3.39
 eig:   1.765  4.202  4.202
 bond charge predicted
       N       E                     dE             d eps       ncg     rms          rms(c)
DAV:   1    -0.230686451334E+03   -0.44457E-01   -0.94015E+00  1840   0.601E+00    0.449E-01
RMM:   2    -0.230709224215E+03   -0.22773E-01   -0.21125E-01  1843   0.896E-01    0.534E-01
RMM:   3    -0.230712098088E+03   -0.28739E-02   -0.12270E-02  1851   0.197E-01    0.747E-01
RMM:   4    -0.230704914235E+03    0.71839E-02   -0.36934E-03  1841   0.102E-01    0.316E-01
RMM:   5    -0.230703771554E+03    0.11427E-02   -0.18274E-03  1827   0.728E-02    0.196E-01
RMM:   6    -0.230703664040E+03    0.10751E-03   -0.18788E-03  1824   0.733E-02    0.175E-01
RMM:   7    -0.230703323676E+03    0.34036E-03   -0.11547E-03  1818   0.583E-02    0.944E-02
RMM:   8    -0.230703171735E+03    0.15194E-03   -0.25590E-04  1068   0.294E-02    0.372E-02
RMM:   9    -0.230703166026E+03    0.57091E-05   -0.61029E-05   965   0.155E-02
   5 F= -.23070317E+03 E0= -.23069432E+03  d E =-.611978E-01
 BRION: g(F)=  0.311E-01 g(S)=  0.000E+00 retain N=  2 mean eig= 0.46
 eig:   0.601  0.323
 bond charge predicted
       N       E                     dE             d eps       ncg     rms          rms(c)
[mpiexec@node09] Sending Ctrl-C to processes as requested
[mpiexec@node09] Press Ctrl-C again to force abort
