 vasp.5.4.4 16052018 (build Apr 24 2014 20:13:14) complex standard
 Contain Constrained Minimization Technique (TS), Periodic NBO, VASPsol, libbeef, VASP2WANNIER90, Constrained Cell Relaxation
 executed on Center for Computational Chemistry by phu@node07 date 2025.11.24 19:42:09
 running on    8 total cores
 distrk:  each k-point on    8 cores,    1 groups
 distr:  one band on NCORES_PER_BAND=   2 cores,    4 groups


--------------------------------------------------------------------------------------------------------


 INCAR:
 POTCAR:   PAW_PBE C 08Apr2002                    
 POTCAR:   PAW_PBE O 08Apr2002                    
 POTCAR:    PAW_PBE Pt 04Feb2005                  
 POTCAR:   PAW_PBE C 08Apr2002                    
   VRHFIN =C: s2p2                                                              
   LEXCH  = PE                                                                  
   EATOM  =   147.1560 eV,   10.8157 Ry                                         
                                                                                
   TITEL  = PAW_PBE C 08Apr2002                                                 
   LULTRA =        F    use ultrasoft PP ?                                      
   IUNSCR =        0    unscreen: 0-lin 1-nonlin 2-no                           
   RPACOR =     .000    partial core radius                                     
   POMASS =   12.011; ZVAL   =    4.000    mass and valenz                      
   RCORE  =    1.500    outmost cutoff radius                                   
   RWIGS  =    1.630; RWIGS  =     .863    wigner-seitz radius (au A)           
   ENMAX  =  400.000; ENMIN  =  300.000 eV                                      
   ICORE  =        2    local potential                                         
   LCOR   =        T    correct aug charges                                     
   LPAW   =        T    paw PP                                                  
   EAUG   =  644.873                                                            
   DEXC   =     .000                                                            
   RMAX   =    2.266    core radius for proj-oper                               
   RAUG   =    1.300    factor for augmentation sphere                          
   RDEP   =    1.501    radius for radial grids                                 
   RDEPT  =    1.300    core radius for aug-charge                              
   QCUT   =   -5.516; QGAM   =   11.032    optimization parameters              
                                                                                
   Description                                                                  
     l     E      TYP  RCUT    TYP  RCUT                                        
     0   .000     23  1.200                                                     
     0   .000     23  1.200                                                     
     1   .000     23  1.500                                                     
     1  2.500     23  1.500                                                     
     2   .000      7  1.500                                                     
  local pseudopotential read in
  atomic valenz-charges read in
  non local Contribution for L=           0  read in
    real space projection operators read in
  non local Contribution for L=           0  read in
    real space projection operators read in
  non local Contribution for L=           1  read in
    real space projection operators read in
  non local Contribution for L=           1  read in
    real space projection operators read in
    PAW grid and wavefunctions read in
 
   number of l-projection  operators is LMAX  =           4
   number of lm-projection operators is LMMAX =           8
 
 POTCAR:   PAW_PBE O 08Apr2002                    
   VRHFIN =O: s2p4                                                              
   LEXCH  = PE                                                                  
   EATOM  =   432.3788 eV,   31.7789 Ry                                         
                                                                                
   TITEL  = PAW_PBE O 08Apr2002                                                 
   LULTRA =        F    use ultrasoft PP ?                                      
   IUNSCR =        0    unscreen: 0-lin 1-nonlin 2-no                           
   RPACOR =     .000    partial core radius                                     
   POMASS =   16.000; ZVAL   =    6.000    mass and valenz                      
   RCORE  =    1.520    outmost cutoff radius                                   
   RWIGS  =    1.550; RWIGS  =     .820    wigner-seitz radius (au A)           
   ENMAX  =  400.000; ENMIN  =  300.000 eV                                      
   ICORE  =        2    local potential                                         
   LCOR   =        T    correct aug charges                                     
   LPAW   =        T    paw PP                                                  
   EAUG   =  605.392                                                            
   DEXC   =     .000                                                            
   RMAX   =    2.264    core radius for proj-oper                               
   RAUG   =    1.300    factor for augmentation sphere                          
   RDEP   =    1.550    radius for radial grids                                 
   QCUT   =   -5.520; QGAM   =   11.041    optimization parameters              
                                                                                
   Description                                                                  
     l     E      TYP  RCUT    TYP  RCUT                                        
     0   .000     23  1.200                                                     
     0  -.700     23  1.200                                                     
     1   .000     23  1.520                                                     
     1   .600     23  1.520                                                     
     2   .000      7  1.500                                                     
  local pseudopotential read in
  atomic valenz-charges read in
  non local Contribution for L=           0  read in
    real space projection operators read in
  non local Contribution for L=           0  read in
    real space projection operators read in
  non local Contribution for L=           1  read in
    real space projection operators read in
  non local Contribution for L=           1  read in
    real space projection operators read in
    PAW grid and wavefunctions read in
 
   number of l-projection  operators is LMAX  =           4
   number of lm-projection operators is LMMAX =           8
 
 POTCAR:    PAW_PBE Pt 04Feb2005                  
   VRHFIN =Pt: s1d9                                                             
   LEXCH  = PE                                                                  
   EATOM  =   729.1182 eV,   53.5887 Ry                                         
                                                                                
   TITEL  = PAW_PBE Pt 04Feb2005                                                
   LULTRA =        F    use ultrasoft PP ?                                      
   IUNSCR =        1    unscreen: 0-lin 1-nonlin 2-no                           
   RPACOR =    2.330    partial core radius                                     
   POMASS =  195.080; ZVAL   =   10.000    mass and valenz                      
   RCORE  =    2.600    outmost cutoff radius                                   
   RWIGS  =    2.750; RWIGS  =    1.455    wigner-seitz radius (au A)           
   ENMAX  =  230.283; ENMIN  =  172.712 eV                                      
   ICORE  =        3    local potential                                         
   LCOR   =        T    correct aug charges                                     
   LPAW   =        T    paw PP                                                  
   EAUG   =  358.966                                                            
   DEXC   =     .000                                                            
   RMAX   =    3.038    core radius for proj-oper                               
   RAUG   =    1.300    factor for augmentation sphere                          
   RDEP   =    2.761    radius for radial grids                                 
   QCUT   =   -4.114; QGAM   =    8.228    optimization parameters              
                                                                                
   Description                                                                  
     l     E      TYP  RCUT    TYP  RCUT                                        
     2   .000     23  2.500                                                     
     2   .000     23  2.500                                                     
     0   .000     23  2.500                                                     
     0   .000     23  2.500                                                     
     1  -.200     23  2.600                                                     
     1  1.500     23  2.600                                                     
     3   .000     23  2.500                                                     
  local pseudopotential read in
  partial core-charges read in
  atomic valenz-charges read in
  non local Contribution for L=           2  read in
    real space projection operators read in
  non local Contribution for L=           2  read in
    real space projection operators read in
  non local Contribution for L=           0  read in
    real space projection operators read in
  non local Contribution for L=           0  read in
    real space projection operators read in
  non local Contribution for L=           1  read in
    real space projection operators read in
  non local Contribution for L=           1  read in
    real space projection operators read in
    PAW grid and wavefunctions read in
 
   number of l-projection  operators is LMAX  =           6
   number of lm-projection operators is LMMAX =          18
 
 Optimization of the real space projectors (new method)

 maximal supplied QI-value         = 25.13
 optimisation between [QCUT,QGAM] = [ 10.81, 21.61] = [ 32.71,130.83] Ry 
 Optimized for a Real-space Cutoff    1.23 Angstroem

   l    n(q)    QCUT    max X(q) W(low)/X(q) W(high)/X(q)  e(spline) 
   0      8    10.807     5.582    0.53E-04    0.84E-04    0.44E-07
   0      8    10.807    69.432    0.35E-03    0.71E-03    0.24E-06
   1      7    10.807     2.780    0.44E-04    0.88E-04    0.89E-07
   1      7    10.807     4.549    0.14E-03    0.28E-03    0.13E-06
 Optimization of the real space projectors (new method)

 maximal supplied QI-value         = 24.76
 optimisation between [QCUT,QGAM] = [ 10.64, 21.54] = [ 31.73,129.89] Ry 
 Optimized for a Real-space Cutoff    1.23 Angstroem

   l    n(q)    QCUT    max X(q) W(low)/X(q) W(high)/X(q)  e(spline) 
   0      8    10.645     4.192    0.69E-04    0.93E-04    0.58E-07
   0      8    10.645     8.473    0.40E-03    0.65E-03    0.17E-06
   1      7    10.645     2.474    0.80E-04    0.12E-03    0.30E-07
   1      7    10.645     3.912    0.24E-03    0.53E-03    0.16E-06
 Optimization of the real space projectors (new method)

 maximal supplied QI-value         = 14.36
 optimisation between [QCUT,QGAM] = [ 10.77, 21.69] = [ 32.49,131.70] Ry 
 Optimized for a Real-space Cutoff    1.46 Angstroem

   l    n(q)    QCUT    max X(q) W(low)/X(q) W(high)/X(q)  e(spline) 
   2      9    10.771     3.903    0.38E-04    0.12E-03    0.82E-07
   2      9    10.771    18.372    0.13E-03    0.32E-03    0.28E-06
   0     10    10.771    13.697    0.11E-04    0.86E-05    0.85E-08
   0     10    10.771    65.529    0.40E-04    0.12E-03    0.14E-06
   1      9    10.771     7.604    0.48E-04    0.31E-04    0.38E-07
   1      9    10.771    12.136    0.35E-03    0.16E-03    0.23E-06
 PAW_PBE C 08Apr2002                    :
 energy of atom  1       EATOM= -147.1560
 kinetic energy error for atom=    0.0116 (will be added to EATOM!!)
 PAW_PBE O 08Apr2002                    :
 energy of atom  2       EATOM= -432.3788
 kinetic energy error for atom=    0.0389 (will be added to EATOM!!)
  PAW_PBE Pt 04Feb2005                  :
 energy of atom  3       EATOM= -729.1182
 kinetic energy error for atom=    0.0051 (will be added to EATOM!!)
 
 
 POSCAR: C    O    Pt                            
  positions in direct lattice
  No initial velocities read in
 exchange correlation table for  LEXCH =        8
   RHO(1)=    0.500       N(1)  =     2000
   RHO(2)=  100.500       N(2)  =     4000

 VTST: version 3.2, (02/03/18)

 CHAIN: initializing optimizer
 
 OPT: Using VASP QUASI-newton optimizer
 CHAIN: Read ICHAIN            0
 
 POSCAR: C    O    Pt                            
  positions in direct lattice
  No initial velocities read in
 


--------------------------------------------------------------------------------------------------------


 ion  position               nearest neighbor table
   1  0.700  0.439  0.475-   3 1.16  36 1.92  39 2.73
   2  0.905  0.383  0.462-  38 1.92  36 2.46  37 2.71
   3  0.672  0.466  0.524-   1 1.16
   4  0.987  0.329  0.074-  15 2.81  16 2.81  12 2.81   5 2.81  11 2.81   6 2.81  18 2.81   8 2.81
                             7 2.81
   5  0.320  0.329  0.074-  13 2.81  10 2.81   4 2.81  12 2.81  16 2.81  17 2.81   8 2.81   9 2.81
                             6 2.81
   6  0.653  0.329  0.074-  14 2.81  18 2.81  11 2.81   4 2.81  17 2.81   7 2.81  10 2.81   9 2.81
                             5 2.81
   7  0.987  0.662  0.074-  18 2.81  21 2.81  19 2.81  12 2.81   8 2.81  10 2.81   9 2.81   6 2.81
                             4 2.81
   8  0.320  0.662  0.074-  16 2.81  19 2.81  10 2.81   7 2.81  20 2.81   4 2.81  11 2.81   5 2.81
                             9 2.81
   9  0.653  0.662  0.074-  17 2.81  20 2.81  21 2.81  11 2.81  12 2.81   7 2.81   6 2.81   5 2.81
                             8 2.81
  10  0.320  0.995  0.074-  13 2.81  19 2.81   5 2.81   8 2.81  12 2.81   7 2.81  14 2.81   6 2.81
                            11 2.81
  11  0.653  0.995  0.074-  14 2.81  20 2.81  15 2.81   9 2.81   6 2.81  12 2.81   4 2.81   8 2.81
                            10 2.81
  12  0.987  0.995  0.074-  15 2.81  21 2.81  13 2.81   7 2.81   4 2.81  10 2.81   5 2.81  11 2.81
                             9 2.81
  13  0.209  0.106  0.179-  25 2.73  27 2.80   5 2.81  10 2.81  12 2.81  19 2.81  15 2.81  21 2.81
                            16 2.81  14 2.81  17 2.81  26 2.83
  14  0.542  0.106  0.179-  26 2.77  24 2.79  23 2.79  11 2.81   6 2.81  20 2.81  15 2.81  10 2.81
                            18 2.81  19 2.81  17 2.81  13 2.81
  15  0.876  0.106  0.179-  24 2.75  25 2.75  28 2.77  12 2.81   4 2.81  11 2.81  21 2.81  13 2.81
                            14 2.81  20 2.81  16 2.81  18 2.81
  16  0.209  0.440  0.179-  25 2.73  22 2.74  29 2.75   8 2.81   4 2.81  19 2.81  18 2.81   5 2.81
                            15 2.81  20 2.81  13 2.81  17 2.81
  17  0.542  0.440  0.179-  29 2.73  26 2.80  30 2.80   9 2.81  20 2.81  21 2.81  18 2.81   6 2.81
                             5 2.81  14 2.81  13 2.81  16 2.81
  18  0.876  0.440  0.179-  22 2.77  24 2.79  30 2.80   7 2.81   6 2.81  21 2.81  16 2.81  19 2.81
                            17 2.81   4 2.81  14 2.81  15 2.81
  19  0.209  0.773  0.179-  22 2.78  10 2.81   8 2.81   7 2.81  16 2.81  13 2.81  21 2.81  18 2.81
                            14 2.81  20 2.81  23 2.81  27 2.85
  20  0.542  0.773  0.179-  29 2.73  28 2.76  23 2.81  11 2.81   9 2.81  17 2.81  14 2.81  21 2.81
                            15 2.81   8 2.81  16 2.81  19 2.81
  21  0.876  0.773  0.179-  28 2.75  30 2.79  27 2.80  12 2.81   7 2.81   9 2.81  18 2.81  15 2.81
                            19 2.81  13 2.81  17 2.81  20 2.81
  22  0.100  0.548  0.281-  16 2.74  31 2.74  37 2.77  18 2.77  25 2.78  19 2.78  29 2.80  24 2.81
                            23 2.83  30 2.83  27 2.89  38 2.90
  23  0.433  0.887  0.284-  32 2.66  35 2.69  31 2.73  26 2.76  24 2.79  14 2.79  20 2.81  19 2.81
                            28 2.81  29 2.82  22 2.83  27 2.85
  24  0.768  0.213  0.282-  32 2.72  15 2.75  25 2.78  28 2.78  23 2.79  14 2.79  26 2.79  18 2.79
                            22 2.81  30 2.86  38 2.90  36 3.01
  25  0.100  0.219  0.280-  13 2.73  16 2.73  15 2.75  27 2.77  33 2.77  22 2.78  24 2.78  29 2.81
                            28 2.84  26 2.85  34 2.86  38 2.87
  26  0.438  0.217  0.283-  35 2.74  33 2.75  23 2.76  14 2.77  30 2.79  24 2.79  17 2.80  13 2.83
                            27 2.84  29 2.84  25 2.85  36 2.89
  27  0.095  0.888  0.285-  34 2.67  37 2.72  35 2.72  28 2.76  25 2.77  30 2.80  13 2.80  21 2.80
                            26 2.84  19 2.85  23 2.85  22 2.89
  28  0.764  0.881  0.281-  21 2.75  20 2.76  27 2.76  32 2.76  15 2.77  29 2.77  24 2.78  30 2.78
                            23 2.81  34 2.84  25 2.84  39 2.93
  29  0.434  0.553  0.280-  20 2.73  17 2.73  16 2.75  28 2.77  31 2.79  22 2.80  30 2.80  33 2.81
                            25 2.81  23 2.82  26 2.84  39 2.98
  30  0.766  0.552  0.283-  28 2.78  37 2.79  26 2.79  21 2.79  18 2.80  29 2.80  27 2.80  17 2.80
                            22 2.83  24 2.86  39 2.88  36 2.97
  31  0.320  0.662  0.383-  23 2.73  37 2.73  22 2.74  35 2.77  32 2.77  29 2.79  38 2.80  33 2.83
                            39 2.87
  32  0.647  0.992  0.382-  23 2.66  24 2.72  35 2.75  28 2.76  31 2.77  36 2.82  39 2.84  38 2.87
                            34 2.92
  33  0.319  0.326  0.383-  38 2.72  26 2.75  25 2.77  36 2.78  34 2.78  29 2.81  31 2.83  35 2.83
                            39 2.86
  34  0.994  0.990  0.386-  27 2.67  37 2.74  35 2.76  33 2.78  38 2.80  39 2.80  28 2.84  25 2.86
                            32 2.92
  35  0.321  0.991  0.383-  23 2.69  27 2.72  37 2.73  26 2.74  32 2.75  34 2.76  31 2.77  36 2.79
                            33 2.83
  36  0.647  0.325  0.396-   1 1.92   2 2.46  33 2.78  39 2.79  35 2.79  32 2.82  26 2.89  37 2.93
                            38 2.95  30 2.97  24 3.01
  37  0.998  0.667  0.384-   2 2.71  27 2.72  35 2.73  31 2.73  34 2.74  22 2.77  30 2.79  39 2.84
                            38 2.89  36 2.93
  38  0.995  0.323  0.391-   2 1.92  33 2.72  34 2.80  31 2.80  25 2.87  32 2.87  37 2.89  24 2.90
                            22 2.90  36 2.95
  39  0.659  0.662  0.393-   1 2.73  36 2.79  34 2.80  37 2.84  32 2.84  33 2.86  31 2.87  30 2.88
                            28 2.93  29 2.98
 

IMPORTANT INFORMATION: All symmetrisations will be switched off!
NOSYMM: (Re-)initialisation of all symmetry stuff for point group C_1.

 
 
 KPOINTS: mesh auto                               

Automatic generation of k-mesh.
Space group operators:
 irot       det(A)        alpha          n_x          n_y          n_z        tau_x        tau_y        tau_z
    1     1.000000     0.000000     1.000000     0.000000     0.000000     0.000000     0.000000     0.000000
 
 Subroutine IBZKPT returns following result:
 ===========================================
 
 Found      4 irreducible k-points:
 
 Following reciprocal coordinates:
            Coordinates               Weight
  0.000000  0.000000  0.000000      1.000000
  0.500000  0.000000  0.000000      1.000000
 -0.000000  0.500000  0.000000      1.000000
  0.500000  0.500000  0.000000      1.000000
 
 Following cartesian coordinates:
            Coordinates               Weight
  0.000000  0.000000  0.000000      1.000000
  0.068522  0.000000  0.000000      1.000000
  0.034261  0.059342  0.000000      1.000000
  0.102783  0.059342  0.000000      1.000000
 


--------------------------------------------------------------------------------------------------------




 Dimension of arrays:
   k-points           NKPTS =      4   k-points in BZ     NKDIM =      4   number of bands    NBANDS=    228
   number of dos      NEDOS =    301   number of ions     NIONS =     39
   non local maximal  LDIM  =      6   non local SUM 2l+1 LMDIM =     18
   total plane-waves  NPLWV = 276480
   max r-space proj   IRMAX =   2756   max aug-charges    IRDMAX=  12646
   dimension x,y,z NGX =    48 NGY =   48 NGZ =  120
   dimension x,y,z NGXF=    96 NGYF=   96 NGZF=  240
   support grid    NGXF=    96 NGYF=   96 NGZF=  240
   ions per type =               1   2  36
   NGX,Y,Z   is equivalent  to a cutoff of   9.47,  9.47,  9.12 a.u.
   NGXF,Y,Z  is equivalent  to a cutoff of  18.94, 18.94, 18.24 a.u.

 SYSTEM =  metal                                   
 POSCAR =  C    O    Pt                            

 Startparameter for this run:
   NWRITE =      2    write-flag & timer
   PREC   = normal    normal or accurate (medium, high low for compatibility)
   ISTART =      0    job   : 0-new  1-cont  2-samecut
   ICHARG =      2    charge: 1-file 2-atom 10-const
   ISPIN  =      1    spin polarized calculation?
   LNONCOLLINEAR =      F non collinear calculations
   LSORBIT =      F    spin-orbit coupling
   INIWAV =      1    electr: 0-lowe 1-rand  2-diag
   LASPH  =      F    aspherical Exc in radial PAW
   METAGGA=      F    non-selfconsistent MetaGGA calc.

 Electronic Relaxation 1
   ENCUT  =  450.0 eV  33.07 Ry    5.75 a.u.  14.57 14.57 37.84*2*pi/ulx,y,z
   ENINI  =  450.0     initial cutoff
   ENAUG  =  644.9 eV  augmentation charge cutoff
   NELM   =     60;   NELMIN=  8; NELMDL= -5     # of ELM steps 
   EDIFF  = 0.1E-03   stopping-criterion for ELM
   LREAL  =      T    real-space projection
   NLSPLINE    = F    spline interpolate recip. space projectors
   LCOMPAT=      F    compatible to vasp.4.4
   GGA_COMPAT  = T    GGA compatible to vasp.4.4-vasp.4.6
   LMAXPAW     = -100 max onsite density
   LMAXMIX     =    2 max onsite mixed and CHGCAR
   VOSKOWN=      0    Vosko Wilk Nusair interpolation
   ROPT   =   -0.00050  -0.00050  -0.00050
 Ionic relaxation
   EDIFFG = -.5E-01   stopping-criterion for IOM
   NSW    =   5000    number of steps for IOM
   NBLOCK =      1;   KBLOCK =   5000    inner block; outer block 
   IBRION =      1    ionic relax: 0-MD 1-quasi-New 2-CG
   NFREE  =      0    steps in history (QN), initial steepest desc. (CG)
   ISIF   =      2    stress and relaxation
   IWAVPR =     11    prediction:  0-non 1-charg 2-wave 3-comb
   ISYM   =      0    0-nonsym 1-usesym 2-fastsym
   LCORR  =      T    Harris-Foulkes like correction to forces

   POTIM  = 0.2000    time-step for ionic-motion
   TEIN   =    0.0    initial temperature
   TEBEG  =    0.0;   TEEND  =   0.0 temperature during run
   SMASS  =  -3.00    Nose mass-parameter (am)
   estimated Nose-frequenzy (Omega)   =  0.10E-29 period in steps =****** mass=  -0.162E-26a.u.
   SCALEE = 1.0000    scale energy and forces
   NPACO  =    256;   APACO  = 16.0  distance and # of slots for P.C.
   PSTRESS=    0.0 pullay stress

  Mass of Ions in am
   POMASS =  12.01 16.00195.08
  Ionic Valenz
   ZVAL   =   4.00  6.00 10.00
  Atomic Wigner-Seitz radii
   RWIGS  =  -1.00 -1.00 -1.00
  virtual crystal weights 
   VCA    =   1.00  1.00  1.00
   NELECT =     376.0000    total number of electrons
   NUPDOWN=      -1.0000    fix difference up-down

 DOS related values:
   EMIN   =  10.00;   EMAX   =-10.00  energy-range for DOS
   EFERMI =   0.00
   ISMEAR =     1;   SIGMA  =   0.20  broadening in eV -4-tet -1-fermi 0-gaus

 Electronic relaxation 2 (details)
   IALGO  =     68    algorithm
   LDIAG  =      T    sub-space diagonalisation (order eigenvalues)
   LSUBROT=      F    optimize rotation matrix (better conditioning)
   TURBO    =      0    0=normal 1=particle mesh
   IRESTART =      0    0=no restart 2=restart with 2 vectors
   NREBOOT  =      0    no. of reboots
   NMIN     =      0    reboot dimension
   EREF     =   0.00    reference energy to select bands
   IMIX   =      4    mixing-type and parameters
     AMIX     =   0.40;   BMIX     =  1.00
     AMIX_MAG =   1.60;   BMIX_MAG =  1.00
     AMIN     =   0.10
     WC   =   100.;   INIMIX=   1;  MIXPRE=   1;  MAXMIX= -45

 Intra band minimization:
   WEIMIN = 0.0010     energy-eigenvalue tresh-hold
   EBREAK =  0.11E-06  absolut break condition
   DEPER  =   0.30     relativ break condition  

   TIME   =   0.40     timestep for ELM

  volume/ion in A,a.u.               =      34.49       232.77
  Fermi-wavevector in a.u.,A,eV,Ry     =   1.070385  2.022734 15.588510  1.145723
  Thomas-Fermi vector in A             =   2.206093
 
 Write flags
   LWAVE        =      F    write WAVECAR
   LDOWNSAMPLE  =      F    k-point downsampling of WAVECAR
   LCHARG       =      F    write CHGCAR
   LVTOT        =      F    write LOCPOT, total local potential
   LVHAR        =      F    write LOCPOT, Hartree potential only
   LELF         =      F    write electronic localiz. function (ELF)
   LORBIT       =      0    0 simple, 1 ext, 2 COOP (PROOUT), +10 PAW based schemes


 Dipole corrections
   LMONO  =      F    monopole corrections only (constant potential shift)
   LDIPOL =      F    correct potential (dipole corrections)
   IDIPOL =      0    1-x, 2-y, 3-z, 4-all directions 
   EPSILON=  1.0000000 bulk dielectric constant

 Exchange correlation treatment:
   GGA     =    --    GGA type
   LEXCH   =     8    internal setting for exchange type
   VOSKOWN=      0    Vosko Wilk Nusair interpolation
   LHFCALC =     F    Hartree Fock is set to
   LHFONE  =     F    Hartree Fock one center treatment
   AEXX    =    0.0000 exact exchange contribution

 Linear response parameters
   LEPSILON=     F    determine dielectric tensor
   LRPA    =     F    only Hartree local field effects (RPA)
   LNABLA  =     F    use nabla operator in PAW spheres
   LVEL    =     F    velocity operator in full k-point grid
   LINTERFAST=   F  fast interpolation
   KINTER  =     0    interpolate to denser k-point grid
   CSHIFT  =0.1000    complex shift for real part using Kramers Kronig
   OMEGAMAX=  -1.0    maximum frequency
   DEG_THRESHOLD= 0.2000000E-02 threshold for treating states as degnerate
   RTIME   =   -0.100 relaxation time in fs
  (WPLASMAI=    0.000 imaginary part of plasma frequency in eV, 0.658/RTIME)
   DFIELD  = 0.0000000 0.0000000 0.0000000 field for delta impulse in time
 
 Orbital magnetization related:
   ORBITALMAG=     F  switch on orbital magnetization
   LCHIMAG   =     F  perturbation theory with respect to B field
   DQ        =  0.001000  dq finite difference perturbation B field
   LLRAUG    =     F  two centre corrections for induced B field



--------------------------------------------------------------------------------------------------------


 quasi-Newton-method for relaxation of ions
   using selective dynamics as specified on POSCAR
 charge density and potential will be updated during run
 non-spin polarized calculation
 RMM-DIIS sequential band-by-band and
  variant of blocked Davidson during initial phase
 perform sub-space diagonalisation
    before iterative eigenvector-optimisation
 modified Broyden-mixing scheme, WC =      100.0
 initial mixing is a Kerker type mixing with AMIX =  0.4000 and BMIX =      1.0000
 Hartree-type preconditioning will be used
 using additional bands           40
 real space projection scheme for non local part
 use partial core corrections
 calculate Harris-corrections to forces 
   (improved forces if not selfconsistent)
 use gradient corrections 
 use of overlap-Matrix (Vanderbilt PP)
 Methfessel and Paxton  Order N= 1 SIGMA  =   0.20


--------------------------------------------------------------------------------------------------------


  energy-cutoff  :      450.00
  volume of cell :     1345.22
      direct lattice vectors                 reciprocal lattice vectors
     7.296955120 -4.212899000  0.000000000     0.137043463  0.000000000  0.000000000
     0.000000000  8.425798000  0.000000000     0.068521732  0.118683121  0.000000000
     0.000000000  0.000000000 21.879635000     0.000000000  0.000000000  0.045704602

  length of vectors
     8.425798004  8.425798000 21.879635000     0.137043463  0.137043463  0.045704602


 
 k-points in units of 2pi/SCALE and weight: mesh auto                               
   0.00000000  0.00000000  0.00000000       0.250
   0.06852173  0.00000000  0.00000000       0.250
   0.03426087  0.05934156  0.00000000       0.250
   0.10278260  0.05934156  0.00000000       0.250
 
 k-points in reciprocal lattice and weights: mesh auto                               
   0.00000000  0.00000000  0.00000000       0.250
   0.50000000  0.00000000  0.00000000       0.250
  -0.00000000  0.50000000  0.00000000       0.250
   0.50000000  0.50000000  0.00000000       0.250
 
 position of ions in fractional coordinates (direct lattice) 
   0.70020880  0.43902387  0.47457048
   0.90526622  0.38320473  0.46230206
   0.67207226  0.46587976  0.52445901
   0.98675500  0.32859100  0.07437600
   0.32008800  0.32859100  0.07437600
   0.65342200  0.32859100  0.07437600
   0.98675500  0.66192500  0.07437600
   0.32008800  0.66192500  0.07437600
   0.65342200  0.66192500  0.07437600
   0.32008800  0.99525800  0.07437600
   0.65342200  0.99525800  0.07437600
   0.98675500  0.99525800  0.07437600
   0.20897700  0.10636900  0.17918600
   0.54231100  0.10636900  0.17918600
   0.87564400  0.10636900  0.17918600
   0.20897700  0.43970300  0.17918600
   0.54231100  0.43970300  0.17918600
   0.87564400  0.43970300  0.17918600
   0.20897700  0.77303600  0.17918600
   0.54231100  0.77303600  0.17918600
   0.87564400  0.77303600  0.17918600
   0.10007906  0.54784911  0.28149241
   0.43270772  0.88650287  0.28365670
   0.76768094  0.21343264  0.28215325
   0.10048662  0.21861247  0.27980258
   0.43837947  0.21734529  0.28336185
   0.09464392  0.88754444  0.28450693
   0.76406567  0.88129722  0.28121214
   0.43434310  0.55252839  0.27988898
   0.76604068  0.55193608  0.28332628
   0.31984000  0.66180587  0.38325190
   0.64749293  0.99194848  0.38212791
   0.31861174  0.32590948  0.38345323
   0.99367907  0.99031369  0.38585967
   0.32096994  0.99103055  0.38334580
   0.64674940  0.32450716  0.39564919
   0.99799354  0.66696734  0.38449303
   0.99539970  0.32282097  0.39074804
   0.65927199  0.66171510  0.39335000
 
 position of ions in cartesian coordinates  (Angst):
   5.10939222  0.74921751 10.38342891
   6.60568698 -0.58498950 10.11500034
   4.90408111  1.09403618 11.47497177
   7.20030695 -1.38845776  1.62731973
   2.33566777  1.42014298  1.62731973
   4.76799101  0.01584050  1.62731973
   7.20030695  1.42014719  1.62731973
   2.33566777  4.22874793  1.62731973
   4.76799101  2.82444545  1.62731973
   2.33566777  7.03734445  1.62731973
   4.76799101  5.63304198  1.62731973
   7.20030695  4.22874371  1.62731973
   1.52489579  0.01584471  3.92052428
   3.95721903 -1.38845776  3.92052428
   6.38953497 -2.79275602  3.92052428
   1.52489579  2.82444966  3.92052428
   3.95721903  1.42014719  3.92052428
   6.38953497  0.01584893  3.92052428
   1.52489579  5.63304619  3.92052428
   3.95721903  4.22874371  3.92052428
   6.38953497  2.82444545  3.92052428
   0.73027238  4.19444300  6.15895115
   3.15744883  5.64654016  6.20630502
   5.60173335 -1.43582197  6.17341004
   0.73324639  1.41864453  6.12197830
   3.19883532 -0.01554094  6.19985388
   0.69061245  7.07954490  6.22490768
   5.57535290  4.20670083  6.15281899
   3.16938212  2.82564902  6.12386864
   5.58976444  1.42324994  6.19907560
   2.33385812  4.22878894  8.38541176
   4.72472683  5.63013520  8.36081930
   2.32489555  1.40376837  8.38981676
   7.25083158  4.15791354  8.44246866
   2.34210327  6.99800926  8.38746622
   4.71930134  0.00954185  8.65665987
   7.28231410  1.41528607  8.41256717
   7.26338690 -1.47349412  8.54942458
   4.81067810  2.79803146  8.60635446
 


--------------------------------------------------------------------------------------------------------


 k-point  1 :   0.0000 0.0000 0.0000  plane waves:   29241
 k-point  2 :   0.5000 0.0000 0.0000  plane waves:   29108
 k-point  3 :  -0.0000 0.5000 0.0000  plane waves:   29108
 k-point  4 :   0.5000 0.5000 0.0000  plane waves:   29108

 maximum and minimum number of plane-waves per node :     14624    14548

 maximum number of plane-waves:     29241
 maximum index in each direction: 
   IXMAX=   14   IYMAX=   14   IZMAX=   37
   IXMIN=  -15   IYMIN=  -15   IZMIN=  -37


 real space projection operators:
  total allocation   :      13546.39 KBytes
  max/ min on nodes  :       6781.73       6764.66


 parallel 3D FFT for wavefunctions:
    minimum data exchange during FFTs selected (reduces bandwidth)
 parallel 3D FFT for charge:
    minimum data exchange during FFTs selected (reduces bandwidth)


 total amount of memory used by VASP MPI-rank0   131953. kBytes
=======================================================================

   base      :      30000. kBytes
   nonlr-proj:      10145. kBytes
   fftplans  :      13556. kBytes
   grid      :      23353. kBytes
   one-center:        311. kBytes
   wavefun   :      54588. kBytes
 
     INWAV:  cpu time    0.0000: real time    0.0000
 Broyden mixing: mesh for mixing (old mesh)
   NGX = 29   NGY = 29   NGZ = 75
  (NGX  = 96   NGY  = 96   NGZ  =240)
  gives a total of  63075 points

 initial charge density was supplied:
 charge density of overlapping atoms calculated
 number of electron     376.0000000 magnetization 
 keeping initial charge density in first step


--------------------------------------------------------------------------------------------------------


 Maximum index for non-local projection operator         1319
 Maximum index for augmentation-charges         1558 (set IRDMAX)


--------------------------------------------------------------------------------------------------------


 First call to EWALD:  gamma=   0.161
 Maximum number of real-space cells 4x 4x 2
 Maximum number of reciprocal cells 2x 2x 5

    FEWALD:  cpu time    0.0434: real time    0.0437


--------------------------------------- Iteration      1(   1)  ---------------------------------------


    POTLOK:  cpu time    0.4006: real time    0.5164
    SETDIJ:  cpu time    0.0353: real time    0.0357
     EDDAV:  cpu time   26.0428: real time   34.0228
       DOS:  cpu time    0.0011: real time    0.0011
    --------------------------------------------
      LOOP:  cpu time   26.4799: real time   34.5760

 eigenvalue-minimisations  :  1824
 total energy-change (2. order) : 0.2426790E+04  (-0.1595798E+05)
 number of electron     376.0000000 magnetization 
 augmentation part      376.0000000 magnetization 

 Free energy of the ion-electron system (eV)
  ---------------------------------------------------
  alpha Z        PSCENC =       975.10247152
  Ewald energy   TEWEN  =     92343.48299492
  -Hartree energ DENC   =   -121425.93863133
  -exchange      EXHF   =         0.00000000
  -V(xc)+E(xc)   XCENC  =       190.46513994
  PAW double counting   =     24789.08602224   -23775.73976456
  entropy T*S    EENTRO =        -0.00015927
  eigenvalues    EBANDS =      2070.43777172
  atomic energy  EATOM  =     27259.89416086
  Solvation  Ediel_sol  =         0.00000000
  ---------------------------------------------------
  free energy    TOTEN  =      2426.79000603 eV

  energy without entropy =     2426.79016530  energy(sigma->0) =     2426.79005912


--------------------------------------------------------------------------------------------------------




--------------------------------------- Iteration      1(   2)  ---------------------------------------


     EDDAV:  cpu time   29.3548: real time   39.6607
       DOS:  cpu time    0.0009: real time    0.0009
    --------------------------------------------
      LOOP:  cpu time   29.3557: real time   39.6616

 eigenvalue-minimisations  :  2128
 total energy-change (2. order) :-0.2490629E+04  (-0.2313746E+04)
 number of electron     376.0000000 magnetization 
 augmentation part      376.0000000 magnetization 

 Free energy of the ion-electron system (eV)
  ---------------------------------------------------
  alpha Z        PSCENC =       975.10247152
  Ewald energy   TEWEN  =     92343.48299492
  -Hartree energ DENC   =   -121425.93863133
  -exchange      EXHF   =         0.00000000
  -V(xc)+E(xc)   XCENC  =       190.46513994
  PAW double counting   =     24789.08602224   -23775.73976456
  entropy T*S    EENTRO =        -0.00522922
  eigenvalues    EBANDS =      -420.18646392
  atomic energy  EATOM  =     27259.89416086
  Solvation  Ediel_sol  =         0.00000000
  ---------------------------------------------------
  free energy    TOTEN  =       -63.83929956 eV

  energy without entropy =      -63.83407034  energy(sigma->0) =      -63.83755649


--------------------------------------------------------------------------------------------------------




--------------------------------------- Iteration      1(   3)  ---------------------------------------


     EDDAV:  cpu time   30.3006: real time   39.1725
       DOS:  cpu time    0.0010: real time    0.0010
    --------------------------------------------
      LOOP:  cpu time   30.3016: real time   39.1735

 eigenvalue-minimisations  :  2152
 total energy-change (2. order) :-0.1767853E+03  (-0.1605805E+03)
 number of electron     376.0000000 magnetization 
 augmentation part      376.0000000 magnetization 

 Free energy of the ion-electron system (eV)
  ---------------------------------------------------
  alpha Z        PSCENC =       975.10247152
  Ewald energy   TEWEN  =     92343.48299492
  -Hartree energ DENC   =   -121425.93863133
  -exchange      EXHF   =         0.00000000
  -V(xc)+E(xc)   XCENC  =       190.46513994
  PAW double counting   =     24789.08602224   -23775.73976456
  entropy T*S    EENTRO =        -0.00277069
  eigenvalues    EBANDS =      -596.97422728
  atomic energy  EATOM  =     27259.89416086
  Solvation  Ediel_sol  =         0.00000000
  ---------------------------------------------------
  free energy    TOTEN  =      -240.62460439 eV

  energy without entropy =     -240.62183370  energy(sigma->0) =     -240.62368082


--------------------------------------------------------------------------------------------------------




--------------------------------------- Iteration      1(   4)  ---------------------------------------


     EDDAV:  cpu time   30.5500: real time   40.0716
       DOS:  cpu time    0.0010: real time    0.0010
    --------------------------------------------
      LOOP:  cpu time   30.5510: real time   40.0726

 eigenvalue-minimisations  :  2352
 total energy-change (2. order) :-0.7529016E+01  (-0.7259392E+01)
 number of electron     376.0000000 magnetization 
 augmentation part      376.0000000 magnetization 

 Free energy of the ion-electron system (eV)
  ---------------------------------------------------
  alpha Z        PSCENC =       975.10247152
  Ewald energy   TEWEN  =     92343.48299492
  -Hartree energ DENC   =   -121425.93863133
  -exchange      EXHF   =         0.00000000
  -V(xc)+E(xc)   XCENC  =       190.46513994
  PAW double counting   =     24789.08602224   -23775.73976456
  entropy T*S    EENTRO =        -0.00009776
  eigenvalues    EBANDS =      -604.50591609
  atomic energy  EATOM  =     27259.89416086
  Solvation  Ediel_sol  =         0.00000000
  ---------------------------------------------------
  free energy    TOTEN  =      -248.15362027 eV

  energy without entropy =     -248.15352251  energy(sigma->0) =     -248.15358768


--------------------------------------------------------------------------------------------------------




--------------------------------------- Iteration      1(   5)  ---------------------------------------


     EDDAV:  cpu time   33.7167: real time   44.6828
       DOS:  cpu time    0.0074: real time    0.0074
    CHARGE:  cpu time    0.7016: real time    0.8633
    MIXING:  cpu time    0.0447: real time    0.0449
    --------------------------------------------
      LOOP:  cpu time   34.4704: real time   45.5985

 eigenvalue-minimisations  :  2416
 total energy-change (2. order) :-0.2203795E+00  (-0.2186220E+00)
 number of electron     376.0000050 magnetization 
 augmentation part      105.7911006 magnetization 

 Broyden mixing:
  rms(total) = 0.27476E+01    rms(broyden)= 0.27472E+01
  rms(prec ) = 0.30601E+01
  weight for this iteration     100.00

 Free energy of the ion-electron system (eV)
  ---------------------------------------------------
  alpha Z        PSCENC =       975.10247152
  Ewald energy   TEWEN  =     92343.48299492
  -Hartree energ DENC   =   -121425.93863133
  -exchange      EXHF   =         0.00000000
  -V(xc)+E(xc)   XCENC  =       190.46513994
  PAW double counting   =     24789.08602224   -23775.73976456
  entropy T*S    EENTRO =        -0.00007206
  eigenvalues    EBANDS =      -604.72632131
  atomic energy  EATOM  =     27259.89416086
  Solvation  Ediel_sol  =         0.00000000
  ---------------------------------------------------
  free energy    TOTEN  =      -248.37399979 eV

  energy without entropy =     -248.37392773  energy(sigma->0) =     -248.37397577


--------------------------------------------------------------------------------------------------------




--------------------------------------- Iteration      1(   6)  ---------------------------------------


    POTLOK:  cpu time    0.2533: real time    0.4360
    SETDIJ:  cpu time    0.0210: real time    0.0458
    EDDIAG:  cpu time    2.8552: real time    4.3586
  RMM-DIIS:  cpu time    5.8145: real time    7.5109
    ORTHCH:  cpu time    0.6105: real time    0.6546
       DOS:  cpu time    0.0011: real time    0.0011
    CHARGE:  cpu time    1.3298: real time    1.5806
    MIXING:  cpu time    0.0248: real time    0.0249
    --------------------------------------------
      LOOP:  cpu time   10.9102: real time   14.6126

 eigenvalue-minimisations  :  1829
 total energy-change (2. order) : 0.2155758E+01  (-0.5536269E+01)
 number of electron     376.0000058 magnetization 
 augmentation part      112.8744705 magnetization 

 Broyden mixing:
  rms(total) = 0.29679E+01    rms(broyden)= 0.29669E+01
  rms(prec ) = 0.40437E+01
  weight for this iteration     100.00

 eigenvalues of (default mixing * dielectric matrix)
  average eigenvalue GAMMA=   0.4892
  0.4892

 Free energy of the ion-electron system (eV)
  ---------------------------------------------------
  alpha Z        PSCENC =       975.10247152
  Ewald energy   TEWEN  =     92343.48299492
  -Hartree energ DENC   =   -120961.13181967
  -exchange      EXHF   =         0.00000000
  -V(xc)+E(xc)   XCENC  =       183.42619122
  PAW double counting   =     26777.24405203   -25818.03176430
  entropy T*S    EENTRO =        -0.14662414
  eigenvalues    EBANDS =     -1006.05790450
  atomic energy  EATOM  =     27259.89416086
  Solvation  Ediel_sol  =         0.00000000
  ---------------------------------------------------
  free energy    TOTEN  =      -246.21824204 eV

  energy without entropy =     -246.07161790  energy(sigma->0) =     -246.16936732


--------------------------------------------------------------------------------------------------------




--------------------------------------- Iteration      1(   7)  ---------------------------------------


    POTLOK:  cpu time    0.5376: real time    0.5407
    SETDIJ:  cpu time    0.0751: real time    0.0755
    EDDIAG:  cpu time    4.0102: real time    4.4863
  RMM-DIIS:  cpu time    6.6116: real time    7.6967
    ORTHCH:  cpu time    0.5312: real time    0.5342
       DOS:  cpu time    0.0010: real time    0.0010
    CHARGE:  cpu time    0.7773: real time    0.8163
    MIXING:  cpu time    0.0328: real time    0.0329
    --------------------------------------------
      LOOP:  cpu time   12.5767: real time   14.1836

 eigenvalue-minimisations  :  1830
 total energy-change (2. order) : 0.9693399E+00  (-0.3270669E+01)
 number of electron     376.0000063 magnetization 
 augmentation part      111.3393937 magnetization 

 Broyden mixing:
  rms(total) = 0.21670E+01    rms(broyden)= 0.21663E+01
  rms(prec ) = 0.37722E+01
  weight for this iteration     100.00

 eigenvalues of (default mixing * dielectric matrix)
  average eigenvalue GAMMA=   0.5557
  0.8707  0.2407

 Free energy of the ion-electron system (eV)
  ---------------------------------------------------
  alpha Z        PSCENC =       975.10247152
  Ewald energy   TEWEN  =     92343.48299492
  -Hartree energ DENC   =   -121154.42461595
  -exchange      EXHF   =         0.00000000
  -V(xc)+E(xc)   XCENC  =       181.16716030
  PAW double counting   =     27423.17925505   -26471.25749133
  entropy T*S    EENTRO =        -0.12653727
  eigenvalues    EBANDS =      -802.26630028
  atomic energy  EATOM  =     27259.89416086
  Solvation  Ediel_sol  =         0.00000000
  ---------------------------------------------------
  free energy    TOTEN  =      -245.24890218 eV

  energy without entropy =     -245.12236491  energy(sigma->0) =     -245.20672309


--------------------------------------------------------------------------------------------------------




--------------------------------------- Iteration      1(   8)  ---------------------------------------


    POTLOK:  cpu time    0.4080: real time    0.4102
    SETDIJ:  cpu time    0.0417: real time    0.0419
    EDDIAG:  cpu time    3.8488: real time    4.0130
  RMM-DIIS:  cpu time    5.3594: real time    7.5602
    ORTHCH:  cpu time    0.4891: real time    0.5177
       DOS:  cpu time    0.0009: real time    0.0009
    CHARGE:  cpu time    0.8545: real time    0.8848
    MIXING:  cpu time    0.0261: real time    0.0263
    --------------------------------------------
      LOOP:  cpu time   11.0286: real time   13.4551

 eigenvalue-minimisations  :  1825
 total energy-change (2. order) : 0.1622675E+01  (-0.1029858E+01)
 number of electron     376.0000060 magnetization 
 augmentation part      111.8845684 magnetization 

 Broyden mixing:
  rms(total) = 0.22628E+01    rms(broyden)= 0.22627E+01
  rms(prec ) = 0.38016E+01
  weight for this iteration     100.00

 eigenvalues of (default mixing * dielectric matrix)
  average eigenvalue GAMMA=   0.5211
  1.1414  0.2726  0.1493

 Free energy of the ion-electron system (eV)
  ---------------------------------------------------
  alpha Z        PSCENC =       975.10247152
  Ewald energy   TEWEN  =     92343.48299492
  -Hartree energ DENC   =   -121124.82500291
  -exchange      EXHF   =         0.00000000
  -V(xc)+E(xc)   XCENC  =       180.11464342
  PAW double counting   =     28011.42018413   -27068.66959426
  entropy T*S    EENTRO =        -0.03800652
  eigenvalues    EBANDS =      -820.10807834
  atomic energy  EATOM  =     27259.89416086
  Solvation  Ediel_sol  =         0.00000000
  ---------------------------------------------------
  free energy    TOTEN  =      -243.62622717 eV

  energy without entropy =     -243.58822066  energy(sigma->0) =     -243.61355833


--------------------------------------------------------------------------------------------------------




--------------------------------------- Iteration      1(   9)  ---------------------------------------


    POTLOK:  cpu time    0.5171: real time    0.5206
    SETDIJ:  cpu time    0.0228: real time    0.0229
    EDDIAG:  cpu time    3.4656: real time    4.0947
  RMM-DIIS:  cpu time    4.7498: real time    6.7453
    ORTHCH:  cpu time    0.3762: real time    0.6133
       DOS:  cpu time    0.0011: real time    0.0011
    CHARGE:  cpu time    0.6756: real time    0.8537
    MIXING:  cpu time    0.0177: real time    0.0515
    --------------------------------------------
      LOOP:  cpu time    9.8259: real time   12.9032

 eigenvalue-minimisations  :  1831
 total energy-change (2. order) : 0.1183567E+02  (-0.5972529E+00)
 number of electron     376.0000057 magnetization 
 augmentation part      112.6303512 magnetization 

 Broyden mixing:
  rms(total) = 0.88407E+00    rms(broyden)= 0.88373E+00
  rms(prec ) = 0.11531E+01
  weight for this iteration     100.00

 eigenvalues of (default mixing * dielectric matrix)
  average eigenvalue GAMMA=   0.5251
  1.2892  0.3364  0.3364  0.1385

 Free energy of the ion-electron system (eV)
  ---------------------------------------------------
  alpha Z        PSCENC =       975.10247152
  Ewald energy   TEWEN  =     92343.48299492
  -Hartree energ DENC   =   -121054.91590416
  -exchange      EXHF   =         0.00000000
  -V(xc)+E(xc)   XCENC  =       179.43006643
  PAW double counting   =     28738.70520079   -27807.16951059
  entropy T*S    EENTRO =        -0.08290333
  eigenvalues    EBANDS =      -866.23713374
  atomic energy  EATOM  =     27259.89416086
  Solvation  Ediel_sol  =         0.00000000
  ---------------------------------------------------
  free energy    TOTEN  =      -231.79055731 eV

  energy without entropy =     -231.70765398  energy(sigma->0) =     -231.76292286


--------------------------------------------------------------------------------------------------------




--------------------------------------- Iteration      1(  10)  ---------------------------------------


    POTLOK:  cpu time    0.4345: real time    0.6070
    SETDIJ:  cpu time    0.0741: real time    0.0744
    EDDIAG:  cpu time    2.9694: real time    4.3539
  RMM-DIIS:  cpu time    5.1039: real time    7.3912
    ORTHCH:  cpu time    0.4823: real time    0.5605
       DOS:  cpu time    0.0011: real time    0.0011
    CHARGE:  cpu time    0.6139: real time    0.7166
    MIXING:  cpu time    0.0231: real time    0.0493
    --------------------------------------------
      LOOP:  cpu time    9.7022: real time   13.7538

 eigenvalue-minimisations  :  1830
 total energy-change (2. order) : 0.1192214E+01  (-0.1845781E+00)
 number of electron     376.0000059 magnetization 
 augmentation part      112.7633659 magnetization 

 Broyden mixing:
  rms(total) = 0.50786E+00    rms(broyden)= 0.50779E+00
  rms(prec ) = 0.63756E+00
  weight for this iteration     100.00

 eigenvalues of (default mixing * dielectric matrix)
  average eigenvalue GAMMA=   0.5456
  1.3959  0.4668  0.4668  0.1407  0.2582

 Free energy of the ion-electron system (eV)
  ---------------------------------------------------
  alpha Z        PSCENC =       975.10247152
  Ewald energy   TEWEN  =     92343.48299492
  -Hartree energ DENC   =   -121046.02065507
  -exchange      EXHF   =         0.00000000
  -V(xc)+E(xc)   XCENC  =       179.27610952
  PAW double counting   =     29130.68644471   -28204.47104631
  entropy T*S    EENTRO =        -0.00713366
  eigenvalues    EBANDS =      -868.54169018
  atomic energy  EATOM  =     27259.89416086
  Solvation  Ediel_sol  =         0.00000000
  ---------------------------------------------------
  free energy    TOTEN  =      -230.59834370 eV

  energy without entropy =     -230.59121004  energy(sigma->0) =     -230.59596581


--------------------------------------------------------------------------------------------------------




--------------------------------------- Iteration      1(  11)  ---------------------------------------


    POTLOK:  cpu time    0.3980: real time    0.5299
    SETDIJ:  cpu time    0.0124: real time    0.0428
    EDDIAG:  cpu time    2.9158: real time    3.6919
  RMM-DIIS:  cpu time    5.5537: real time    6.5652
    ORTHCH:  cpu time    0.3838: real time    0.5196
       DOS:  cpu time    0.0010: real time    0.0010
    CHARGE:  cpu time    0.4839: real time    0.7749
    MIXING:  cpu time    0.0151: real time    0.0154
    --------------------------------------------
      LOOP:  cpu time    9.7638: real time   12.1407

 eigenvalue-minimisations  :  1831
 total energy-change (2. order) : 0.2805787E+00  (-0.4798980E-01)
 number of electron     376.0000058 magnetization 
 augmentation part      112.8774080 magnetization 

 Broyden mixing:
  rms(total) = 0.33612E+00    rms(broyden)= 0.33584E+00
  rms(prec ) = 0.43938E+00
  weight for this iteration     100.00

 eigenvalues of (default mixing * dielectric matrix)
  average eigenvalue GAMMA=   0.5830
  1.5663  0.8491  0.3544  0.3544  0.1394  0.2347

 Free energy of the ion-electron system (eV)
  ---------------------------------------------------
  alpha Z        PSCENC =       975.10247152
  Ewald energy   TEWEN  =     92343.48299492
  -Hartree energ DENC   =   -121043.17951640
  -exchange      EXHF   =         0.00000000
  -V(xc)+E(xc)   XCENC  =       179.26901544
  PAW double counting   =     29429.72664256   -28507.33346179
  entropy T*S    EENTRO =        -0.04160228
  eigenvalues    EBANDS =      -867.23846982
  atomic energy  EATOM  =     27259.89416086
  Solvation  Ediel_sol  =         0.00000000
  ---------------------------------------------------
  free energy    TOTEN  =      -230.31776498 eV

  energy without entropy =     -230.27616270  energy(sigma->0) =     -230.30389755


--------------------------------------------------------------------------------------------------------




--------------------------------------- Iteration      1(  12)  ---------------------------------------


    POTLOK:  cpu time    0.3508: real time    0.3879
    SETDIJ:  cpu time    0.0953: real time    0.0960
    EDDIAG:  cpu time    2.7872: real time    3.7693
  RMM-DIIS:  cpu time    5.9859: real time    7.4757
    ORTHCH:  cpu time    0.7850: real time    0.8423
       DOS:  cpu time    0.0010: real time    0.0010
    CHARGE:  cpu time    0.8930: real time    0.9667
    MIXING:  cpu time    0.0406: real time    0.0409
    --------------------------------------------
      LOOP:  cpu time   10.9388: real time   13.5799

 eigenvalue-minimisations  :  1842
 total energy-change (2. order) : 0.1642945E+00  (-0.2087141E-01)
 number of electron     376.0000058 magnetization 
 augmentation part      112.9371747 magnetization 

 Broyden mixing:
  rms(total) = 0.19492E+00    rms(broyden)= 0.19488E+00
  rms(prec ) = 0.21843E+00
  weight for this iteration     100.00

 eigenvalues of (default mixing * dielectric matrix)
  average eigenvalue GAMMA=   0.6620
  1.9098  1.0604  0.5034  0.5034  0.1396  0.2585  0.2585

 Free energy of the ion-electron system (eV)
  ---------------------------------------------------
  alpha Z        PSCENC =       975.10247152
  Ewald energy   TEWEN  =     92343.48299492
  -Hartree energ DENC   =   -121034.75335141
  -exchange      EXHF   =         0.00000000
  -V(xc)+E(xc)   XCENC  =       179.21904511
  PAW double counting   =     29737.05444033   -28818.39976195
  entropy T*S    EENTRO =        -0.03245149
  eigenvalues    EBANDS =      -871.72101832
  atomic energy  EATOM  =     27259.89416086
  Solvation  Ediel_sol  =         0.00000000
  ---------------------------------------------------
  free energy    TOTEN  =      -230.15347043 eV

  energy without entropy =     -230.12101894  energy(sigma->0) =     -230.14265327


--------------------------------------------------------------------------------------------------------




--------------------------------------- Iteration      1(  13)  ---------------------------------------


    POTLOK:  cpu time    0.4124: real time    0.4162
    SETDIJ:  cpu time    0.0267: real time    0.1188
    EDDIAG:  cpu time    3.6521: real time    4.7949
  RMM-DIIS:  cpu time    6.1725: real time    7.8897
    ORTHCH:  cpu time    0.5641: real time    0.7885
       DOS:  cpu time    0.0010: real time    0.0010
    CHARGE:  cpu time    0.6428: real time    0.9570
    MIXING:  cpu time    0.0103: real time    0.0361
    --------------------------------------------
      LOOP:  cpu time   11.4819: real time   15.0022

 eigenvalue-minimisations  :  1832
 total energy-change (2. order) :-0.1654491E-01  (-0.1314105E-01)
 number of electron     376.0000058 magnetization 
 augmentation part      112.9544249 magnetization 

 Broyden mixing:
  rms(total) = 0.20309E+00    rms(broyden)= 0.20308E+00
  rms(prec ) = 0.26432E+00
  weight for this iteration     100.00

 eigenvalues of (default mixing * dielectric matrix)
  average eigenvalue GAMMA=   0.6918
  2.1845  1.1426  0.8281  0.4191  0.1396  0.2977  0.2977  0.2250

 Free energy of the ion-electron system (eV)
  ---------------------------------------------------
  alpha Z        PSCENC =       975.10247152
  Ewald energy   TEWEN  =     92343.48299492
  -Hartree energ DENC   =   -121032.18487185
  -exchange      EXHF   =         0.00000000
  -V(xc)+E(xc)   XCENC  =       179.12797784
  PAW double counting   =     29988.71001304   -29073.05387210
  entropy T*S    EENTRO =        -0.01834950
  eigenvalues    EBANDS =      -871.23054006
  atomic energy  EATOM  =     27259.89416086
  Solvation  Ediel_sol  =         0.00000000
  ---------------------------------------------------
  free energy    TOTEN  =      -230.17001534 eV

  energy without entropy =     -230.15166584  energy(sigma->0) =     -230.16389884


--------------------------------------------------------------------------------------------------------




--------------------------------------- Iteration      1(  14)  ---------------------------------------


    POTLOK:  cpu time    0.3590: real time    0.5441
    SETDIJ:  cpu time    0.0199: real time    0.0747
    EDDIAG:  cpu time    3.2873: real time    4.7095
  RMM-DIIS:  cpu time    5.6644: real time    7.6261
    ORTHCH:  cpu time    0.5611: real time    0.6683
       DOS:  cpu time    0.0011: real time    0.0011
    CHARGE:  cpu time    0.6377: real time    0.7409
    MIXING:  cpu time    0.0193: real time    0.0194
    --------------------------------------------
      LOOP:  cpu time   10.5498: real time   14.3842

 eigenvalue-minimisations  :  1832
 total energy-change (2. order) : 0.5820905E-01  (-0.7731542E-02)
 number of electron     376.0000058 magnetization 
 augmentation part      112.9456750 magnetization 

 Broyden mixing:
  rms(total) = 0.89299E-01    rms(broyden)= 0.89276E-01
  rms(prec ) = 0.11164E+00
  weight for this iteration     100.00

 eigenvalues of (default mixing * dielectric matrix)
  average eigenvalue GAMMA=   0.7271
  2.4156  1.2530  0.8657  0.6845  0.3984  0.1396  0.3057  0.2571  0.2241

 Free energy of the ion-electron system (eV)
  ---------------------------------------------------
  alpha Z        PSCENC =       975.10247152
  Ewald energy   TEWEN  =     92343.48299492
  -Hartree energ DENC   =   -121037.79781576
  -exchange      EXHF   =         0.00000000
  -V(xc)+E(xc)   XCENC  =       179.06215488
  PAW double counting   =     30152.45348276   -29238.71430540
  entropy T*S    EENTRO =        -0.03154817
  eigenvalues    EBANDS =      -863.56340191
  atomic energy  EATOM  =     27259.89416086
  Solvation  Ediel_sol  =         0.00000000
  ---------------------------------------------------
  free energy    TOTEN  =      -230.11180629 eV

  energy without entropy =     -230.08025813  energy(sigma->0) =     -230.10129024


--------------------------------------------------------------------------------------------------------




--------------------------------------- Iteration      1(  15)  ---------------------------------------


    POTLOK:  cpu time    0.3082: real time    0.3578
    SETDIJ:  cpu time    0.0287: real time    0.0289
    EDDIAG:  cpu time    3.1153: real time    3.8532
  RMM-DIIS:  cpu time    7.3447: real time    9.2468
    ORTHCH:  cpu time    0.3854: real time    0.5658
       DOS:  cpu time    0.0010: real time    0.0010
    CHARGE:  cpu time    0.6729: real time    0.7225
    MIXING:  cpu time    0.0424: real time    0.1523
    --------------------------------------------
      LOOP:  cpu time   11.8987: real time   14.9284

 eigenvalue-minimisations  :  1831
 total energy-change (2. order) : 0.4065267E-02  (-0.3039101E-02)
 number of electron     376.0000058 magnetization 
 augmentation part      112.9274873 magnetization 

 Broyden mixing:
  rms(total) = 0.63645E-01    rms(broyden)= 0.63604E-01
  rms(prec ) = 0.78511E-01
  weight for this iteration     100.00

 eigenvalues of (default mixing * dielectric matrix)
  average eigenvalue GAMMA=   0.7064
  2.4793  1.2845  0.8169  0.8169  0.4299  0.1396  0.3234  0.2980  0.2529  0.2225

 Free energy of the ion-electron system (eV)
  ---------------------------------------------------
  alpha Z        PSCENC =       975.10247152
  Ewald energy   TEWEN  =     92343.48299492
  -Hartree energ DENC   =   -121039.55920649
  -exchange      EXHF   =         0.00000000
  -V(xc)+E(xc)   XCENC  =       179.04369435
  PAW double counting   =     30235.60277610   -29322.73963520
  entropy T*S    EENTRO =        -0.02338611
  eigenvalues    EBANDS =      -860.91161099
  atomic energy  EATOM  =     27259.89416086
  Solvation  Ediel_sol  =         0.00000000
  ---------------------------------------------------
  free energy    TOTEN  =      -230.10774103 eV

  energy without entropy =     -230.08435492  energy(sigma->0) =     -230.09994566


--------------------------------------------------------------------------------------------------------




--------------------------------------- Iteration      1(  16)  ---------------------------------------


    POTLOK:  cpu time    0.3834: real time    0.5663
    SETDIJ:  cpu time    0.0397: real time    0.0530
    EDDIAG:  cpu time    3.4807: real time    3.7060
  RMM-DIIS:  cpu time    6.2366: real time    7.3860
    ORTHCH:  cpu time    0.3207: real time    0.5731
       DOS:  cpu time    0.0011: real time    0.0011
    CHARGE:  cpu time    0.6315: real time    0.8290
    MIXING:  cpu time    0.1230: real time    0.1237
    --------------------------------------------
      LOOP:  cpu time   11.2168: real time   13.2382

 eigenvalue-minimisations  :  1831
 total energy-change (2. order) : 0.6109908E-02  (-0.7635198E-03)
 number of electron     376.0000058 magnetization 
 augmentation part      112.9285255 magnetization 

 Broyden mixing:
  rms(total) = 0.27011E-01    rms(broyden)= 0.27008E-01
  rms(prec ) = 0.32986E-01
  weight for this iteration     100.00

 eigenvalues of (default mixing * dielectric matrix)
  average eigenvalue GAMMA=   0.6807
  2.4954  1.2881  0.8006  0.8006  0.5207  0.1396  0.3858  0.2940  0.2940  0.2469
  0.2225

 Free energy of the ion-electron system (eV)
  ---------------------------------------------------
  alpha Z        PSCENC =       975.10247152
  Ewald energy   TEWEN  =     92343.48299492
  -Hartree energ DENC   =   -121040.34254966
  -exchange      EXHF   =         0.00000000
  -V(xc)+E(xc)   XCENC  =       179.05229656
  PAW double counting   =     30250.53764284   -29337.79955777
  entropy T*S    EENTRO =        -0.02601463
  eigenvalues    EBANDS =      -860.00307576
  atomic energy  EATOM  =     27259.89416086
  Solvation  Ediel_sol  =         0.00000000
  ---------------------------------------------------
  free energy    TOTEN  =      -230.10163112 eV

  energy without entropy =     -230.07561648  energy(sigma->0) =     -230.09295957


--------------------------------------------------------------------------------------------------------




--------------------------------------- Iteration      1(  17)  ---------------------------------------


    POTLOK:  cpu time    0.3331: real time    0.5342
    SETDIJ:  cpu time    0.0861: real time    0.0868
    EDDIAG:  cpu time    3.5365: real time    3.8577
  RMM-DIIS:  cpu time    6.1562: real time    6.8904
    ORTHCH:  cpu time    0.2987: real time    0.5786
       DOS:  cpu time    0.0010: real time    0.0010
    CHARGE:  cpu time    0.4394: real time    0.7070
    MIXING:  cpu time    0.0961: real time    0.1391
    --------------------------------------------
      LOOP:  cpu time   10.9472: real time   12.7947

 eigenvalue-minimisations  :  1820
 total energy-change (2. order) : 0.8942600E-03  (-0.1697711E-03)
 number of electron     376.0000058 magnetization 
 augmentation part      112.9286061 magnetization 

 Broyden mixing:
  rms(total) = 0.12891E-01    rms(broyden)= 0.12888E-01
  rms(prec ) = 0.15066E-01
  weight for this iteration     100.00

 eigenvalues of (default mixing * dielectric matrix)
  average eigenvalue GAMMA=   0.7356
  2.5301  1.2967  1.0887  1.0887  0.8714  0.4442  0.1396  0.3392  0.3096  0.2605
  0.2215  0.2371

 Free energy of the ion-electron system (eV)
  ---------------------------------------------------
  alpha Z        PSCENC =       975.10247152
  Ewald energy   TEWEN  =     92343.48299492
  -Hartree energ DENC   =   -121040.78311541
  -exchange      EXHF   =         0.00000000
  -V(xc)+E(xc)   XCENC  =       179.05864936
  PAW double counting   =     30252.58790265   -29339.84555289
  entropy T*S    EENTRO =        -0.02571956
  eigenvalues    EBANDS =      -859.57252831
  atomic energy  EATOM  =     27259.89416086
  Solvation  Ediel_sol  =         0.00000000
  ---------------------------------------------------
  free energy    TOTEN  =      -230.10073686 eV

  energy without entropy =     -230.07501730  energy(sigma->0) =     -230.09216367


--------------------------------------------------------------------------------------------------------




--------------------------------------- Iteration      1(  18)  ---------------------------------------


    POTLOK:  cpu time    0.4109: real time    0.5853
    SETDIJ:  cpu time    0.0527: real time    0.1220
    EDDIAG:  cpu time    3.4992: real time    4.5519
  RMM-DIIS:  cpu time    4.8544: real time    6.1972
    ORTHCH:  cpu time    0.4721: real time    0.4747
       DOS:  cpu time    0.0142: real time    0.0143
    CHARGE:  cpu time    0.7687: real time    0.7898
    MIXING:  cpu time    0.0099: real time    0.0099
    --------------------------------------------
      LOOP:  cpu time   10.0820: real time   12.7450

 eigenvalue-minimisations  :  1740
 total energy-change (2. order) :-0.2945992E-03  (-0.7800644E-04)
 number of electron     376.0000058 magnetization 
 augmentation part      112.9267704 magnetization 

 Broyden mixing:
  rms(total) = 0.11931E-01    rms(broyden)= 0.11930E-01
  rms(prec ) = 0.14624E-01
  weight for this iteration     100.00

 eigenvalues of (default mixing * dielectric matrix)
  average eigenvalue GAMMA=   0.7508
  2.5491  1.8409  1.2973  0.8857  0.8857  0.4490  0.1396  0.3573  0.3316  0.3125
  0.2570  0.2213  0.2339

 Free energy of the ion-electron system (eV)
  ---------------------------------------------------
  alpha Z        PSCENC =       975.10247152
  Ewald energy   TEWEN  =     92343.48299492
  -Hartree energ DENC   =   -121042.12557526
  -exchange      EXHF   =         0.00000000
  -V(xc)+E(xc)   XCENC  =       179.07028943
  PAW double counting   =     30252.73841787   -29339.92727932
  entropy T*S    EENTRO =        -0.02588028
  eigenvalues    EBANDS =      -858.31063121
  atomic energy  EATOM  =     27259.89416086
  Solvation  Ediel_sol  =         0.00000000
  ---------------------------------------------------
  free energy    TOTEN  =      -230.10103146 eV

  energy without entropy =     -230.07515118  energy(sigma->0) =     -230.09240470


--------------------------------------------------------------------------------------------------------




--------------------------------------- Iteration      1(  19)  ---------------------------------------


    POTLOK:  cpu time    0.3768: real time    0.3815
    SETDIJ:  cpu time    0.0268: real time    0.0269
    EDDIAG:  cpu time    3.4299: real time    4.1400
  RMM-DIIS:  cpu time    5.9139: real time    6.4098
    ORTHCH:  cpu time    0.3739: real time    0.4587
       DOS:  cpu time    0.0071: real time    0.0132
    --------------------------------------------
      LOOP:  cpu time   10.1284: real time   11.4302

 eigenvalue-minimisations  :  1312
 total energy-change (2. order) : 0.5036604E-04  (-0.3792447E-04)
 number of electron     376.0000058 magnetization 
 augmentation part      112.9267704 magnetization 

 Free energy of the ion-electron system (eV)
  ---------------------------------------------------
  alpha Z        PSCENC =       975.10247152
  Ewald energy   TEWEN  =     92343.48299492
  -Hartree energ DENC   =   -121043.20812478
  -exchange      EXHF   =         0.00000000
  -V(xc)+E(xc)   XCENC  =       179.07836190
  PAW double counting   =     30251.05496068   -29338.18126799
  entropy T*S    EENTRO =        -0.02638268
  eigenvalues    EBANDS =      -857.29815552
  atomic energy  EATOM  =     27259.89416086
  Solvation  Ediel_sol  =         0.00000000
  ---------------------------------------------------
  free energy    TOTEN  =      -230.10098109 eV

  energy without entropy =     -230.07459841  energy(sigma->0) =     -230.09218686


--------------------------------------------------------------------------------------------------------




 average (electrostatic) potential at core
  the test charge radii are     0.6991  0.7215  1.2059
  (the norm of the test charge is              1.0000)
       1 -56.3749       2 -74.8063       3 -76.3234       4 -72.3108       5 -72.2990
       6 -72.2962       7 -72.2912       8 -72.3146       9 -72.2948      10 -72.2893
      11 -72.3163      12 -72.2899      13 -72.8744      14 -72.9926      15 -72.9750
      16 -73.0332      17 -72.9938      18 -72.9657      19 -72.9717      20 -73.0169
      21 -72.9455      22 -72.9516      23 -73.0622      24 -72.9060      25 -73.0171
      26 -72.9854      27 -73.0684      28 -72.9605      29 -72.9390      30 -72.8225
      31 -72.4417      32 -72.4798      33 -72.4951      34 -72.4337      35 -72.5426
      36 -73.2967      37 -72.5500      38 -73.2219      39 -72.1831
 
 
 
 E-fermi :   1.1203     XC(G=0):  -6.6068     alpha+bet : -6.8913


 k-point     1 :       0.0000    0.0000    0.0000
  band No.  band energies     occupation 
      1     -22.1918      2.00000
      2     -17.0728      2.00000
      3      -8.8850      2.00000
      4      -8.1727      2.00000
      5      -6.8223      2.00000
      6      -6.0712      2.00000
      7      -5.9346      2.00000
      8      -5.8148      2.00000
      9      -5.7645      2.00000
     10      -5.7322      2.00000
     11      -5.6862      2.00000
     12      -5.6826      2.00000
     13      -5.6254      2.00000
     14      -5.5821      2.00000
     15      -5.5228      2.00000
     16      -5.3515      2.00000
     17      -5.1277      2.00000
     18      -5.1191      2.00000
     19      -5.1014      2.00000
     20      -5.0846      2.00000
     21      -5.0455      2.00000
     22      -5.0370      2.00000
     23      -4.7361      2.00000
     24      -4.6826      2.00000
     25      -4.6017      2.00000
     26      -4.5662      2.00000
     27      -4.5586      2.00000
     28      -4.5214      2.00000
     29      -4.4519      2.00000
     30      -4.4120      2.00000
     31      -4.3985      2.00000
     32      -4.3882      2.00000
     33      -4.3497      2.00000
     34      -4.2670      2.00000
     35      -4.2030      2.00000
     36      -4.1833      2.00000
     37      -4.1629      2.00000
     38      -4.1439      2.00000
     39      -4.0968      2.00000
     40      -4.0926      2.00000
     41      -4.0848      2.00000
     42      -4.0685      2.00000
     43      -4.0503      2.00000
     44      -4.0257      2.00000
     45      -4.0168      2.00000
     46      -3.9686      2.00000
     47      -3.6647      2.00000
     48      -3.5741      2.00000
     49      -3.5163      2.00000
     50      -3.4764      2.00000
     51      -3.4598      2.00000
     52      -3.4188      2.00000
     53      -3.4133      2.00000
     54      -3.3812      2.00000
     55      -3.3687      2.00000
     56      -3.3104      2.00000
     57      -3.2964      2.00000
     58      -3.2192      2.00000
     59      -3.1812      2.00000
     60      -3.1121      2.00000
     61      -3.0726      2.00000
     62      -3.0256      2.00000
     63      -2.9421      2.00000
     64      -2.6478      2.00000
     65      -2.5969      2.00000
     66      -2.5830      2.00000
     67      -2.5593      2.00000
     68      -2.5039      2.00000
     69      -2.4805      2.00000
     70      -2.4608      2.00000
     71      -2.4553      2.00000
     72      -2.4425      2.00000
     73      -2.4260      2.00000
     74      -2.4176      2.00000
     75      -2.4032      2.00000
     76      -2.3845      2.00000
     77      -2.3695      2.00000
     78      -2.3604      2.00000
     79      -2.3536      2.00000
     80      -2.3334      2.00000
     81      -2.3253      2.00000
     82      -2.3074      2.00000
     83      -2.2952      2.00000
     84      -2.2742      2.00000
     85      -2.2295      2.00000
     86      -2.1586      2.00000
     87      -2.1323      2.00000
     88      -2.1214      2.00000
     89      -2.0962      2.00000
     90      -2.0857      2.00000
     91      -2.0672      2.00000
     92      -2.0493      2.00000
     93      -2.0236      2.00000
     94      -1.9967      2.00000
     95      -1.9748      2.00000
     96      -1.9681      2.00000
     97      -1.9337      2.00000
     98      -1.9048      2.00000
     99      -1.8261      2.00000
    100      -1.8003      2.00000
    101      -1.6876      2.00000
    102      -1.6221      2.00000
    103      -1.6084      2.00000
    104      -1.6071      2.00000
    105      -1.5832      2.00000
    106      -1.5673      2.00000
    107      -1.5285      2.00000
    108      -1.5179      2.00000
    109      -1.5083      2.00000
    110      -1.4797      2.00000
    111      -1.4722      2.00000
    112      -1.4671      2.00000
    113      -1.4661      2.00000
    114      -1.2966      2.00000
    115      -1.2703      2.00000
    116      -1.2239      2.00000
    117      -1.1277      2.00000
    118      -1.1049      2.00000
    119      -1.0381      2.00000
    120      -1.0307      2.00000
    121      -0.9810      2.00000
    122      -0.9503      2.00000
    123      -0.9305      2.00000
    124      -0.8858      2.00000
    125      -0.8355      2.00000
    126      -0.7627      2.00000
    127      -0.7593      2.00000
    128      -0.7330      2.00000
    129      -0.6853      2.00000
    130      -0.6784      2.00000
    131      -0.6531      2.00000
    132      -0.6387      2.00000
    133      -0.5955      2.00000
    134      -0.5687      2.00000
    135      -0.5010      2.00000
    136      -0.4669      2.00000
    137      -0.4250      2.00000
    138      -0.3837      2.00000
    139      -0.3556      2.00000
    140      -0.3486      2.00000
    141      -0.2794      2.00000
    142      -0.2462      2.00000
    143      -0.2256      2.00000
    144      -0.1990      2.00000
    145      -0.1733      2.00000
    146      -0.1370      2.00000
    147      -0.1172      2.00000
    148      -0.0469      2.00000
    149       0.0323      2.00000
    150       0.0446      2.00000
    151       0.0977      2.00000
    152       0.1109      2.00000
    153       0.1159      2.00000
    154       0.1430      2.00000
    155       0.1741      2.00000
    156       0.1852      2.00000
    157       0.2358      2.00000
    158       0.2625      2.00000
    159       0.2765      2.00000
    160       0.3034      2.00000
    161       0.3069      2.00000
    162       0.3185      2.00000
    163       0.3418      2.00000
    164       0.3526      2.00000
    165       0.3699      2.00000
    166       0.3822      2.00000
    167       0.3879      2.00000
    168       0.4163      2.00001
    169       0.4628      2.00003
    170       0.4928      2.00008
    171       0.5328      2.00026
    172       0.5486      2.00040
    173       0.5585      2.00052
    174       0.6217      2.00239
    175       0.6397      2.00353
    176       0.6695      2.00647
    177       0.6777      2.00757
    178       0.6889      2.00931
    179       0.7203      2.01598
    180       0.7415      2.02216
    181       0.7535      2.02630
    182       0.7657      2.03096
    183       0.8148      2.05280
    184       0.8218      2.05597
    185       0.8299      2.05944
    186       0.8435      2.06469
    187       0.8470      2.06585
    188       0.8551      2.06816
    189       0.8628      2.06980
    190       0.8687      2.07059
    191       0.8848      2.07019
    192       0.8989      2.06595
    193       0.9062      2.06197
    194       0.9513      2.00147
    195       0.9569      1.98856
    196       1.1076      1.10768
    197       1.1334      0.88932
    198       1.2176      0.27525
    199       1.2333      0.19264
    200       1.2636      0.06901
    201       1.2660      0.06117
    202       1.2795      0.02195
    203       1.3014     -0.02463
    204       1.4958     -0.02327
    205       1.5564     -0.00855
    206       1.9942     -0.00000
    207       2.0294     -0.00000
    208       2.0999     -0.00000
    209       2.1367     -0.00000
    210       2.2549     -0.00000
    211       2.5547     -0.00000
    212       3.6630     -0.00000
    213       4.0039     -0.00000
    214       4.3879     -0.00000
    215       4.4286     -0.00000
    216       4.5012     -0.00000
    217       4.6196     -0.00000
    218       4.9235     -0.00000
    219       5.4775     -0.00000
    220       5.5921     -0.00000
    221       5.8529     -0.00000
    222       5.8747     -0.00000
    223       5.9215     -0.00000
    224       5.9481     -0.00000
    225       6.0421     -0.00000
    226       6.1205     -0.00000
    227       6.5612     -0.00000
    228       6.8320      0.00000

 k-point     2 :       0.5000    0.0000    0.0000
  band No.  band energies     occupation 
      1     -22.1916      2.00000
      2     -17.0724      2.00000
      3      -8.8742      2.00000
      4      -7.3396      2.00000
      5      -7.2713      2.00000
      6      -6.1513      2.00000
      7      -6.0521      2.00000
      8      -5.9805      2.00000
      9      -5.8849      2.00000
     10      -5.7687      2.00000
     11      -5.6464      2.00000
     12      -5.4791      2.00000
     13      -5.4141      2.00000
     14      -5.2986      2.00000
     15      -5.0493      2.00000
     16      -4.9777      2.00000
     17      -4.9609      2.00000
     18      -4.9428      2.00000
     19      -4.8892      2.00000
     20      -4.8722      2.00000
     21      -4.8498      2.00000
     22      -4.8401      2.00000
     23      -4.8344      2.00000
     24      -4.7818      2.00000
     25      -4.7597      2.00000
     26      -4.7527      2.00000
     27      -4.7273      2.00000
     28      -4.6896      2.00000
     29      -4.6809      2.00000
     30      -4.5353      2.00000
     31      -4.4090      2.00000
     32      -4.3917      2.00000
     33      -4.3458      2.00000
     34      -4.3404      2.00000
     35      -4.3145      2.00000
     36      -4.1806      2.00000
     37      -4.1106      2.00000
     38      -4.0644      2.00000
     39      -4.0230      2.00000
     40      -4.0040      2.00000
     41      -3.9823      2.00000
     42      -3.9317      2.00000
     43      -3.9170      2.00000
     44      -3.8546      2.00000
     45      -3.8009      2.00000
     46      -3.7156      2.00000
     47      -3.6827      2.00000
     48      -3.6666      2.00000
     49      -3.6589      2.00000
     50      -3.6020      2.00000
     51      -3.4901      2.00000
     52      -3.4780      2.00000
     53      -3.4234      2.00000
     54      -3.3936      2.00000
     55      -3.3680      2.00000
     56      -3.3284      2.00000
     57      -3.2734      2.00000
     58      -3.2200      2.00000
     59      -3.1894      2.00000
     60      -3.1486      2.00000
     61      -3.1172      2.00000
     62      -3.1061      2.00000
     63      -3.0619      2.00000
     64      -3.0137      2.00000
     65      -2.9814      2.00000
     66      -2.9686      2.00000
     67      -2.9314      2.00000
     68      -2.8914      2.00000
     69      -2.8635      2.00000
     70      -2.8377      2.00000
[...]
     86      -2.2024      2.00000
     87      -2.1910      2.00000
     88      -2.1786      2.00000
     89      -2.1715      2.00000
     90      -2.1578      2.00000
     91      -2.1321      2.00000
     92      -2.0977      2.00000
     93      -2.0504      2.00000
     94      -2.0052      2.00000
     95      -1.9613      2.00000
     96      -1.9341      2.00000
     97      -1.9141      2.00000
     98      -1.9059      2.00000
     99      -1.8647      2.00000
    100      -1.8433      2.00000
    101      -1.7657      2.00000
    102      -1.7483      2.00000
    103      -1.7387      2.00000
    104      -1.7300      2.00000
    105      -1.6899      2.00000
    106      -1.6629      2.00000
    107      -1.6547      2.00000
    108      -1.6107      2.00000
    109      -1.5933      2.00000
    110      -1.5506      2.00000
    111      -1.5404      2.00000
    112      -1.4685      2.00000
    113      -1.4278      2.00000
    114      -1.3497      2.00000
    115      -1.3106      2.00000
    116      -1.2712      2.00000
    117      -1.2086      2.00000
    118      -1.1938      2.00000
    119      -1.1443      2.00000
    120      -1.0814      2.00000
    121      -1.0648      2.00000
    122      -1.0400      2.00000
    123      -1.0223      2.00000
    124      -0.9831      2.00000
    125      -0.9771      2.00000
    126      -0.9534      2.00000
    127      -0.9460      2.00000
    128      -0.9215      2.00000
    129      -0.8977      2.00000
    130      -0.8889      2.00000
    131      -0.8494      2.00000
    132      -0.7929      2.00000
    133      -0.7641      2.00000
    134      -0.7284      2.00000
    135      -0.6942      2.00000
    136      -0.6766      2.00000
    137      -0.6661      2.00000
    138      -0.6391      2.00000
    139      -0.5905      2.00000
    140      -0.5561      2.00000
    141      -0.4808      2.00000
    142      -0.4669      2.00000
    143      -0.3836      2.00000
    144      -0.2845      2.00000
    145      -0.2682      2.00000
    146      -0.1984      2.00000
    147      -0.1585      2.00000
    148      -0.1254      2.00000
    149      -0.0921      2.00000
    150      -0.0557      2.00000
    151      -0.0345      2.00000
    152       0.0624      2.00000
    153       0.0671      2.00000
    154       0.0901      2.00000
    155       0.1068      2.00000
    156       0.1235      2.00000
    157       0.1480      2.00000
    158       0.1693      2.00000
    159       0.2051      2.00000
    160       0.2209      2.00000
    161       0.2571      2.00000
    162       0.3137      2.00000
    163       0.3349      2.00000
    164       0.3746      2.00000
    165       0.3854      2.00000
    166       0.4211      2.00001
    167       0.5306      2.00023
    168       0.5959      2.00122
    169       0.6074      2.00160
    170       0.6314      2.00276
    171       0.6542      2.00447
    172       0.6970      2.01018
    173       0.7333      2.01868
    174       0.8057      2.04716
    175       0.8109      2.04957
    176       0.8349      2.06021
    177       0.8741      2.07077
    178       0.9032      2.06540
    179       0.9435      2.02272
    180       0.9568      1.99637
    181       0.9716      1.95784
    182       1.0484      1.58864
    183       1.0856      1.31468
    184       1.1137      1.08302
    185       1.1146      1.07518
    186       1.1226      1.00768
    187       1.1487      0.78877
    188       1.1495      0.78241
    189       1.1966      0.42455
    190       1.2048      0.37093
    191       1.3255     -0.05227
    192       1.3542     -0.06919
    193       1.3875     -0.06847
    194       1.4155     -0.05877
    195       1.4399     -0.04782
    196       1.5053     -0.02121
    197       1.5839     -0.00536
    198       1.7547     -0.00008
    199       1.8433     -0.00000
    200       2.0185     -0.00000
    201       2.2545     -0.00000
    202       2.3467     -0.00000
    203       2.8219     -0.00000
    204       2.9392     -0.00000
    205       2.9605     -0.00000
    206       2.9826     -0.00000
    207       3.0205     -0.00000
    208       3.2261     -0.00000
    209       3.3772     -0.00000
    210       3.5353     -0.00000
    211       3.5845     -0.00000
    212       3.6236     -0.00000
    213       3.7345     -0.00000
    214       3.8258     -0.00000
    215       3.9571     -0.00000
    216       4.1922     -0.00000
    217       4.2766     -0.00000
    218       4.4142     -0.00000
    219       4.4462     -0.00000
    220       4.6377     -0.00000
    221       4.6450     -0.00000
    222       4.8184     -0.00000
    223       5.1137     -0.00000
    224       5.5263     -0.00000
    225       5.7849     -0.00000
    226       6.5711     -0.00000
    227       6.5957      0.00000
    228       6.6750      0.00000


--------------------------------------------------------------------------------------------------------


 soft charge-density along one line, spin component           1
         0         1         2         3         4         5         6         7         8         9
 total charge-density along one line
 
 pseudopotential strength for first ion, spin component:           1
 10.099   0.016   0.004   0.010   0.000  -0.003  -0.009  -0.000
  0.016  -0.002  -0.000  -0.000  -0.000  -0.000  -0.000   0.000
  0.004  -0.000  -4.250  -0.006   0.001  -0.010  -0.002   0.000
  0.010  -0.000  -0.006  -4.265   0.002  -0.002  -0.016   0.000
  0.000  -0.000   0.001   0.002  -4.248   0.000   0.000  -0.009
 -0.003  -0.000  -0.010  -0.002   0.000  -0.770  -0.000   0.000
 -0.009  -0.000  -0.002  -0.016   0.000  -0.000  -0.770   0.000
 -0.000   0.000   0.000   0.000  -0.009   0.000   0.000  -0.770
 total augmentation occupancy for first ion, spin component:           1
  1.640  -0.848  -0.005  -0.004  -0.044   0.028   0.082  -0.019
 -0.848   1.174  -0.183  -0.537   0.072  -0.074  -0.225   0.024
 -0.005  -0.183   0.844   0.185   0.014   0.111   0.051  -0.002
 -0.004  -0.537   0.185   1.320  -0.002   0.051   0.248  -0.005
 -0.044   0.072   0.014  -0.002   0.779  -0.002  -0.006   0.095
  0.028  -0.074   0.111   0.051  -0.002   0.018   0.020  -0.002
  0.082  -0.225   0.051   0.248  -0.006   0.020   0.071  -0.004
 -0.019   0.024  -0.002  -0.005   0.095  -0.002  -0.004   0.012


------------------------ aborting loop because EDIFF is reached ----------------------------------------


    CHARGE:  cpu time    0.5349: real time    0.7725
    FORLOC:  cpu time    0.0382: real time    0.0549
    FORNL :  cpu time    2.5771: real time    3.7221
    STRESS:  cpu time    9.2894: real time   10.5790
    FORCOR:  cpu time    0.2824: real time    0.2844
    FORHAR:  cpu time    0.1496: real time    0.1762
    MIXING:  cpu time    0.1068: real time    0.1075
    OFIELD:  cpu time    0.0001: real time    0.0001

  FORCE on cell =-STRESS in cart. coord.  units (eV):
  Direction    XX          YY          ZZ          XY          YZ          ZX
  --------------------------------------------------------------------------------------
  Alpha Z   975.10247   975.10247   975.10247
  Ewald  111909.15350111949.16756************  -192.90382   240.22462   -83.60855
  Hartree118674.51923118673.59269************  -129.56326   100.37170   -50.17944
  E(xc)   -1666.63670 -1666.27540 -1673.68349    -0.44824     0.66738    -0.19014
  Local  ************************241284.65062   311.50011  -316.97506   128.46446
  n-local   126.81159   125.84292    97.13230    -1.50141     1.49245    -0.46475
  augment  1896.44267  1893.99756  1929.90195     3.09133    -4.50039     1.14773
  Kinetic  5528.08993  5518.00595  5594.80939    10.22976   -21.30472     5.33498
  Fock        0.00000     0.00000     0.00000     0.00000     0.00000     0.00000
  -------------------------------------------------------------------------------------
  Total     -32.76917   -35.85386    -0.87412     0.40447    -0.02402     0.50429
  in kB     -39.02863   -42.70255    -1.04109     0.48172    -0.02860     0.60061
  external pressure =      -27.59 kB  Pullay stress =        0.00 kB


 VOLUME and BASIS-vectors are now :
 -----------------------------------------------------------------------------
  energy-cutoff  :      450.00
  volume of cell :     1345.22
      direct lattice vectors                 reciprocal lattice vectors
     7.296955120 -4.212899000  0.000000000     0.137043463  0.000000000  0.000000000
     0.000000000  8.425798000  0.000000000     0.068521732  0.118683121  0.000000000
     0.000000000  0.000000000 21.879635000     0.000000000  0.000000000  0.045704602

  length of vectors
     8.425798004  8.425798000 21.879635000     0.137043463  0.137043463  0.045704602


 FORCES acting on ions
    electron-ion (+dipol)            ewald-force                    non-local-force                 convergence-correction
 -----------------------------------------------------------------------------------------------
   0.152E+02 0.877E+01 -.887E+03   -.163E+02 -.128E+02 0.876E+03   0.374E+00 0.389E+01 0.113E+02   0.312E-01 -.398E-01 -.492E-01
   -.751E+02 0.489E+02 -.160E+04   0.747E+02 -.447E+02 0.163E+04   0.104E+01 -.409E+01 -.241E+02   0.106E-02 -.523E-02 -.421E-01
   0.482E+02 -.957E+02 -.155E+04   -.537E+02 0.115E+03 0.160E+04   0.580E+01 -.190E+02 -.581E+02   0.223E-01 -.122E-01 -.963E-03
   0.245E+00 0.227E+00 0.235E+04   -.261E+00 -.222E+00 -.235E+04   0.211E-01 -.513E-01 -.120E+01   0.104E-01 0.233E-02 -.534E-01
   -.313E-01 0.453E+00 0.235E+04   0.173E-01 -.482E+00 -.235E+04   -.126E-01 -.316E-01 -.113E+01   -.273E-01 0.251E-01 -.662E-01
   0.339E-01 -.311E-01 0.235E+04   -.128E+00 0.525E-01 -.235E+04   0.337E-01 -.240E-01 -.115E+01   0.278E-01 -.872E-02 -.672E-01
   0.330E+00 -.118E+00 0.235E+04   -.308E+00 0.197E+00 -.235E+04   0.303E-02 0.142E-01 -.121E+01   -.861E-02 -.505E-01 -.689E-01
   0.117E-01 0.756E-01 0.235E+04   0.320E-02 -.613E-01 -.235E+04   0.373E-02 0.321E-01 -.128E+01   -.399E-01 -.400E-01 -.630E-01
   -.218E+00 0.275E+00 0.235E+04   0.235E+00 -.270E+00 -.235E+04   0.156E-01 0.124E-01 -.123E+01   -.146E-01 -.187E-01 -.796E-01
   0.812E-01 -.694E+00 0.235E+04   -.152E-01 0.541E+00 -.235E+04   -.682E-01 0.106E+00 -.109E+01   0.635E-02 0.150E-01 -.777E-01
   -.301E+00 -.192E+00 0.235E+04   0.296E+00 0.214E+00 -.235E+04   -.106E-01 -.198E-01 -.129E+01   0.356E-01 0.274E-01 -.759E-01
   -.176E+00 -.404E-01 0.235E+04   0.165E+00 0.280E-01 -.235E+04   0.922E-02 -.307E-02 -.107E+01   0.101E-01 0.482E-01 -.801E-01
   -.259E+01 -.963E+00 0.861E+03   0.247E+01 0.889E+00 -.861E+03   0.175E+00 0.153E-01 -.528E+00   -.223E-02 0.479E-01 -.105E+00
   -.181E+01 -.237E+01 0.867E+03   0.165E+01 0.241E+01 -.867E+03   0.189E+00 0.180E-01 -.427E+00   0.380E-01 0.149E-01 -.100E+00
   0.103E+01 0.831E+00 0.865E+03   -.924E+00 -.980E+00 -.865E+03   -.661E-01 0.572E-02 -.454E+00   0.346E-01 0.617E-01 -.108E+00
   -.120E+01 0.283E+01 0.869E+03   0.117E+01 -.289E+01 -.869E+03   0.890E-01 0.215E-01 -.528E+00   -.426E-01 0.635E-02 -.100E+00
   -.583E+00 0.272E+01 0.867E+03   0.535E+00 -.271E+01 -.866E+03   0.118E+00 -.351E-01 -.450E+00   -.119E-01 -.776E-02 -.109E+00
   0.349E+01 -.104E+01 0.866E+03   -.353E+01 0.104E+01 -.866E+03   -.427E-01 0.668E-01 -.412E+00   0.306E-01 -.408E-01 -.968E-01
   0.185E+01 -.190E+01 0.869E+03   -.179E+01 0.210E+01 -.869E+03   -.100E+00 -.731E-01 -.574E+00   -.224E-01 -.543E-01 -.869E-01
   -.234E+01 -.112E-01 0.870E+03   0.239E+01 0.255E-01 -.869E+03   0.562E-01 -.679E-02 -.607E+00   -.267E-01 -.780E-02 -.985E-01
   0.622E+00 0.131E+01 0.866E+03   -.549E+00 -.111E+01 -.866E+03   -.392E-01 -.131E+00 -.468E+00   0.259E-02 -.202E-01 -.981E-01
   -.492E+00 -.270E+00 -.632E+03   0.387E+00 0.254E+00 0.632E+03   0.125E+00 0.660E-01 0.627E+00   -.263E-01 -.354E-01 0.331E-01
   -.123E+00 -.137E+01 -.629E+03   0.133E+00 0.142E+01 0.628E+03   0.558E-01 -.811E-01 0.507E+00   -.171E-01 0.285E-03 0.361E-01
   0.125E+01 -.138E+01 -.655E+03   -.149E+01 0.168E+01 0.655E+03   0.449E-01 -.178E+00 0.396E+00   0.534E-01 0.243E-01 0.353E-01
   -.135E+01 0.135E+02 -.634E+03   0.909E+00 -.128E+02 0.635E+03   0.304E+00 -.678E+00 -.173E+00   -.721E-02 0.612E-01 -.314E-02
   0.110E+02 0.256E+01 -.642E+03   -.103E+02 -.263E+01 0.642E+03   -.916E+00 0.441E-01 -.494E-01   0.233E-01 -.262E-02 0.337E-01
   -.743E+01 -.924E+01 -.633E+03   0.726E+01 0.914E+01 0.632E+03   0.283E+00 -.169E-01 0.368E+00   -.114E-01 -.180E-01 0.573E-01
   -.345E+01 -.302E+01 -.647E+03   0.342E+01 0.293E+01 0.647E+03   0.106E+00 0.136E+00 0.452E+00   0.134E-01 0.159E-01 0.436E-02
   -.897E+00 -.586E+00 -.637E+03   0.106E+01 0.547E+00 0.637E+03   -.167E+00 0.617E-02 0.490E+00   -.499E-01 0.426E-02 -.149E-01
   0.187E+01 0.124E+01 -.653E+03   -.194E+01 -.135E+01 0.653E+03   0.650E-01 0.113E+00 0.331E+00   0.327E-01 -.473E-01 0.488E-01
   -.267E+02 -.122E+02 -.216E+04   0.273E+02 0.124E+02 0.215E+04   -.326E+00 -.176E+00 0.150E+01   -.931E-01 -.450E-02 0.712E-01
   0.160E+02 0.297E+02 -.214E+04   -.165E+02 -.304E+02 0.214E+04   0.499E+00 0.558E+00 0.164E+01   0.261E-01 0.794E-01 0.801E-01
   0.296E+02 -.282E+01 -.212E+04   -.299E+02 0.288E+01 0.212E+04   0.359E+00 -.153E+00 0.139E+01   -.171E-01 0.189E-01 0.862E-01
   -.628E+01 -.152E+00 -.218E+04   0.610E+01 -.195E+00 0.218E+04   0.760E-01 0.365E+00 0.111E+01   0.154E-01 0.257E-02 0.858E-01
   0.166E+02 0.150E+02 -.217E+04   -.166E+02 -.153E+02 0.217E+04   -.181E-01 0.242E+00 0.112E+01   0.249E-02 -.990E-02 0.645E-01
   0.736E+02 0.700E+02 -.201E+04   -.767E+02 -.682E+02 0.201E+04   0.279E+01 -.159E+01 -.316E+01   0.114E+00 -.234E-01 0.128E+00
   -.567E+02 -.508E+02 -.208E+04   0.581E+02 0.532E+02 0.208E+04   -.137E+01 -.224E+01 0.245E+01   -.325E-01 -.917E-01 0.949E-01
   -.589E+02 0.900E+02 -.204E+04   0.594E+02 -.907E+02 0.205E+04   -.528E+00 0.636E+00 -.972E+00   -.473E-01 0.105E+00 0.123E+00
   0.170E+02 -.801E+02 -.215E+04   -.168E+02 0.813E+02 0.215E+04   -.286E+00 -.969E+00 0.934E+00   0.260E-01 -.709E-01 0.135E+00
 -----------------------------------------------------------------------------------------------
   -.865E+01 0.233E+02 0.776E+02   -.675E-13 0.341E-12 0.136E-11   0.868E+01 -.232E+02 -.771E+02   0.588E-01 -.489E-01 -.529E+00
 
 
 POSITION                                       TOTAL-FORCE (eV/Angst)
 -----------------------------------------------------------------------------------
      5.04157      0.72893     10.36985        -0.666366     -0.219766      0.357675
      6.64460     -0.57550     10.12956         0.610224      0.088190     -0.193748
      4.94005      1.09183     11.47300         0.309946     -0.107897     -0.425957
      7.20031     -1.38846      1.62732         0.012749     -0.046506      0.117138
      2.33567      1.42014      1.62732        -0.056224     -0.038698      0.144683
      4.76799      0.01584      1.62732        -0.035015     -0.014442      0.163500
      7.20031      1.42015      1.62732         0.014164      0.038805      0.126156
      2.33567      4.22875      1.62732        -0.023704      0.003202      0.144215
      4.76799      2.82445      1.62732         0.015158     -0.003927      0.164943
      2.33567      7.03734      1.62732         0.001772     -0.035142      0.066484
      4.76799      5.63304      1.62732         0.017945      0.026685      0.119489
      7.20031      4.22874      1.62732         0.006643      0.029551      0.039236
      1.52490      0.01584      3.92052         0.049821     -0.014076     -0.197602
      3.95722     -1.38846      3.92052         0.063942      0.066766     -0.217751
      6.38953     -2.79276      3.92052         0.074885     -0.084116     -0.284424
      1.52490      2.82445      3.92052         0.013937     -0.039247     -0.321752
      3.95722      1.42015      3.92052         0.056193     -0.030513     -0.133410
      6.38953      0.01585      3.92052        -0.050576      0.025757     -0.108585
      1.52490      5.63305      3.92052        -0.073215      0.065647     -0.334439
      3.95722      4.22874      3.92052         0.075790     -0.003395     -0.284449
      6.38953      2.82445      3.92052         0.034121      0.044958     -0.304307
      0.71623      4.20731      6.16218        -0.007938      0.011302      0.148565
      3.14453      5.63013      6.14929         0.046323     -0.030573      0.034969
      5.59712     -1.39716      6.19209        -0.142036      0.147354      0.242920
      0.71401      1.43369      6.17102        -0.145505      0.037168      0.249846
      3.20259     -0.00045      6.19035        -0.160771     -0.031896     -0.040146
      0.70774      7.03761      6.16663         0.095221     -0.132921     -0.002572
      5.57701      4.20428      6.17681         0.082400      0.058082      0.054140
      3.17596      2.81523      6.16460        -0.051441     -0.031170      0.145820
      5.58618      1.40733      6.20383         0.028986     -0.047153     -0.004324
      2.36299      4.20753      8.40950         0.152232      0.041169      0.137349
      4.75533      5.60316      8.40280         0.053802     -0.047811      0.212151
      2.33974      1.40022      8.39750         0.004561     -0.081457      0.189060
      7.22005      4.18710      8.46134        -0.085866      0.017379      0.058434
      2.34292      7.01126      8.43465        -0.050167     -0.071567      0.139459
      4.68683      0.03421      8.63814        -0.204444      0.172497     -0.119993
      7.26788      1.41895      8.42905        -0.003466      0.046652      0.118390
      7.27031     -1.49894      8.54750        -0.034376     -0.023899      0.284646
      4.80513      2.82386      8.54901        -0.029706      0.215006     -0.485811
 -----------------------------------------------------------------------------------
    total drift:                                0.093544      0.122001      0.009691
  FORCES: max atom, RMS     0.787574    0.241702
  Number: max atom                 1
  FORCE total and by dimension    1.509430    0.666366


--------------------------------------------------------------------------------------------------------



  FREE ENERGIE OF THE ION-ELECTRON SYSTEM (eV)
  ---------------------------------------------------
  free  energy   TOTEN  =      -230.57341350 eV

  energy  without entropy=     -230.54171006  energy(sigma->0) =     -230.56284569
 
 d Force = 0.8815215E-01[ 0.356E-01, 0.141E+00]  d Energy = 0.8702264E-01 0.113E-02
 d Force = 0.5051779E+02[ 0.503E+02, 0.508E+02]  d Ewald  = 0.5051822E+02-0.429E-03


--------------------------------------------------------------------------------------------------------


    POTLOK:  cpu time    0.4998: real time    0.6348


--------------------------------------------------------------------------------------------------------


 stress matrix after NEB project (eV)
    -32.76917      0.40447      0.50429
      0.40447    -35.85386     -0.02402
      0.50429     -0.02402     -0.87412
  FORCES: max atom, RMS     0.787574    0.241702
  FORCE total and by dimension    1.509430    0.666366
  Stress total and by dimension   48.589293   35.853865
 Quasi-Newton relaxation of ions (Broydens 2nd method)
  g(Force)  = 0.440E-01   g(Stress)= 0.000E+00

 retain information from N=  2 steps
 eigenvalues of (default step * inverse Hessian matrix)
  average eigenvalue of G=   1.3540
 eigenvalue spectrum of G is  1.3540  1.3540
  RESET_HESSIAN           0


--------------------------------------------------------------------------------------------------------


    WAVPRE:  cpu time    0.0743: real time    0.3296
    FEWALD:  cpu time    0.0143: real time    0.0314

 real space projection operators:
  total allocation   :      13548.48 KBytes
  max/ min on nodes  :       6782.02       6766.47

    ORTHCH:  cpu time    1.6139: real time    1.8229
     LOOP+:  cpu time  139.5311: real time  165.1116


--------------------------------------- Iteration      5(   1)  ---------------------------------------


