 running on    8 total cores
 distrk:  each k-point on    8 cores,    1 groups
 distr:  one band on    2 cores,    4 groups
 using from now: INCAR     
 vasp.5.4.4 16052018 (build Apr 24 2014 20:13:14) complex standard
 Contain Constrained Minimization Technique (TS), Periodic NBO, VASPsol, libbeef, VASP2WANNIER90, Constrained Cell Relaxation
 POSCAR found type information on POSCAR  C  O  Pt
 POSCAR found :  3 types and      39 ions
 scaLAPACK will be used
 LDA part: xc-table for Pade appr. of Perdew
 POSCAR found type information on POSCAR  C  O  Pt
 POSCAR found :  3 types and      39 ions
 POSCAR, INCAR and KPOINTS ok, starting setup
 FFT: planning ...
 WAVECAR not read
 entering main loop
       N       E                     dE             d eps       ncg     rms          rms(c)
DAV:   1     0.242679000603E+04    0.24268E+04   -0.15958E+05  1824   0.129E+03
DAV:   2    -0.638392995582E+02   -0.24906E+04   -0.23137E+04  2128   0.286E+02
DAV:   3    -0.240624604389E+03   -0.17679E+03   -0.16058E+03  2152   0.692E+01
DAV:   4    -0.248153620269E+03   -0.75290E+01   -0.72594E+01  2352   0.137E+01
DAV:   5    -0.248373999791E+03   -0.22038E+00   -0.21862E+00  2416   0.239E+00    0.275E+01
RMM:   6    -0.246218242036E+03    0.21558E+01   -0.55363E+01  1829   0.149E+01    0.297E+01
RMM:   7    -0.245248902182E+03    0.96934E+00   -0.32707E+01  1830   0.902E+00    0.217E+01
RMM:   8    -0.243626227174E+03    0.16227E+01   -0.10299E+01  1825   0.485E+00    0.226E+01
RMM:   9    -0.231790557308E+03    0.11836E+02   -0.59725E+00  1831   0.404E+00    0.884E+00
RMM:  10    -0.230598343701E+03    0.11922E+01   -0.18458E+00  1830   0.222E+00    0.508E+00
RMM:  11    -0.230317764977E+03    0.28058E+00   -0.47990E-01  1831   0.109E+00    0.336E+00
RMM:  12    -0.230153470434E+03    0.16429E+00   -0.20871E-01  1842   0.730E-01    0.195E+00
RMM:  13    -0.230170015342E+03   -0.16545E-01   -0.13141E-01  1832   0.597E-01    0.203E+00
RMM:  14    -0.230111806292E+03    0.58209E-01   -0.77315E-02  1832   0.484E-01    0.893E-01
RMM:  15    -0.230107741026E+03    0.40653E-02   -0.30391E-02  1831   0.301E-01    0.636E-01
RMM:  16    -0.230101631118E+03    0.61099E-02   -0.76352E-03  1831   0.151E-01    0.270E-01
RMM:  17    -0.230100736857E+03    0.89426E-03   -0.16977E-03  1820   0.704E-02    0.129E-01
RMM:  18    -0.230101031457E+03   -0.29460E-03   -0.78006E-04  1740   0.469E-02    0.119E-01
RMM:  19    -0.230100981091E+03    0.50366E-04   -0.37924E-04  1312   0.346E-02
   1 F= -.23010098E+03 E0= -.23009219E+03  d E =-.230101E+03
 BRION: g(F)=  0.260E+00 g(S)=  0.000E+00
 bond charge predicted
       N       E                     dE             d eps       ncg     rms          rms(c)
DAV:   1    -0.230287817998E+03   -0.18679E+00   -0.26300E+01  1844   0.923E+00    0.551E-01
RMM:   2    -0.230364989330E+03   -0.77171E-01   -0.40879E-01  1832   0.141E+00    0.173E+00
RMM:   3    -0.230329812865E+03    0.35176E-01   -0.31929E-02  1861   0.314E-01    0.697E-01
RMM:   4    -0.230322962994E+03    0.68499E-02   -0.84997E-03  1835   0.157E-01    0.380E-01
RMM:   5    -0.230320972516E+03    0.19905E-02   -0.21192E-03  1830   0.761E-02    0.273E-01
RMM:   6    -0.230320642698E+03    0.32982E-03   -0.27632E-03  1825   0.866E-02    0.225E-01
RMM:   7    -0.230320534892E+03    0.10781E-03   -0.35759E-03  1830   0.101E-01    0.179E-01
RMM:   8    -0.230320140757E+03    0.39414E-03   -0.82874E-04  1789   0.496E-02    0.651E-02
RMM:   9    -0.230320119123E+03    0.21634E-04   -0.14525E-04   992   0.221E-02
   2 F= -.23032012E+03 E0= -.23031084E+03  d E =-.219138E+00
 BRION: g(F)=  0.138E+00 g(S)=  0.000E+00 retain N=  1 mean eig= 2.34
 eig:   2.341
 bond charge predicted
       N       E                     dE             d eps       ncg     rms          rms(c)
DAV:   1    -0.230413716912E+03   -0.93576E-01   -0.50093E+01  1824   0.131E+01    0.800E-01
RMM:   2    -0.230516481362E+03   -0.10276E+00   -0.91751E-01  1836   0.202E+00    0.129E+00
RMM:   3    -0.230512993365E+03    0.34880E-02   -0.56144E-02  1874   0.422E-01    0.121E+00
RMM:   4    -0.230493861318E+03    0.19132E-01   -0.12862E-02  1846   0.192E-01    0.585E-01
RMM:   5    -0.230489401393E+03    0.44599E-02   -0.48495E-03  1835   0.117E-01    0.409E-01
RMM:   6    -0.230489783171E+03   -0.38178E-03   -0.90276E-03  1830   0.157E-01    0.467E-01
RMM:   7    -0.230487312082E+03    0.24711E-02   -0.70004E-03  1831   0.142E-01    0.243E-01
RMM:   8    -0.230486641085E+03    0.67100E-03   -0.17116E-03  1821   0.708E-02    0.120E-01
RMM:   9    -0.230486468580E+03    0.17251E-03   -0.37620E-04  1277   0.343E-02    0.721E-02
RMM:  10    -0.230486390863E+03    0.77717E-04   -0.14750E-04   974   0.232E-02
   3 F= -.23048639E+03 E0= -.23047633E+03  d E =-.166272E+00
 BRION: g(F)=  0.333E+00 g(S)=  0.000E+00 retain N=  2 mean eig= 1.55
 eig:   1.547  1.547
 bond charge predicted
       N       E                     dE             d eps       ncg     rms          rms(c)
DAV:   1    -0.230558601141E+03   -0.72133E-01   -0.10151E+01  1840   0.593E+00    0.514E-01
RMM:   2    -0.230580506981E+03   -0.21906E-01   -0.23395E-01  1836   0.952E-01    0.523E-01
RMM:   3    -0.230578553177E+03    0.19538E-02   -0.14551E-02  1844   0.213E-01    0.521E-01
RMM:   4    -0.230577907953E+03    0.64522E-03   -0.31570E-03  1861   0.925E-02    0.496E-01
RMM:   5    -0.230574850190E+03    0.30578E-02   -0.38827E-03  1832   0.103E-01    0.276E-01
RMM:   6    -0.230574368601E+03    0.48159E-03   -0.36232E-03  1829   0.101E-01    0.225E-01
RMM:   7    -0.230573576803E+03    0.79180E-03   -0.13521E-03  1818   0.620E-02    0.104E-01
RMM:   8    -0.230573452231E+03    0.12457E-03   -0.29275E-04  1124   0.309E-02    0.634E-02
RMM:   9    -0.230573413500E+03    0.38732E-04   -0.77143E-05   975   0.168E-02
   4 F= -.23057341E+03 E0= -.23056285E+03  d E =-.870226E-01
 BRION: g(F)=  0.440E-01 g(S)=  0.000E+00 retain N=  2 mean eig= 1.35
 eig:   1.354  1.354
 bond charge predicted
       N       E                     dE             d eps       ncg     rms          rms(c)
[mpiexec@node07] Sending Ctrl-C to processes as requested
[mpiexec@node07] Press Ctrl-C again to force abort
