metal                                   
           1
     7.296955   -4.212899    0.000000
     0.000000    8.425798    0.000000
     0.000000    0.000000   21.879635
   C    O    Pt
   1   2  36
Direct configuration=     1
   0.70020880  0.43902387  0.47457048
   0.90526622  0.38320473  0.46230206
   0.67207226  0.46587976  0.52445901
   0.98675500  0.32859100  0.07437600
   0.32008800  0.32859100  0.07437600
   0.65342200  0.32859100  0.07437600
   0.98675500  0.66192500  0.07437600
   0.32008800  0.66192500  0.07437600
   0.65342200  0.66192500  0.07437600
   0.32008800  0.99525800  0.07437600
   0.65342200  0.99525800  0.07437600
   0.98675500  0.99525800  0.07437600
   0.20897700  0.10636900  0.17918600
   0.54231100  0.10636900  0.17918600
   0.87564400  0.10636900  0.17918600
   0.20897700  0.43970300  0.17918600
   0.54231100  0.43970300  0.17918600
   0.87564400  0.43970300  0.17918600
   0.20897700  0.77303600  0.17918600
   0.54231100  0.77303600  0.17918600
   0.87564400  0.77303600  0.17918600
   0.10007906  0.54784911  0.28149241
   0.43270772  0.88650287  0.28365670
   0.76768094  0.21343264  0.28215325
   0.10048662  0.21861247  0.27980258
   0.43837947  0.21734529  0.28336185
   0.09464392  0.88754444  0.28450693
   0.76406567  0.88129722  0.28121214
   0.43434310  0.55252839  0.27988898
   0.76604068  0.55193608  0.28332628
   0.31984000  0.66180587  0.38325190
   0.64749293  0.99194848  0.38212791
   0.31861174  0.32590948  0.38345323
   0.99367907  0.99031369  0.38585967
   0.32096994  0.99103055  0.38334580
   0.64674940  0.32450716  0.39564919
   0.99799354  0.66696734  0.38449303
   0.99539970  0.32282097  0.39074804
   0.65927199  0.66171510  0.39335000
Direct configuration=     2
   0.69757691  0.43715549  0.47425096
   0.90648721  0.38422972  0.46272028
   0.67346990  0.46652290  0.52455020
   0.98675500  0.32859100  0.07437600
   0.32008800  0.32859100  0.07437600
   0.65342200  0.32859100  0.07437600
   0.98675500  0.66192500  0.07437600
   0.32008800  0.66192500  0.07437600
   0.65342200  0.66192500  0.07437600
   0.32008800  0.99525800  0.07437600
   0.65342200  0.99525800  0.07437600
   0.98675500  0.99525800  0.07437600
   0.20897700  0.10636900  0.17918600
   0.54231100  0.10636900  0.17918600
   0.87564400  0.10636900  0.17918600
   0.20897700  0.43970300  0.17918600
   0.54231100  0.43970300  0.17918600
   0.87564400  0.43970300  0.17918600
   0.20897700  0.77303600  0.17918600
   0.54231100  0.77303600  0.17918600
   0.87564400  0.77303600  0.17918600
   0.09935505  0.54801031  0.28147624
   0.43194796  0.88536409  0.28260360
   0.76770458  0.21499458  0.28235757
   0.09971952  0.21889243  0.28052927
   0.43881096  0.21833113  0.28321389
   0.09534589  0.88619665  0.28348571
   0.76404063  0.88111045  0.28157378
   0.43472920  0.55229879  0.28051292
   0.76577536  0.55114189  0.28340901
   0.32110241  0.66140694  0.38362132
   0.64904179  0.99160572  0.38279100
   0.31927755  0.32620512  0.38349949
   0.99224031  0.99089203  0.38618986
   0.32106385  0.99181149  0.38413451
   0.64533891  0.32472046  0.39537728
   0.99721074  0.66666058  0.38472744
   0.99595793  0.32185644  0.39051542
   0.65903511  0.66244245  0.39258773
Direct configuration=     3
   0.69290245  0.43413945  0.47466110
   0.90916851  0.38607357  0.46294593
   0.67609676  0.46718337  0.52383171
   0.98675500  0.32859100  0.07437600
   0.32008800  0.32859100  0.07437600
   0.65342200  0.32859100  0.07437600
   0.98675500  0.66192500  0.07437600
   0.32008800  0.66192500  0.07437600
   0.65342200  0.66192500  0.07437600
   0.32008800  0.99525800  0.07437600
   0.65342200  0.99525800  0.07437600
   0.98675500  0.99525800  0.07437600
   0.20897700  0.10636900  0.17918600
   0.54231100  0.10636900  0.17918600
   0.87564400  0.10636900  0.17918600
   0.20897700  0.43970300  0.17918600
   0.54231100  0.43970300  0.17918600
   0.87564400  0.43970300  0.17918600
   0.20897700  0.77303600  0.17918600
   0.54231100  0.77303600  0.17918600
   0.87564400  0.77303600  0.17918600
   0.09847894  0.54829641  0.28156901
   0.43118255  0.88412136  0.28145888
   0.76730642  0.21694734  0.28278972
   0.09843232  0.21905068  0.28158916
   0.43895164  0.21916472  0.28301051
   0.09649690  0.88444077  0.28228658
   0.76418219  0.88107760  0.28209922
   0.43512804  0.55191618  0.28139117
   0.76559465  0.55017497  0.28350775
   0.32301351  0.66125458  0.38413349
   0.65095103  0.99106438  0.38367478
   0.32026336  0.32645440  0.38368957
   0.99026250  0.99147845  0.38657189
   0.32110412  0.99248043  0.38511295
   0.64318196  0.32498987  0.39494096
   0.99633625  0.66645723  0.38508799
   0.99626485  0.32071897  0.39056679
   0.65867003  0.66377600  0.39131856
Direct configuration=     4
   0.69091417  0.43196852  0.47394983
   0.91059922  0.38699716  0.46296761
   0.67700214  0.46808303  0.52436868
   0.98675500  0.32859100  0.07437600
   0.32008800  0.32859100  0.07437600
   0.65342200  0.32859100  0.07437600
   0.98675500  0.66192500  0.07437600
   0.32008800  0.66192500  0.07437600
   0.65342200  0.66192500  0.07437600
   0.32008800  0.99525800  0.07437600
   0.65342200  0.99525800  0.07437600
   0.98675500  0.99525800  0.07437600
   0.20897700  0.10636900  0.17918600
   0.54231100  0.10636900  0.17918600
   0.87564400  0.10636900  0.17918600
   0.20897700  0.43970300  0.17918600
   0.54231100  0.43970300  0.17918600
   0.87564400  0.43970300  0.17918600
   0.20897700  0.77303600  0.17918600
   0.54231100  0.77303600  0.17918600
   0.87564400  0.77303600  0.17918600
   0.09815400  0.54841336  0.28163984
   0.43093709  0.88366975  0.28105073
   0.76704923  0.21770531  0.28300699
   0.09785093  0.21907976  0.28204387
   0.43889437  0.21939404  0.28292766
   0.09699154  0.88374123  0.28184341
   0.76429260  0.88112371  0.28230844
   0.43524413  0.55174243  0.28175038
   0.76554968  0.54980121  0.28354358
   0.32383268  0.66127903  0.38435307
   0.65168734  0.99084416  0.38404667
   0.32064591  0.32650525  0.38380425
   0.98946123  0.99166892  0.38672235
   0.32108125  0.99265826  0.38550251
   0.64229894  0.32520997  0.39480286
   0.99601533  0.66641283  0.38524655
   0.99634822  0.32027542  0.39065987
   0.65851108  0.66439992  0.39072913
