   39   39 5000    1
  0.3449278E+02  0.8425798E-09  0.8425798E-09  0.2187964E-08  0.2000000E-15
  1.000000000000000E-004
  CAR 
 metal                                   
    376      4    228
