 vasp.5.4.4 16052018 (build Apr 24 2014 20:13:14) complex standard
 Contain Constrained Minimization Technique (TS), Periodic NBO, VASPsol, libbeef, VASP2WANNIER90, Constrained Cell Relaxation
 executed on Center for Computational Chemistry by phu@node06 date 2025.09.27 23:44:29
 running on    8 total cores
 distrk:  each k-point on    8 cores,    1 groups
 distr:  one band on NCORES_PER_BAND=   2 cores,    4 groups


--------------------------------------------------------------------------------------------------------


 INCAR:
 POTCAR:   PAW_PBE C 08Apr2002                    
 POTCAR:   PAW_PBE O 08Apr2002                    
 POTCAR:    PAW_PBE Pt 04Feb2005                  
 POTCAR:   PAW_PBE C 08Apr2002                    
   VRHFIN =C: s2p2                                                              
   LEXCH  = PE                                                                  
   EATOM  =   147.1560 eV,   10.8157 Ry                                         
                                                                                
   TITEL  = PAW_PBE C 08Apr2002                                                 
   LULTRA =        F    use ultrasoft PP ?                                      
   IUNSCR =        0    unscreen: 0-lin 1-nonlin 2-no                           
   RPACOR =     .000    partial core radius                                     
   POMASS =   12.011; ZVAL   =    4.000    mass and valenz                      
   RCORE  =    1.500    outmost cutoff radius                                   
   RWIGS  =    1.630; RWIGS  =     .863    wigner-seitz radius (au A)           
   ENMAX  =  400.000; ENMIN  =  300.000 eV                                      
   ICORE  =        2    local potential                                         
   LCOR   =        T    correct aug charges                                     
   LPAW   =        T    paw PP                                                  
   EAUG   =  644.873                                                            
   DEXC   =     .000                                                            
   RMAX   =    2.266    core radius for proj-oper                               
   RAUG   =    1.300    factor for augmentation sphere                          
   RDEP   =    1.501    radius for radial grids                                 
   RDEPT  =    1.300    core radius for aug-charge                              
   QCUT   =   -5.516; QGAM   =   11.032    optimization parameters              
                                                                                
   Description                                                                  
     l     E      TYP  RCUT    TYP  RCUT                                        
     0   .000     23  1.200                                                     
     0   .000     23  1.200                                                     
     1   .000     23  1.500                                                     
     1  2.500     23  1.500                                                     
     2   .000      7  1.500                                                     
  local pseudopotential read in
  atomic valenz-charges read in
  non local Contribution for L=           0  read in
    real space projection operators read in
  non local Contribution for L=           0  read in
    real space projection operators read in
  non local Contribution for L=           1  read in
    real space projection operators read in
  non local Contribution for L=           1  read in
    real space projection operators read in
    PAW grid and wavefunctions read in
 
   number of l-projection  operators is LMAX  =           4
   number of lm-projection operators is LMMAX =           8
 
 POTCAR:   PAW_PBE O 08Apr2002                    
   VRHFIN =O: s2p4                                                              
   LEXCH  = PE                                                                  
   EATOM  =   432.3788 eV,   31.7789 Ry                                         
                                                                                
   TITEL  = PAW_PBE O 08Apr2002                                                 
   LULTRA =        F    use ultrasoft PP ?                                      
   IUNSCR =        0    unscreen: 0-lin 1-nonlin 2-no                           
   RPACOR =     .000    partial core radius                                     
   POMASS =   16.000; ZVAL   =    6.000    mass and valenz                      
   RCORE  =    1.520    outmost cutoff radius                                   
   RWIGS  =    1.550; RWIGS  =     .820    wigner-seitz radius (au A)           
   ENMAX  =  400.000; ENMIN  =  300.000 eV                                      
   ICORE  =        2    local potential                                         
   LCOR   =        T    correct aug charges                                     
   LPAW   =        T    paw PP                                                  
   EAUG   =  605.392                                                            
   DEXC   =     .000                                                            
   RMAX   =    2.264    core radius for proj-oper                               
   RAUG   =    1.300    factor for augmentation sphere                          
   RDEP   =    1.550    radius for radial grids                                 
   QCUT   =   -5.520; QGAM   =   11.041    optimization parameters              
                                                                                
   Description                                                                  
     l     E      TYP  RCUT    TYP  RCUT                                        
     0   .000     23  1.200                                                     
     0  -.700     23  1.200                                                     
     1   .000     23  1.520                                                     
     1   .600     23  1.520                                                     
     2   .000      7  1.500                                                     
  local pseudopotential read in
  atomic valenz-charges read in
  non local Contribution for L=           0  read in
    real space projection operators read in
  non local Contribution for L=           0  read in
    real space projection operators read in
  non local Contribution for L=           1  read in
    real space projection operators read in
  non local Contribution for L=           1  read in
    real space projection operators read in
    PAW grid and wavefunctions read in
 
   number of l-projection  operators is LMAX  =           4
   number of lm-projection operators is LMMAX =           8
 
 POTCAR:    PAW_PBE Pt 04Feb2005                  
   VRHFIN =Pt: s1d9                                                             
   LEXCH  = PE                                                                  
   EATOM  =   729.1182 eV,   53.5887 Ry                                         
                                                                                
   TITEL  = PAW_PBE Pt 04Feb2005                                                
   LULTRA =        F    use ultrasoft PP ?                                      
   IUNSCR =        1    unscreen: 0-lin 1-nonlin 2-no                           
   RPACOR =    2.330    partial core radius                                     
   POMASS =  195.080; ZVAL   =   10.000    mass and valenz                      
   RCORE  =    2.600    outmost cutoff radius                                   
   RWIGS  =    2.750; RWIGS  =    1.455    wigner-seitz radius (au A)           
   ENMAX  =  230.283; ENMIN  =  172.712 eV                                      
   ICORE  =        3    local potential                                         
   LCOR   =        T    correct aug charges                                     
   LPAW   =        T    paw PP                                                  
   EAUG   =  358.966                                                            
   DEXC   =     .000                                                            
   RMAX   =    3.038    core radius for proj-oper                               
   RAUG   =    1.300    factor for augmentation sphere                          
   RDEP   =    2.761    radius for radial grids                                 
   QCUT   =   -4.114; QGAM   =    8.228    optimization parameters              
                                                                                
   Description                                                                  
     l     E      TYP  RCUT    TYP  RCUT                                        
     2   .000     23  2.500                                                     
     2   .000     23  2.500                                                     
     0   .000     23  2.500                                                     
     0   .000     23  2.500                                                     
     1  -.200     23  2.600                                                     
     1  1.500     23  2.600                                                     
     3   .000     23  2.500                                                     
  local pseudopotential read in
  partial core-charges read in
  atomic valenz-charges read in
  non local Contribution for L=           2  read in
    real space projection operators read in
  non local Contribution for L=           2  read in
    real space projection operators read in
  non local Contribution for L=           0  read in
    real space projection operators read in
  non local Contribution for L=           0  read in
    real space projection operators read in
  non local Contribution for L=           1  read in
    real space projection operators read in
  non local Contribution for L=           1  read in
    real space projection operators read in
    PAW grid and wavefunctions read in
 
   number of l-projection  operators is LMAX  =           6
   number of lm-projection operators is LMMAX =          18
 
 Optimization of the real space projectors (new method)

 maximal supplied QI-value         = 25.13
 optimisation between [QCUT,QGAM] = [ 10.81, 21.61] = [ 32.71,130.83] Ry 
 Optimized for a Real-space Cutoff    1.23 Angstroem

   l    n(q)    QCUT    max X(q) W(low)/X(q) W(high)/X(q)  e(spline) 
   0      8    10.807     5.582    0.53E-04    0.84E-04    0.44E-07
   0      8    10.807    69.432    0.35E-03    0.71E-03    0.24E-06
   1      7    10.807     2.780    0.44E-04    0.88E-04    0.89E-07
   1      7    10.807     4.549    0.14E-03    0.28E-03    0.13E-06
 Optimization of the real space projectors (new method)

 maximal supplied QI-value         = 24.76
 optimisation between [QCUT,QGAM] = [ 10.64, 21.54] = [ 31.73,129.89] Ry 
 Optimized for a Real-space Cutoff    1.23 Angstroem

   l    n(q)    QCUT    max X(q) W(low)/X(q) W(high)/X(q)  e(spline) 
   0      8    10.645     4.192    0.69E-04    0.93E-04    0.58E-07
   0      8    10.645     8.473    0.40E-03    0.65E-03    0.17E-06
   1      7    10.645     2.474    0.80E-04    0.12E-03    0.30E-07
   1      7    10.645     3.912    0.24E-03    0.53E-03    0.16E-06
 Optimization of the real space projectors (new method)

 maximal supplied QI-value         = 14.36
 optimisation between [QCUT,QGAM] = [ 10.77, 21.69] = [ 32.49,131.70] Ry 
 Optimized for a Real-space Cutoff    1.46 Angstroem

   l    n(q)    QCUT    max X(q) W(low)/X(q) W(high)/X(q)  e(spline) 
   2      9    10.771     3.903    0.38E-04    0.12E-03    0.82E-07
   2      9    10.771    18.372    0.13E-03    0.32E-03    0.28E-06
   0     10    10.771    13.697    0.11E-04    0.86E-05    0.85E-08
   0     10    10.771    65.529    0.40E-04    0.12E-03    0.14E-06
   1      9    10.771     7.604    0.48E-04    0.31E-04    0.38E-07
   1      9    10.771    12.136    0.35E-03    0.16E-03    0.23E-06
 PAW_PBE C 08Apr2002                    :
 energy of atom  1       EATOM= -147.1560
 kinetic energy error for atom=    0.0116 (will be added to EATOM!!)
 PAW_PBE O 08Apr2002                    :
 energy of atom  2       EATOM= -432.3788
 kinetic energy error for atom=    0.0389 (will be added to EATOM!!)
  PAW_PBE Pt 04Feb2005                  :
 energy of atom  3       EATOM= -729.1182
 kinetic energy error for atom=    0.0051 (will be added to EATOM!!)
 
 
 POSCAR: C    O    Pt                            
  positions in direct lattice
  No initial velocities read in
 exchange correlation table for  LEXCH =        8
   RHO(1)=    0.500       N(1)  =     2000
   RHO(2)=  100.500       N(2)  =     4000

 VTST: version 3.2, (02/03/18)

 CHAIN: initializing optimizer
 
 OPT: Using VASP QUASI-newton optimizer
 CHAIN: Read ICHAIN            0
 
 POSCAR: C    O    Pt                            
  positions in direct lattice
  No initial velocities read in
 


--------------------------------------------------------------------------------------------------------


 ion  position               nearest neighbor table
   1  0.699  0.431  0.478-   3 1.16   2 1.93  36 2.03
   2  0.902  0.388  0.467-   1 1.93  38 1.99  36 2.54
   3  0.671  0.458  0.528-   1 1.16
   4  0.987  0.329  0.074-  15 2.81  16 2.81  12 2.81   5 2.81  11 2.81   6 2.81  18 2.81   8 2.81
                             7 2.81
   5  0.320  0.329  0.074-  13 2.81  10 2.81   4 2.81  12 2.81  16 2.81  17 2.81   8 2.81   9 2.81
                             6 2.81
   6  0.653  0.329  0.074-  14 2.81  18 2.81  11 2.81   4 2.81  17 2.81   7 2.81  10 2.81   9 2.81
                             5 2.81
   7  0.987  0.662  0.074-  18 2.81  21 2.81  19 2.81  12 2.81   8 2.81  10 2.81   9 2.81   6 2.81
                             4 2.81
   8  0.320  0.662  0.074-  16 2.81  19 2.81  10 2.81   7 2.81  20 2.81   4 2.81  11 2.81   5 2.81
                             9 2.81
   9  0.653  0.662  0.074-  17 2.81  20 2.81  21 2.81  11 2.81  12 2.81   7 2.81   6 2.81   5 2.81
                             8 2.81
  10  0.320  0.995  0.074-  13 2.81  19 2.81   5 2.81   8 2.81  12 2.81   7 2.81  14 2.81   6 2.81
                            11 2.81
  11  0.653  0.995  0.074-  14 2.81  20 2.81  15 2.81   9 2.81   6 2.81  12 2.81   4 2.81   8 2.81
                            10 2.81
  12  0.987  0.995  0.074-  15 2.81  21 2.81  13 2.81   7 2.81   4 2.81  10 2.81   5 2.81  11 2.81
                             9 2.81
  13  0.209  0.106  0.179-  26 2.74  27 2.81   5 2.81  10 2.81  12 2.81  19 2.81  15 2.81  21 2.81
                            16 2.81  14 2.81  17 2.81  25 2.87
  14  0.542  0.106  0.179-  24 2.72  26 2.76   6 2.81  11 2.81  20 2.81  15 2.81  10 2.81  18 2.81
                            19 2.81  17 2.81  13 2.81  23 2.82
  15  0.876  0.106  0.179-  24 2.77  12 2.81   4 2.81  11 2.81  21 2.81  13 2.81  14 2.81  20 2.81
                            16 2.81  18 2.81  25 2.83  28 2.85
  16  0.209  0.440  0.179-  29 2.79   8 2.81   4 2.81  19 2.81  18 2.81   5 2.81  15 2.81  20 2.81
                            13 2.81  17 2.81  22 2.84  25 2.85
  17  0.542  0.440  0.179-  26 2.73   9 2.81  20 2.81  21 2.81  18 2.81   6 2.81   5 2.81  14 2.81
                            13 2.81  16 2.81  29 2.82  30 2.86
  18  0.876  0.440  0.179-  24 2.72   7 2.81   6 2.81  21 2.81  16 2.81  19 2.81  17 2.81   4 2.81
                            14 2.81  15 2.81  30 2.84  22 2.84
  19  0.209  0.773  0.179-   8 2.81  10 2.81   7 2.81  16 2.81  13 2.81  18 2.81  21 2.81  14 2.81
                            20 2.81  23 2.84  27 2.85  22 2.87
  20  0.542  0.773  0.179-  29 2.81  11 2.81   9 2.81  17 2.81  14 2.81  21 2.81  15 2.81   8 2.81
                            16 2.81  19 2.81  23 2.82  28 2.84
  21  0.876  0.773  0.179-  27 2.80  12 2.81   7 2.81   9 2.81  18 2.81  15 2.81  19 2.81  13 2.81
                            17 2.81  20 2.81  30 2.84  28 2.88
  22  0.096  0.547  0.286-  37 2.69  31 2.75  25 2.76  29 2.78  30 2.78  24 2.79  16 2.84  18 2.84
                            23 2.84  19 2.87  27 2.88  38 2.89
  23  0.433  0.885  0.285-  32 2.68  28 2.76  31 2.77  35 2.79  29 2.79  24 2.80  20 2.82  14 2.82
                            19 2.84  26 2.84  22 2.84  27 2.87
  24  0.761  0.222  0.280-  18 2.72  14 2.72  30 2.75  15 2.77  26 2.78  22 2.79  23 2.80  25 2.82
                            28 2.83  32 2.83  36 2.95  38 3.01
  25  0.094  0.218  0.286-  34 2.73  22 2.76  38 2.78  27 2.79  28 2.80  33 2.81  29 2.81  24 2.82
                            26 2.83  15 2.83  16 2.85  13 2.87
  26  0.430  0.220  0.280-  17 2.73  13 2.74  14 2.76  24 2.78  29 2.80  33 2.80  27 2.82  30 2.82
                            25 2.83  23 2.84  35 2.90  36 2.93
  27  0.094  0.887  0.285-  37 2.70  34 2.72  30 2.78  25 2.79  28 2.80  21 2.80  13 2.81  35 2.81
                            26 2.82  19 2.85  23 2.87  22 2.88
  28  0.761  0.887  0.287-  32 2.67  34 2.72  23 2.76  25 2.80  27 2.80  29 2.82  39 2.82  24 2.83
                            20 2.84  15 2.85  30 2.85  21 2.88
  29  0.428  0.551  0.284-  31 2.75  22 2.78  23 2.79  16 2.79  26 2.80  20 2.81  25 2.81  28 2.82
                            17 2.82  33 2.83  30 2.87  39 2.87
  30  0.768  0.552  0.286-  37 2.70  24 2.75  22 2.78  27 2.78  39 2.79  26 2.82  18 2.84  21 2.84
                            28 2.85  17 2.86  29 2.87  36 2.89
  31  0.321  0.660  0.387-  22 2.75  29 2.75  23 2.77  32 2.79  37 2.79  35 2.81  39 2.84  38 2.84
                            33 2.86
  32  0.649  0.993  0.384-  28 2.67  23 2.68  35 2.78  31 2.79  36 2.79  38 2.81  34 2.82  24 2.83
                            39 2.86
  33  0.327  0.323  0.388-  36 2.68  35 2.76  39 2.80  26 2.80  38 2.81  25 2.81  29 2.83  34 2.83
                            31 2.86
  34  0.984  0.994  0.386-  38 2.70  28 2.72  27 2.72  25 2.73  37 2.78  39 2.80  32 2.82  35 2.82
                            33 2.83
  35  0.318  0.992  0.389-  37 2.73  36 2.75  33 2.76  32 2.78  23 2.79  31 2.81  27 2.81  34 2.82
                            26 2.90
  36  0.643  0.321  0.393-   1 2.03   2 2.54  33 2.68  35 2.75  32 2.79  39 2.79  30 2.89  26 2.93
                            38 2.94  24 2.95  37 2.96
  37  0.994  0.669  0.384-  22 2.69  27 2.70  30 2.70  35 2.73  34 2.78  31 2.79  39 2.80  36 2.96
                            38 2.97
  38  0.990  0.316  0.394-   2 1.99  34 2.70  25 2.78  33 2.81  32 2.81  31 2.84  22 2.89  36 2.94
                            37 2.97  24 3.01
  39  0.657  0.658  0.391-  30 2.79  36 2.79  34 2.80  33 2.80  37 2.80  28 2.82  31 2.84  32 2.86
                            29 2.87
 

IMPORTANT INFORMATION: All symmetrisations will be switched off!
NOSYMM: (Re-)initialisation of all symmetry stuff for point group C_1.

 
 
 KPOINTS: mesh auto                               

Automatic generation of k-mesh.
Space group operators:
 irot       det(A)        alpha          n_x          n_y          n_z        tau_x        tau_y        tau_z
    1     1.000000     0.000000     1.000000     0.000000     0.000000     0.000000     0.000000     0.000000
 
 Subroutine IBZKPT returns following result:
 ===========================================
 
 Found      4 irreducible k-points:
 
 Following reciprocal coordinates:
            Coordinates               Weight
  0.000000  0.000000  0.000000      1.000000
  0.500000  0.000000  0.000000      1.000000
 -0.000000  0.500000  0.000000      1.000000
  0.500000  0.500000  0.000000      1.000000
 
 Following cartesian coordinates:
            Coordinates               Weight
  0.000000  0.000000  0.000000      1.000000
  0.068522  0.000000  0.000000      1.000000
  0.034261  0.059342  0.000000      1.000000
  0.102783  0.059342  0.000000      1.000000
 


--------------------------------------------------------------------------------------------------------




 Dimension of arrays:
   k-points           NKPTS =      4   k-points in BZ     NKDIM =      4   number of bands    NBANDS=    228
   number of dos      NEDOS =    301   number of ions     NIONS =     39
   non local maximal  LDIM  =      6   non local SUM 2l+1 LMDIM =     18
   total plane-waves  NPLWV = 276480
   max r-space proj   IRMAX =   2756   max aug-charges    IRDMAX=  12646
   dimension x,y,z NGX =    48 NGY =   48 NGZ =  120
   dimension x,y,z NGXF=    96 NGYF=   96 NGZF=  240
   support grid    NGXF=    96 NGYF=   96 NGZF=  240
   ions per type =               1   2  36
   NGX,Y,Z   is equivalent  to a cutoff of   9.47,  9.47,  9.12 a.u.
   NGXF,Y,Z  is equivalent  to a cutoff of  18.94, 18.94, 18.24 a.u.

 SYSTEM =  metal                                   
 POSCAR =  C    O    Pt                            

 Startparameter for this run:
   NWRITE =      2    write-flag & timer
   PREC   = normal    normal or accurate (medium, high low for compatibility)
   ISTART =      0    job   : 0-new  1-cont  2-samecut
   ICHARG =      2    charge: 1-file 2-atom 10-const
   ISPIN  =      1    spin polarized calculation?
   LNONCOLLINEAR =      F non collinear calculations
   LSORBIT =      F    spin-orbit coupling
   INIWAV =      1    electr: 0-lowe 1-rand  2-diag
   LASPH  =      F    aspherical Exc in radial PAW
   METAGGA=      F    non-selfconsistent MetaGGA calc.

 Electronic Relaxation 1
   ENCUT  =  450.0 eV  33.07 Ry    5.75 a.u.  14.57 14.57 37.84*2*pi/ulx,y,z
   ENINI  =  450.0     initial cutoff
   ENAUG  =  644.9 eV  augmentation charge cutoff
   NELM   =     60;   NELMIN=  8; NELMDL= -5     # of ELM steps 
   EDIFF  = 0.1E-03   stopping-criterion for ELM
   LREAL  =      T    real-space projection
   NLSPLINE    = F    spline interpolate recip. space projectors
   LCOMPAT=      F    compatible to vasp.4.4
   GGA_COMPAT  = T    GGA compatible to vasp.4.4-vasp.4.6
   LMAXPAW     = -100 max onsite density
   LMAXMIX     =    2 max onsite mixed and CHGCAR
   VOSKOWN=      0    Vosko Wilk Nusair interpolation
   ROPT   =   -0.00050  -0.00050  -0.00050
 Ionic relaxation
   EDIFFG = -.5E-01   stopping-criterion for IOM
   NSW    =   5000    number of steps for IOM
   NBLOCK =      1;   KBLOCK =   5000    inner block; outer block 
   IBRION =      1    ionic relax: 0-MD 1-quasi-New 2-CG
   NFREE  =      0    steps in history (QN), initial steepest desc. (CG)
   ISIF   =      2    stress and relaxation
   IWAVPR =     11    prediction:  0-non 1-charg 2-wave 3-comb
   ISYM   =      0    0-nonsym 1-usesym 2-fastsym
   LCORR  =      T    Harris-Foulkes like correction to forces

   POTIM  = 0.2000    time-step for ionic-motion
   TEIN   =    0.0    initial temperature
   TEBEG  =    0.0;   TEEND  =   0.0 temperature during run
   SMASS  =  -3.00    Nose mass-parameter (am)
   estimated Nose-frequenzy (Omega)   =  0.10E-29 period in steps =****** mass=  -0.162E-26a.u.
   SCALEE = 1.0000    scale energy and forces
   NPACO  =    256;   APACO  = 16.0  distance and # of slots for P.C.
   PSTRESS=    0.0 pullay stress

  Mass of Ions in am
   POMASS =  12.01 16.00195.08
  Ionic Valenz
   ZVAL   =   4.00  6.00 10.00
  Atomic Wigner-Seitz radii
   RWIGS  =  -1.00 -1.00 -1.00
  virtual crystal weights 
   VCA    =   1.00  1.00  1.00
   NELECT =     376.0000    total number of electrons
   NUPDOWN=      -1.0000    fix difference up-down

 DOS related values:
   EMIN   =  10.00;   EMAX   =-10.00  energy-range for DOS
   EFERMI =   0.00
   ISMEAR =     1;   SIGMA  =   0.20  broadening in eV -4-tet -1-fermi 0-gaus

 Electronic relaxation 2 (details)
   IALGO  =     68    algorithm
   LDIAG  =      T    sub-space diagonalisation (order eigenvalues)
   LSUBROT=      F    optimize rotation matrix (better conditioning)
   TURBO    =      0    0=normal 1=particle mesh
   IRESTART =      0    0=no restart 2=restart with 2 vectors
   NREBOOT  =      0    no. of reboots
   NMIN     =      0    reboot dimension
   EREF     =   0.00    reference energy to select bands
   IMIX   =      4    mixing-type and parameters
     AMIX     =   0.40;   BMIX     =  1.00
     AMIX_MAG =   1.60;   BMIX_MAG =  1.00
     AMIN     =   0.10
     WC   =   100.;   INIMIX=   1;  MIXPRE=   1;  MAXMIX= -45

 Intra band minimization:
   WEIMIN = 0.0010     energy-eigenvalue tresh-hold
   EBREAK =  0.11E-06  absolut break condition
   DEPER  =   0.30     relativ break condition  

   TIME   =   0.40     timestep for ELM

  volume/ion in A,a.u.               =      34.49       232.77
  Fermi-wavevector in a.u.,A,eV,Ry     =   1.070385  2.022734 15.588510  1.145723
  Thomas-Fermi vector in A             =   2.206093
 
 Write flags
   LWAVE        =      F    write WAVECAR
   LDOWNSAMPLE  =      F    k-point downsampling of WAVECAR
   LCHARG       =      F    write CHGCAR
   LVTOT        =      F    write LOCPOT, total local potential
   LVHAR        =      F    write LOCPOT, Hartree potential only
   LELF         =      F    write electronic localiz. function (ELF)
   LORBIT       =      0    0 simple, 1 ext, 2 COOP (PROOUT), +10 PAW based schemes


 Dipole corrections
   LMONO  =      F    monopole corrections only (constant potential shift)
   LDIPOL =      F    correct potential (dipole corrections)
   IDIPOL =      0    1-x, 2-y, 3-z, 4-all directions 
   EPSILON=  1.0000000 bulk dielectric constant

 Exchange correlation treatment:
   GGA     =    --    GGA type
   LEXCH   =     8    internal setting for exchange type
   VOSKOWN=      0    Vosko Wilk Nusair interpolation
   LHFCALC =     F    Hartree Fock is set to
   LHFONE  =     F    Hartree Fock one center treatment
   AEXX    =    0.0000 exact exchange contribution

 Linear response parameters
   LEPSILON=     F    determine dielectric tensor
   LRPA    =     F    only Hartree local field effects (RPA)
   LNABLA  =     F    use nabla operator in PAW spheres
   LVEL    =     F    velocity operator in full k-point grid
   LINTERFAST=   F  fast interpolation
   KINTER  =     0    interpolate to denser k-point grid
   CSHIFT  =0.1000    complex shift for real part using Kramers Kronig
   OMEGAMAX=  -1.0    maximum frequency
   DEG_THRESHOLD= 0.2000000E-02 threshold for treating states as degnerate
   RTIME   =   -0.100 relaxation time in fs
  (WPLASMAI=    0.000 imaginary part of plasma frequency in eV, 0.658/RTIME)
   DFIELD  = 0.0000000 0.0000000 0.0000000 field for delta impulse in time
 
 Orbital magnetization related:
   ORBITALMAG=     F  switch on orbital magnetization
   LCHIMAG   =     F  perturbation theory with respect to B field
   DQ        =  0.001000  dq finite difference perturbation B field
   LLRAUG    =     F  two centre corrections for induced B field



--------------------------------------------------------------------------------------------------------


 quasi-Newton-method for relaxation of ions
   using selective dynamics as specified on POSCAR
 charge density and potential will be updated during run
 non-spin polarized calculation
 RMM-DIIS sequential band-by-band and
  variant of blocked Davidson during initial phase
 perform sub-space diagonalisation
    before iterative eigenvector-optimisation
 modified Broyden-mixing scheme, WC =      100.0
 initial mixing is a Kerker type mixing with AMIX =  0.4000 and BMIX =      1.0000
 Hartree-type preconditioning will be used
 using additional bands           40
 real space projection scheme for non local part
 use partial core corrections
 calculate Harris-corrections to forces 
   (improved forces if not selfconsistent)
 use gradient corrections 
 use of overlap-Matrix (Vanderbilt PP)
 Methfessel and Paxton  Order N= 1 SIGMA  =   0.20


--------------------------------------------------------------------------------------------------------


  energy-cutoff  :      450.00
  volume of cell :     1345.22
      direct lattice vectors                 reciprocal lattice vectors
     7.296955120 -4.212899000  0.000000000     0.137043463  0.000000000  0.000000000
     0.000000000  8.425798000  0.000000000     0.068521732  0.118683121  0.000000000
     0.000000000  0.000000000 21.879635000     0.000000000  0.000000000  0.045704602

  length of vectors
     8.425798004  8.425798000 21.879635000     0.137043463  0.137043463  0.045704602


 
 k-points in units of 2pi/SCALE and weight: mesh auto                               
   0.00000000  0.00000000  0.00000000       0.250
   0.06852173  0.00000000  0.00000000       0.250
   0.03426087  0.05934156  0.00000000       0.250
   0.10278260  0.05934156  0.00000000       0.250
 
 k-points in reciprocal lattice and weights: mesh auto                               
   0.00000000  0.00000000  0.00000000       0.250
   0.50000000  0.00000000  0.00000000       0.250
  -0.00000000  0.50000000  0.00000000       0.250
   0.50000000  0.50000000  0.00000000       0.250
 
 position of ions in fractional coordinates (direct lattice) 
   0.69895623  0.43088526  0.47844456
   0.90168310  0.38813464  0.46742346
   0.67081968  0.45774114  0.52833309
   0.98675500  0.32859100  0.07437600
   0.32008800  0.32859100  0.07437600
   0.65342200  0.32859100  0.07437600
   0.98675500  0.66192500  0.07437600
   0.32008800  0.66192500  0.07437600
   0.65342200  0.66192500  0.07437600
   0.32008800  0.99525800  0.07437600
   0.65342200  0.99525800  0.07437600
   0.98675500  0.99525800  0.07437600
   0.20897700  0.10636900  0.17918600
   0.54231100  0.10636900  0.17918600
   0.87564400  0.10636900  0.17918600
   0.20897700  0.43970300  0.17918600
   0.54231100  0.43970300  0.17918600
   0.87564400  0.43970300  0.17918600
   0.20897700  0.77303600  0.17918600
   0.54231100  0.77303600  0.17918600
   0.87564400  0.77303600  0.17918600
   0.09610528  0.54703751  0.28632390
   0.43328070  0.88492516  0.28498417
   0.76088637  0.22173190  0.27973864
   0.09391815  0.21813032  0.28619706
   0.43001395  0.22046149  0.28014905
   0.09358829  0.88700100  0.28455007
   0.76117048  0.88651879  0.28666978
   0.42765263  0.55107484  0.28399013
   0.76835072  0.55169102  0.28617926
   0.32054864  0.65964650  0.38705544
   0.64869585  0.99285681  0.38439265
   0.32653140  0.32300858  0.38833153
   0.98440924  0.99401532  0.38593869
   0.31843678  0.99188483  0.38870788
   0.64312639  0.32051935  0.39335247
   0.99428278  0.66922785  0.38400559
   0.99031966  0.31613154  0.39381033
   0.65651324  0.65827783  0.39059456
 
 position of ions in cartesian coordinates  (Angst):
   5.10025223  0.68592015 10.46819235
   6.57954109 -0.52835573 10.22705468
   4.89494113  1.03073881 11.55973521
   7.20030695 -1.38845776  1.62731973
   2.33566777  1.42014298  1.62731973
   4.76799101  0.01584050  1.62731973
   7.20030695  1.42014719  1.62731973
   2.33566777  4.22874793  1.62731973
   4.76799101  2.82444545  1.62731973
   2.33566777  7.03734445  1.62731973
   4.76799101  5.63304198  1.62731973
   7.20030695  4.22874371  1.62731973
   1.52489579  0.01584471  3.92052428
   3.95721903 -1.38845776  3.92052428
   6.38953497 -2.79275602  3.92052428
   1.52489579  2.82444966  3.92052428
   3.95721903  1.42014719  3.92052428
   6.38953497  0.01584893  3.92052428
   1.52489579  5.63304619  3.92052428
   3.95721903  4.22874371  3.92052428
   6.38953497  2.82444545  3.92052428
   0.70127591  4.20434570  6.26466234
   3.16162982  5.63083284  6.23534956
   5.55215366 -1.33726922  6.12057944
   0.68531650  1.44225433  6.26188713
   3.13779250  0.04595861  6.12955898
   0.68290952  7.07941322  6.22585165
   5.55422686  4.26289383  6.27223019
   3.12056204  2.84158796  6.21360043
   5.60662071  1.41145309  6.26149770
   2.33902905  4.20760915  8.46863184
   4.73350451  5.63272079  8.41037086
   2.38268497  1.34596123  8.49655213
   7.18319007  4.22815561  8.44419757
   2.32361892  7.01587924  8.50478644
   4.69286442 -0.00879522  8.60640853
   7.25523683  1.44996577  8.40190221
   7.22631813 -1.50845618  8.61642631
   4.79054768  2.78069204  8.54606638
 


--------------------------------------------------------------------------------------------------------


 k-point  1 :   0.0000 0.0000 0.0000  plane waves:   29241
 k-point  2 :   0.5000 0.0000 0.0000  plane waves:   29108
 k-point  3 :  -0.0000 0.5000 0.0000  plane waves:   29108
 k-point  4 :   0.5000 0.5000 0.0000  plane waves:   29108

 maximum and minimum number of plane-waves per node :     14624    14548

 maximum number of plane-waves:     29241
 maximum index in each direction: 
   IXMAX=   14   IYMAX=   14   IZMAX=   37
   IXMIN=  -15   IYMIN=  -15   IZMIN=  -37


 real space projection operators:
  total allocation   :      13562.53 KBytes
  max/ min on nodes  :       6790.06       6772.47


 parallel 3D FFT for wavefunctions:
    minimum data exchange during FFTs selected (reduces bandwidth)
 parallel 3D FFT for charge:
    minimum data exchange during FFTs selected (reduces bandwidth)


 total amount of memory used by VASP MPI-rank0   131961. kBytes
=======================================================================

   base      :      30000. kBytes
   nonlr-proj:      10153. kBytes
   fftplans  :      13556. kBytes
   grid      :      23353. kBytes
   one-center:        311. kBytes
   wavefun   :      54588. kBytes
 
     INWAV:  cpu time    0.0000: real time    0.0000
 Broyden mixing: mesh for mixing (old mesh)
   NGX = 29   NGY = 29   NGZ = 75
  (NGX  = 96   NGY  = 96   NGZ  =240)
  gives a total of  63075 points

 initial charge density was supplied:
 charge density of overlapping atoms calculated
 number of electron     376.0000000 magnetization 
 keeping initial charge density in first step


--------------------------------------------------------------------------------------------------------


 Maximum index for non-local projection operator         1323
 Maximum index for augmentation-charges         1558 (set IRDMAX)


--------------------------------------------------------------------------------------------------------


 First call to EWALD:  gamma=   0.161
 Maximum number of real-space cells 4x 4x 2
 Maximum number of reciprocal cells 2x 2x 5

    FEWALD:  cpu time    0.0024: real time    0.0024


--------------------------------------- Iteration      1(   1)  ---------------------------------------


    POTLOK:  cpu time    0.1382: real time    0.2297
    SETDIJ:  cpu time    0.0101: real time    0.0102
     EDDAV:  cpu time    8.0264: real time    8.0810
       DOS:  cpu time    0.0010: real time    0.0010
    --------------------------------------------
      LOOP:  cpu time    8.1757: real time    8.3218

 eigenvalue-minimisations  :  1824
 total energy-change (2. order) : 0.2420044E+04  (-0.1595017E+05)
 number of electron     376.0000000 magnetization 
 augmentation part      376.0000000 magnetization 

 Free energy of the ion-electron system (eV)
  ---------------------------------------------------
  alpha Z        PSCENC =       975.10247152
  Ewald energy   TEWEN  =     91034.15748843
  -Hartree energ DENC   =   -120125.47528167
  -exchange      EXHF   =         0.00000000
  -V(xc)+E(xc)   XCENC  =       189.55386047
  PAW double counting   =     24789.08602224   -23775.73976456
  entropy T*S    EENTRO =        -0.00103293
  eigenvalues    EBANDS =      2073.46613504
  atomic energy  EATOM  =     27259.89416086
  Solvation  Ediel_sol  =         0.00000000
  ---------------------------------------------------
  free energy    TOTEN  =      2420.04405941 eV

  energy without entropy =     2420.04509234  energy(sigma->0) =     2420.04440372


--------------------------------------------------------------------------------------------------------




--------------------------------------- Iteration      1(   2)  ---------------------------------------


     EDDAV:  cpu time    8.3039: real time    8.3594
       DOS:  cpu time    0.0010: real time    0.0010
    --------------------------------------------
      LOOP:  cpu time    8.3049: real time    8.3605

 eigenvalue-minimisations  :  2112
 total energy-change (2. order) :-0.2483317E+04  (-0.2304225E+04)
 number of electron     376.0000000 magnetization 
 augmentation part      376.0000000 magnetization 

 Free energy of the ion-electron system (eV)
  ---------------------------------------------------
  alpha Z        PSCENC =       975.10247152
  Ewald energy   TEWEN  =     91034.15748843
  -Hartree energ DENC   =   -120125.47528167
  -exchange      EXHF   =         0.00000000
  -V(xc)+E(xc)   XCENC  =       189.55386047
  PAW double counting   =     24789.08602224   -23775.73976456
  entropy T*S    EENTRO =        -0.01719409
  eigenvalues    EBANDS =      -409.83465131
  atomic energy  EATOM  =     27259.89416086
  Solvation  Ediel_sol  =         0.00000000
  ---------------------------------------------------
  free energy    TOTEN  =       -63.27288811 eV

  energy without entropy =      -63.25569402  energy(sigma->0) =      -63.26715675


--------------------------------------------------------------------------------------------------------




--------------------------------------- Iteration      1(   3)  ---------------------------------------


     EDDAV:  cpu time    8.3784: real time    8.4370
       DOS:  cpu time    0.0010: real time    0.0010
    --------------------------------------------
      LOOP:  cpu time    8.3794: real time    8.4380

 eigenvalue-minimisations  :  2168
 total energy-change (2. order) :-0.1771662E+03  (-0.1604283E+03)
 number of electron     376.0000000 magnetization 
 augmentation part      376.0000000 magnetization 

 Free energy of the ion-electron system (eV)
  ---------------------------------------------------
  alpha Z        PSCENC =       975.10247152
  Ewald energy   TEWEN  =     91034.15748843
  -Hartree energ DENC   =   -120125.47528167
  -exchange      EXHF   =         0.00000000
  -V(xc)+E(xc)   XCENC  =       189.55386047
  PAW double counting   =     24789.08602224   -23775.73976456
  entropy T*S    EENTRO =        -0.01238370
  eigenvalues    EBANDS =      -587.00566841
  atomic energy  EATOM  =     27259.89416086
  Solvation  Ediel_sol  =         0.00000000
  ---------------------------------------------------
  free energy    TOTEN  =      -240.43909481 eV

  energy without entropy =     -240.42671112  energy(sigma->0) =     -240.43496691


--------------------------------------------------------------------------------------------------------




--------------------------------------- Iteration      1(   4)  ---------------------------------------


     EDDAV:  cpu time    9.5217: real time    9.5909
       DOS:  cpu time    0.0010: real time    0.0010
    --------------------------------------------
      LOOP:  cpu time    9.5227: real time    9.5920

 eigenvalue-minimisations  :  2320
 total energy-change (2. order) :-0.7603336E+01  (-0.7325868E+01)
 number of electron     376.0000000 magnetization 
 augmentation part      376.0000000 magnetization 

 Free energy of the ion-electron system (eV)
  ---------------------------------------------------
  alpha Z        PSCENC =       975.10247152
  Ewald energy   TEWEN  =     91034.15748843
  -Hartree energ DENC   =   -120125.47528167
  -exchange      EXHF   =         0.00000000
  -V(xc)+E(xc)   XCENC  =       189.55386047
  PAW double counting   =     24789.08602224   -23775.73976456
  entropy T*S    EENTRO =        -0.00388972
  eigenvalues    EBANDS =      -594.61749817
  atomic energy  EATOM  =     27259.89416086
  Solvation  Ediel_sol  =         0.00000000
  ---------------------------------------------------
  free energy    TOTEN  =      -248.04243059 eV

  energy without entropy =     -248.03854087  energy(sigma->0) =     -248.04113402


--------------------------------------------------------------------------------------------------------




--------------------------------------- Iteration      1(   5)  ---------------------------------------


     EDDAV:  cpu time   10.4896: real time   10.5662
       DOS:  cpu time    0.0011: real time    0.0011
    CHARGE:  cpu time    0.3792: real time    0.3818
    MIXING:  cpu time    0.0072: real time    0.0072
    --------------------------------------------
      LOOP:  cpu time   10.8770: real time   10.9563

 eigenvalue-minimisations  :  2536
 total energy-change (2. order) :-0.2393386E+00  (-0.2366754E+00)
 number of electron     376.0000016 magnetization 
 augmentation part      105.8527606 magnetization 

 Broyden mixing:
  rms(total) = 0.27107E+01    rms(broyden)= 0.27103E+01
  rms(prec ) = 0.30159E+01
  weight for this iteration     100.00

 Free energy of the ion-electron system (eV)
  ---------------------------------------------------
  alpha Z        PSCENC =       975.10247152
  Ewald energy   TEWEN  =     91034.15748843
  -Hartree energ DENC   =   -120125.47528167
  -exchange      EXHF   =         0.00000000
  -V(xc)+E(xc)   XCENC  =       189.55386047
  PAW double counting   =     24789.08602224   -23775.73976456
  entropy T*S    EENTRO =        -0.00358371
  eigenvalues    EBANDS =      -594.85714275
  atomic energy  EATOM  =     27259.89416086
  Solvation  Ediel_sol  =         0.00000000
  ---------------------------------------------------
  free energy    TOTEN  =      -248.28176916 eV

  energy without entropy =     -248.27818545  energy(sigma->0) =     -248.28057459


--------------------------------------------------------------------------------------------------------




--------------------------------------- Iteration      1(   6)  ---------------------------------------


    POTLOK:  cpu time    0.1339: real time    0.1348
    SETDIJ:  cpu time    0.0101: real time    0.0101
    EDDIAG:  cpu time    1.2912: real time    1.3005
  RMM-DIIS:  cpu time    4.3758: real time    4.4086
    ORTHCH:  cpu time    0.2153: real time    0.2167
       DOS:  cpu time    0.0011: real time    0.0011
    CHARGE:  cpu time    0.3791: real time    0.3816
    MIXING:  cpu time    0.0053: real time    0.0053
    --------------------------------------------
      LOOP:  cpu time    6.4117: real time    6.4589

 eigenvalue-minimisations  :  1832
 total energy-change (2. order) : 0.2969230E+01  (-0.5335730E+01)
 number of electron     376.0000016 magnetization 
 augmentation part      112.8654854 magnetization 

 Broyden mixing:
  rms(total) = 0.29661E+01    rms(broyden)= 0.29653E+01
  rms(prec ) = 0.40587E+01
  weight for this iteration     100.00

 eigenvalues of (default mixing * dielectric matrix)
  average eigenvalue GAMMA=   0.4840
  0.4840

 Free energy of the ion-electron system (eV)
  ---------------------------------------------------
  alpha Z        PSCENC =       975.10247152
  Ewald energy   TEWEN  =     91034.15748843
  -Hartree energ DENC   =   -119667.54967035
  -exchange      EXHF   =         0.00000000
  -V(xc)+E(xc)   XCENC  =       182.37020647
  PAW double counting   =     26718.60304582   -25758.74624604
  entropy T*S    EENTRO =        -0.15343157
  eigenvalues    EBANDS =      -988.99056394
  atomic energy  EATOM  =     27259.89416086
  Solvation  Ediel_sol  =         0.00000000
  ---------------------------------------------------
  free energy    TOTEN  =      -245.31253878 eV

  energy without entropy =     -245.15910722  energy(sigma->0) =     -245.26139493


--------------------------------------------------------------------------------------------------------




--------------------------------------- Iteration      1(   7)  ---------------------------------------


    POTLOK:  cpu time    0.1225: real time    0.1233
    SETDIJ:  cpu time    0.0097: real time    0.0097
    EDDIAG:  cpu time    1.1678: real time    1.1756
  RMM-DIIS:  cpu time    4.2146: real time    4.2454
    ORTHCH:  cpu time    0.2126: real time    0.2141
       DOS:  cpu time    0.0011: real time    0.0011
    CHARGE:  cpu time    0.3649: real time    0.3673
    MIXING:  cpu time    0.0042: real time    0.0042
    --------------------------------------------
      LOOP:  cpu time    6.0973: real time    6.1407

 eigenvalue-minimisations  :  1831
 total energy-change (2. order) :-0.9844707E+00  (-0.3158044E+01)
 number of electron     376.0000027 magnetization 
 augmentation part      111.3624362 magnetization 

 Broyden mixing:
  rms(total) = 0.22529E+01    rms(broyden)= 0.22522E+01
  rms(prec ) = 0.39862E+01
  weight for this iteration     100.00

 eigenvalues of (default mixing * dielectric matrix)
  average eigenvalue GAMMA=   0.5444
  0.8568  0.2320

 Free energy of the ion-electron system (eV)
  ---------------------------------------------------
  alpha Z        PSCENC =       975.10247152
  Ewald energy   TEWEN  =     91034.15748843
  -Hartree energ DENC   =   -119855.70119344
  -exchange      EXHF   =         0.00000000
  -V(xc)+E(xc)   XCENC  =       180.16461777
  PAW double counting   =     27335.25888306   -26382.47439553
  entropy T*S    EENTRO =        -0.16626586
  eigenvalues    EBANDS =      -792.53277627
  atomic energy  EATOM  =     27259.89416086
  Solvation  Ediel_sol  =         0.00000000
  ---------------------------------------------------
  free energy    TOTEN  =      -246.29700946 eV

  energy without entropy =     -246.13074360  energy(sigma->0) =     -246.24158750


--------------------------------------------------------------------------------------------------------




--------------------------------------- Iteration      1(   8)  ---------------------------------------


    POTLOK:  cpu time    0.1242: real time    0.1250
    SETDIJ:  cpu time    0.0100: real time    0.0101
    EDDIAG:  cpu time    1.3242: real time    1.3334
  RMM-DIIS:  cpu time    4.4918: real time    4.5245
    ORTHCH:  cpu time    0.2171: real time    0.2187
       DOS:  cpu time    0.0010: real time    0.0010
    CHARGE:  cpu time    0.3996: real time    0.4026
    MIXING:  cpu time    0.0042: real time    0.0042
    --------------------------------------------
      LOOP:  cpu time    6.5720: real time    6.6195

 eigenvalue-minimisations  :  1826
 total energy-change (2. order) : 0.2355648E+01  (-0.1046089E+01)
 number of electron     376.0000018 magnetization 
 augmentation part      111.8714565 magnetization 

 Broyden mixing:
  rms(total) = 0.23196E+01    rms(broyden)= 0.23194E+01
  rms(prec ) = 0.38292E+01
  weight for this iteration     100.00

 eigenvalues of (default mixing * dielectric matrix)
  average eigenvalue GAMMA=   0.5204
  1.1515  0.2669  0.1427

 Free energy of the ion-electron system (eV)
  ---------------------------------------------------
  alpha Z        PSCENC =       975.10247152
  Ewald energy   TEWEN  =     91034.15748843
  -Hartree energ DENC   =   -119835.15672188
  -exchange      EXHF   =         0.00000000
  -V(xc)+E(xc)   XCENC  =       179.14319690
  PAW double counting   =     27883.61878313   -26939.48913581
  entropy T*S    EENTRO =        -0.02732508
  eigenvalues    EBANDS =      -801.18427933
  atomic energy  EATOM  =     27259.89416086
  Solvation  Ediel_sol  =         0.00000000
  ---------------------------------------------------
  free energy    TOTEN  =      -243.94136126 eV

  energy without entropy =     -243.91403618  energy(sigma->0) =     -243.93225290


--------------------------------------------------------------------------------------------------------




--------------------------------------- Iteration      1(   9)  ---------------------------------------


    POTLOK:  cpu time    0.1324: real time    0.1334
    SETDIJ:  cpu time    0.0098: real time    0.0098
    EDDIAG:  cpu time    1.4423: real time    1.4537
  RMM-DIIS:  cpu time    4.8115: real time    4.8497
    ORTHCH:  cpu time    0.2109: real time    0.2124
       DOS:  cpu time    0.0011: real time    0.0011
    CHARGE:  cpu time    0.4473: real time    0.4503
    MIXING:  cpu time    0.0053: real time    0.0054
    --------------------------------------------
      LOOP:  cpu time    7.0606: real time    7.1158

 eigenvalue-minimisations  :  1831
 total energy-change (2. order) : 0.1200903E+02  (-0.6366265E+00)
 number of electron     376.0000021 magnetization 
 augmentation part      112.6396344 magnetization 

 Broyden mixing:
  rms(total) = 0.90928E+00    rms(broyden)= 0.90906E+00
  rms(prec ) = 0.11391E+01
  weight for this iteration     100.00

 eigenvalues of (default mixing * dielectric matrix)
  average eigenvalue GAMMA=   0.5232
  1.2961  0.3298  0.3298  0.1370

 Free energy of the ion-electron system (eV)
  ---------------------------------------------------
  alpha Z        PSCENC =       975.10247152
  Ewald energy   TEWEN  =     91034.15748843
  -Hartree energ DENC   =   -119756.89655876
  -exchange      EXHF   =         0.00000000
  -V(xc)+E(xc)   XCENC  =       178.40325985
  PAW double counting   =     28630.18527785   -27697.75782591
  entropy T*S    EENTRO =        -0.08489598
  eigenvalues    EBANDS =      -854.93571346
  atomic energy  EATOM  =     27259.89416086
  Solvation  Ediel_sol  =         0.00000000
  ---------------------------------------------------
  free energy    TOTEN  =      -231.93233560 eV

  energy without entropy =     -231.84743962  energy(sigma->0) =     -231.90403694


--------------------------------------------------------------------------------------------------------




--------------------------------------- Iteration      1(  10)  ---------------------------------------


    POTLOK:  cpu time    0.1329: real time    0.1339
    SETDIJ:  cpu time    0.0092: real time    0.0093
    EDDIAG:  cpu time    1.4162: real time    1.4266
  RMM-DIIS:  cpu time    5.1171: real time    5.1553
    ORTHCH:  cpu time    0.2310: real time    0.2326
       DOS:  cpu time    0.0011: real time    0.0011
    CHARGE:  cpu time    0.4473: real time    0.4505
    MIXING:  cpu time    0.0054: real time    0.0054
    --------------------------------------------
      LOOP:  cpu time    7.3602: real time    7.4147

 eigenvalue-minimisations  :  1830
 total energy-change (2. order) : 0.1353552E+01  (-0.1882874E+00)
 number of electron     376.0000020 magnetization 
 augmentation part      112.7994443 magnetization 

 Broyden mixing:
  rms(total) = 0.49905E+00    rms(broyden)= 0.49897E+00
  rms(prec ) = 0.64198E+00
  weight for this iteration     100.00

 eigenvalues of (default mixing * dielectric matrix)
  average eigenvalue GAMMA=   0.5492
  1.3969  0.4716  0.4716  0.1392  0.2667

 Free energy of the ion-electron system (eV)
  ---------------------------------------------------
  alpha Z        PSCENC =       975.10247152
  Ewald energy   TEWEN  =     91034.15748843
  -Hartree energ DENC   =   -119747.04239560
  -exchange      EXHF   =         0.00000000
  -V(xc)+E(xc)   XCENC  =       178.27350136
  PAW double counting   =     29006.86887358   -28079.66915033
  entropy T*S    EENTRO =         0.02008184
  eigenvalues    EBANDS =      -858.18381539
  atomic energy  EATOM  =     27259.89416086
  Solvation  Ediel_sol  =         0.00000000
  ---------------------------------------------------
  free energy    TOTEN  =      -230.57878373 eV

  energy without entropy =     -230.59886556  energy(sigma->0) =     -230.58547767


--------------------------------------------------------------------------------------------------------




--------------------------------------- Iteration      1(  11)  ---------------------------------------


    POTLOK:  cpu time    0.1445: real time    0.1455
    SETDIJ:  cpu time    0.0100: real time    0.0101
    EDDIAG:  cpu time    1.5230: real time    1.5339
  RMM-DIIS:  cpu time    4.7881: real time    4.8273
    ORTHCH:  cpu time    0.2210: real time    0.2227
       DOS:  cpu time    0.0011: real time    0.0011
    CHARGE:  cpu time    0.4086: real time    0.4119
    MIXING:  cpu time    0.0052: real time    0.0052
    --------------------------------------------
      LOOP:  cpu time    7.1015: real time    7.1576

 eigenvalue-minimisations  :  1831
 total energy-change (2. order) : 0.2716391E+00  (-0.4541221E-01)
 number of electron     376.0000021 magnetization 
 augmentation part      112.9215614 magnetization 

 Broyden mixing:
  rms(total) = 0.33502E+00    rms(broyden)= 0.33477E+00
  rms(prec ) = 0.44413E+00
  weight for this iteration     100.00

 eigenvalues of (default mixing * dielectric matrix)
  average eigenvalue GAMMA=   0.5719
  1.5315  0.8258  0.1383  0.3469  0.3469  0.2418

 Free energy of the ion-electron system (eV)
  ---------------------------------------------------
  alpha Z        PSCENC =       975.10247152
  Ewald energy   TEWEN  =     91034.15748843
  -Hartree energ DENC   =   -119742.37835690
  -exchange      EXHF   =         0.00000000
  -V(xc)+E(xc)   XCENC  =       178.27520158
  PAW double counting   =     29296.80628907   -28373.33157422
  entropy T*S    EENTRO =        -0.02812104
  eigenvalues    EBANDS =      -858.80470394
  atomic energy  EATOM  =     27259.89416086
  Solvation  Ediel_sol  =         0.00000000
  ---------------------------------------------------
  free energy    TOTEN  =      -230.30714462 eV

  energy without entropy =     -230.27902359  energy(sigma->0) =     -230.29777095


--------------------------------------------------------------------------------------------------------




--------------------------------------- Iteration      1(  12)  ---------------------------------------


    POTLOK:  cpu time    0.1294: real time    0.1303
    SETDIJ:  cpu time    0.0096: real time    0.0097
    EDDIAG:  cpu time    1.3944: real time    1.4038
  RMM-DIIS:  cpu time    4.9587: real time    4.9939
    ORTHCH:  cpu time    0.2171: real time    0.2186
       DOS:  cpu time    0.0012: real time    0.0012
    CHARGE:  cpu time    0.4215: real time    0.4242
    MIXING:  cpu time    0.0048: real time    0.0048
    --------------------------------------------
      LOOP:  cpu time    7.1366: real time    7.1864

 eigenvalue-minimisations  :  1846
 total energy-change (2. order) : 0.1785754E+00  (-0.2020389E-01)
 number of electron     376.0000020 magnetization 
 augmentation part      112.9702399 magnetization 

 Broyden mixing:
  rms(total) = 0.17781E+00    rms(broyden)= 0.17777E+00
  rms(prec ) = 0.19308E+00
  weight for this iteration     100.00

 eigenvalues of (default mixing * dielectric matrix)
  average eigenvalue GAMMA=   0.6659
  1.8457  1.0450  0.6557  0.4504  0.1384  0.2630  0.2630

 Free energy of the ion-electron system (eV)
  ---------------------------------------------------
  alpha Z        PSCENC =       975.10247152
  Ewald energy   TEWEN  =     91034.15748843
  -Hartree energ DENC   =   -119733.81072424
  -exchange      EXHF   =         0.00000000
  -V(xc)+E(xc)   XCENC  =       178.24262530
  PAW double counting   =     29568.59372588   -28648.44087877
  entropy T*S    EENTRO =        -0.00525099
  eigenvalues    EBANDS =      -863.86218723
  atomic energy  EATOM  =     27259.89416086
  Solvation  Ediel_sol  =         0.00000000
  ---------------------------------------------------
  free energy    TOTEN  =      -230.12856924 eV

  energy without entropy =     -230.12331825  energy(sigma->0) =     -230.12681891


--------------------------------------------------------------------------------------------------------




--------------------------------------- Iteration      1(  13)  ---------------------------------------


    POTLOK:  cpu time    0.1369: real time    0.1379
    SETDIJ:  cpu time    0.0092: real time    0.0092
    EDDIAG:  cpu time    1.5812: real time    1.5917
  RMM-DIIS:  cpu time    5.0983: real time    5.1331
    ORTHCH:  cpu time    0.2132: real time    0.2147
       DOS:  cpu time    0.0011: real time    0.0011
    CHARGE:  cpu time    0.3783: real time    0.3809
    MIXING:  cpu time    0.0047: real time    0.0047
    --------------------------------------------
      LOOP:  cpu time    7.4230: real time    7.4734

 eigenvalue-minimisations  :  1831
 total energy-change (2. order) :-0.1629329E-01  (-0.1197005E-01)
 number of electron     376.0000019 magnetization 
 augmentation part      112.9942379 magnetization 

 Broyden mixing:
  rms(total) = 0.19695E+00    rms(broyden)= 0.19694E+00
  rms(prec ) = 0.25170E+00
  weight for this iteration     100.00

 eigenvalues of (default mixing * dielectric matrix)
  average eigenvalue GAMMA=   0.6895
  2.0815  1.1186  0.9008  0.4217  0.1384  0.3123  0.3123  0.2307

 Free energy of the ion-electron system (eV)
  ---------------------------------------------------
  alpha Z        PSCENC =       975.10247152
  Ewald energy   TEWEN  =     91034.15748843
  -Hartree energ DENC   =   -119731.35278597
  -exchange      EXHF   =         0.00000000
  -V(xc)+E(xc)   XCENC  =       178.14722500
  PAW double counting   =     29829.57318685   -28912.55113829
  entropy T*S    EENTRO =        -0.01334689
  eigenvalues    EBANDS =      -863.10212405
  atomic energy  EATOM  =     27259.89416086
  Solvation  Ediel_sol  =         0.00000000
  ---------------------------------------------------
  free energy    TOTEN  =      -230.14486253 eV

  energy without entropy =     -230.13151564  energy(sigma->0) =     -230.14041357


--------------------------------------------------------------------------------------------------------




--------------------------------------- Iteration      1(  14)  ---------------------------------------


    POTLOK:  cpu time    0.1222: real time    0.1229
    SETDIJ:  cpu time    0.0097: real time    0.0097
    EDDIAG:  cpu time    1.1825: real time    1.1904
  RMM-DIIS:  cpu time    4.5493: real time    4.5833
    ORTHCH:  cpu time    0.2108: real time    0.2123
       DOS:  cpu time    0.0011: real time    0.0011
    CHARGE:  cpu time    0.3771: real time    0.3796
    MIXING:  cpu time    0.0058: real time    0.0058
    --------------------------------------------
      LOOP:  cpu time    6.4584: real time    6.5052

 eigenvalue-minimisations  :  1832
 total energy-change (2. order) : 0.4768331E-01  (-0.8477428E-02)
 number of electron     376.0000020 magnetization 
 augmentation part      112.9850094 magnetization 

 Broyden mixing:
  rms(total) = 0.10463E+00    rms(broyden)= 0.10461E+00
  rms(prec ) = 0.13454E+00
  weight for this iteration     100.00

 eigenvalues of (default mixing * dielectric matrix)
  average eigenvalue GAMMA=   0.7356
  2.4276  1.2689  0.8009  0.8009  0.3924  0.1384  0.3006  0.2631  0.2278

 Free energy of the ion-electron system (eV)
  ---------------------------------------------------
  alpha Z        PSCENC =       975.10247152
  Ewald energy   TEWEN  =     91034.15748843
  -Hartree energ DENC   =   -119735.89403356
  -exchange      EXHF   =         0.00000000
  -V(xc)+E(xc)   XCENC  =       178.08871641
  PAW double counting   =     29974.78795299   -29059.47223665
  entropy T*S    EENTRO =        -0.01076125
  eigenvalues    EBANDS =      -856.75093796
  atomic energy  EATOM  =     27259.89416086
  Solvation  Ediel_sol  =         0.00000000
  ---------------------------------------------------
  free energy    TOTEN  =      -230.09717922 eV

  energy without entropy =     -230.08641796  energy(sigma->0) =     -230.09359213


--------------------------------------------------------------------------------------------------------




--------------------------------------- Iteration      1(  15)  ---------------------------------------


    POTLOK:  cpu time    0.1286: real time    0.1294
    SETDIJ:  cpu time    0.0096: real time    0.0097
    EDDIAG:  cpu time    1.4494: real time    1.4594
  RMM-DIIS:  cpu time    4.8209: real time    4.8565
    ORTHCH:  cpu time    0.2153: real time    0.2168
       DOS:  cpu time    0.0011: real time    0.0011
    CHARGE:  cpu time    0.3753: real time    0.3778
    MIXING:  cpu time    0.0058: real time    0.0059
    --------------------------------------------
      LOOP:  cpu time    7.0061: real time    7.0566

 eigenvalue-minimisations  :  1831
 total energy-change (2. order) : 0.5983974E-02  (-0.3338113E-02)
 number of electron     376.0000020 magnetization 
 augmentation part      112.9679274 magnetization 

 Broyden mixing:
  rms(total) = 0.72785E-01    rms(broyden)= 0.72740E-01
  rms(prec ) = 0.91459E-01
  weight for this iteration     100.00

 eigenvalues of (default mixing * dielectric matrix)
  average eigenvalue GAMMA=   0.7095
  2.4954  1.2813  0.8346  0.8346  0.4201  0.1384  0.3226  0.2871  0.2566  0.2249

 Free energy of the ion-electron system (eV)
  ---------------------------------------------------
  alpha Z        PSCENC =       975.10247152
  Ewald energy   TEWEN  =     91034.15748843
  -Hartree energ DENC   =   -119736.66427690
  -exchange      EXHF   =         0.00000000
  -V(xc)+E(xc)   XCENC  =       178.06044466
  PAW double counting   =     30076.24480054   -29162.02342648
  entropy T*S    EENTRO =        -0.00368221
  eigenvalues    EBANDS =      -854.85917567
  atomic energy  EATOM  =     27259.89416086
  Solvation  Ediel_sol  =         0.00000000
  ---------------------------------------------------
  free energy    TOTEN  =      -230.09119524 eV

  energy without entropy =     -230.08751303  energy(sigma->0) =     -230.08996784


--------------------------------------------------------------------------------------------------------




--------------------------------------- Iteration      1(  16)  ---------------------------------------


    POTLOK:  cpu time    0.1256: real time    0.1265
    SETDIJ:  cpu time    0.0100: real time    0.0101
    EDDIAG:  cpu time    1.3268: real time    1.3362
  RMM-DIIS:  cpu time    4.4604: real time    4.4938
    ORTHCH:  cpu time    0.2150: real time    0.2166
       DOS:  cpu time    0.0011: real time    0.0011
    CHARGE:  cpu time    0.3793: real time    0.3820
    MIXING:  cpu time    0.0058: real time    0.0058
    --------------------------------------------
      LOOP:  cpu time    6.5241: real time    6.5721

 eigenvalue-minimisations  :  1830
 total energy-change (2. order) : 0.8398412E-02  (-0.8859476E-03)
 number of electron     376.0000020 magnetization 
 augmentation part      112.9695964 magnetization 

 Broyden mixing:
  rms(total) = 0.25252E-01    rms(broyden)= 0.25248E-01
  rms(prec ) = 0.31934E-01
  weight for this iteration     100.00

 eigenvalues of (default mixing * dielectric matrix)
  average eigenvalue GAMMA=   0.6879
  2.5092  1.2785  0.8221  0.8221  0.5437  0.1384  0.3924  0.2952  0.2952  0.2456
  0.2248

 Free energy of the ion-electron system (eV)
  ---------------------------------------------------
  alpha Z        PSCENC =       975.10247152
  Ewald energy   TEWEN  =     91034.15748843
  -Hartree energ DENC   =   -119737.59229012
  -exchange      EXHF   =         0.00000000
  -V(xc)+E(xc)   XCENC  =       178.06626700
  PAW double counting   =     30092.33192161   -29178.26147875
  entropy T*S    EENTRO =        -0.00611499
  eigenvalues    EBANDS =      -853.77522240
  atomic energy  EATOM  =     27259.89416086
  Solvation  Ediel_sol  =         0.00000000
  ---------------------------------------------------
  free energy    TOTEN  =      -230.08279683 eV

  energy without entropy =     -230.07668184  energy(sigma->0) =     -230.08075850


--------------------------------------------------------------------------------------------------------




--------------------------------------- Iteration      1(  17)  ---------------------------------------


    POTLOK:  cpu time    0.1279: real time    0.1287
    SETDIJ:  cpu time    0.0093: real time    0.0348
    EDDIAG:  cpu time    1.2846: real time    1.2938
  RMM-DIIS:  cpu time    4.0276: real time    4.0562
    ORTHCH:  cpu time    0.2151: real time    0.2166
       DOS:  cpu time    0.0010: real time    0.0010
    CHARGE:  cpu time    0.3767: real time    0.3793
    MIXING:  cpu time    0.0058: real time    0.0059
    --------------------------------------------
      LOOP:  cpu time    6.0480: real time    6.1163

 eigenvalue-minimisations  :  1822
 total energy-change (2. order) : 0.6342877E-03  (-0.1785373E-03)
 number of electron     376.0000020 magnetization 
 augmentation part      112.9700719 magnetization 

 Broyden mixing:
  rms(total) = 0.14848E-01    rms(broyden)= 0.14844E-01
  rms(prec ) = 0.17475E-01
  weight for this iteration     100.00

 eigenvalues of (default mixing * dielectric matrix)
  average eigenvalue GAMMA=   0.7374
  2.5718  1.2654  1.1311  1.1311  0.8086  0.4410  0.1384  0.3169  0.3169  0.2647
  0.2408  0.2220

 Free energy of the ion-electron system (eV)
  ---------------------------------------------------
  alpha Z        PSCENC =       975.10247152
  Ewald energy   TEWEN  =     91034.15748843
  -Hartree energ DENC   =   -119738.09759241
  -exchange      EXHF   =         0.00000000
  -V(xc)+E(xc)   XCENC  =       178.07165857
  PAW double counting   =     30093.66866117   -29179.58538904
  entropy T*S    EENTRO =        -0.00682608
  eigenvalues    EBANDS =      -853.28679558
  atomic energy  EATOM  =     27259.89416086
  Solvation  Ediel_sol  =         0.00000000
  ---------------------------------------------------
  free energy    TOTEN  =      -230.08216254 eV

  energy without entropy =     -230.07533646  energy(sigma->0) =     -230.07988718


--------------------------------------------------------------------------------------------------------




--------------------------------------- Iteration      1(  18)  ---------------------------------------


    POTLOK:  cpu time    0.1277: real time    0.1286
    SETDIJ:  cpu time    0.0096: real time    0.0097
    EDDIAG:  cpu time    1.2745: real time    1.2832
  RMM-DIIS:  cpu time    4.3397: real time    4.3723
    ORTHCH:  cpu time    0.2166: real time    0.2181
       DOS:  cpu time    0.0012: real time    0.0012
    CHARGE:  cpu time    0.3965: real time    0.3994
    MIXING:  cpu time    0.0063: real time    0.0063
    --------------------------------------------
      LOOP:  cpu time    6.3721: real time    6.4187

 eigenvalue-minimisations  :  1788
 total energy-change (2. order) :-0.3228423E-03  (-0.8708476E-04)
 number of electron     376.0000020 magnetization 
 augmentation part      112.9685194 magnetization 

 Broyden mixing:
  rms(total) = 0.12037E-01    rms(broyden)= 0.12036E-01
  rms(prec ) = 0.15409E-01
  weight for this iteration     100.00

 eigenvalues of (default mixing * dielectric matrix)
  average eigenvalue GAMMA=   0.7496
  2.5561  1.7172  1.3443  0.9053  0.9053  0.4518  0.1384  0.3527  0.3527  0.2979
  0.2653  0.2357  0.2218

 Free energy of the ion-electron system (eV)
  ---------------------------------------------------
  alpha Z        PSCENC =       975.10247152
  Ewald energy   TEWEN  =     91034.15748843
  -Hartree energ DENC   =   -119739.07503185
  -exchange      EXHF   =         0.00000000
  -V(xc)+E(xc)   XCENC  =       178.08009589
  PAW double counting   =     30095.33769657   -29181.20423656
  entropy T*S    EENTRO =        -0.00618098
  eigenvalues    EBANDS =      -852.36894927
  atomic energy  EATOM  =     27259.89416086
  Solvation  Ediel_sol  =         0.00000000
  ---------------------------------------------------
  free energy    TOTEN  =      -230.08248539 eV

  energy without entropy =     -230.07630440  energy(sigma->0) =     -230.08042506


--------------------------------------------------------------------------------------------------------




--------------------------------------- Iteration      1(  19)  ---------------------------------------


    POTLOK:  cpu time    0.1315: real time    0.1324
    SETDIJ:  cpu time    0.0095: real time    0.0096
    EDDIAG:  cpu time    1.3783: real time    1.3876
  RMM-DIIS:  cpu time    3.4367: real time    3.4626
    ORTHCH:  cpu time    0.2134: real time    0.2148
       DOS:  cpu time    0.0011: real time    0.0011
    --------------------------------------------
      LOOP:  cpu time    5.1706: real time    5.2080

 eigenvalue-minimisations  :  1348
 total energy-change (2. order) :-0.3100549E-04  (-0.4195148E-04)
 number of electron     376.0000020 magnetization 
 augmentation part      112.9685194 magnetization 

 Free energy of the ion-electron system (eV)
  ---------------------------------------------------
  alpha Z        PSCENC =       975.10247152
  Ewald energy   TEWEN  =     91034.15748843
  -Hartree energ DENC   =   -119740.20812421
  -exchange      EXHF   =         0.00000000
  -V(xc)+E(xc)   XCENC  =       178.08708183
  PAW double counting   =     30091.91032330   -29177.69284263
  entropy T*S    EENTRO =        -0.00670525
  eigenvalues    EBANDS =      -851.32637025
  atomic energy  EATOM  =     27259.89416086
  Solvation  Ediel_sol  =         0.00000000
  ---------------------------------------------------
  free energy    TOTEN  =      -230.08251639 eV

  energy without entropy =     -230.07581114  energy(sigma->0) =     -230.08028131


--------------------------------------------------------------------------------------------------------




 average (electrostatic) potential at core
  the test charge radii are     0.6991  0.7215  1.2059
  (the norm of the test charge is              1.0000)
       1 -56.3341       2 -74.5956       3 -76.2570       4 -72.3196       5 -72.3129
       6 -72.3037       7 -72.3133       8 -72.3191       9 -72.3367      10 -72.2979
      11 -72.3292      12 -72.3289      13 -72.9300      14 -73.0502      15 -72.9497
      16 -72.9611      17 -73.0113      18 -72.9994      19 -72.9451      20 -72.9782
      21 -72.9393      22 -72.9494      23 -72.9920      24 -72.9591      25 -73.0121
      26 -72.9940      27 -73.0581      28 -72.9977      29 -72.9302      30 -72.9053
      31 -72.3757      32 -72.5087      33 -72.4465      34 -72.5539      35 -72.3931
      36 -73.2314      37 -72.6120      38 -73.0378      39 -72.3543
 
 
 
 E-fermi :   1.0919     XC(G=0):  -6.6219     alpha+bet : -6.8913


 k-point     1 :       0.0000    0.0000    0.0000
  band No.  band energies     occupation 
      1     -22.1343      2.00000
      2     -16.7392      2.00000
      3      -8.4513      2.00000
      4      -8.0997      2.00000
      5      -6.8461      2.00000
      6      -5.9297      2.00000
      7      -5.8375      2.00000
      8      -5.7361      2.00000
      9      -5.7008      2.00000
     10      -5.6617      2.00000
     11      -5.6470      2.00000
     12      -5.6042      2.00000
     13      -5.5698      2.00000
     14      -5.5423      2.00000
     15      -5.3849      2.00000
     16      -5.2097      2.00000
     17      -5.1261      2.00000
     18      -5.1110      2.00000
     19      -5.0688      2.00000
     20      -5.0423      2.00000
     21      -4.9928      2.00000
     22      -4.9809      2.00000
     23      -4.6612      2.00000
     24      -4.6225      2.00000
     25      -4.5750      2.00000
     26      -4.5504      2.00000
     27      -4.5283      2.00000
     28      -4.5081      2.00000
     29      -4.4115      2.00000
     30      -4.3751      2.00000
     31      -4.3587      2.00000
     32      -4.3314      2.00000
     33      -4.3158      2.00000
     34      -4.2488      2.00000
     35      -4.1587      2.00000
     36      -4.1337      2.00000
     37      -4.1300      2.00000
     38      -4.0927      2.00000
     39      -4.0859      2.00000
     40      -4.0799      2.00000
     41      -4.0671      2.00000
     42      -4.0435      2.00000
     43      -4.0299      2.00000
     44      -4.0175      2.00000
     45      -3.9807      2.00000
     46      -3.9452      2.00000
     47      -3.5723      2.00000
     48      -3.5446      2.00000
     49      -3.4985      2.00000
     50      -3.4431      2.00000
     51      -3.4282      2.00000
     52      -3.4212      2.00000
     53      -3.4111      2.00000
     54      -3.4012      2.00000
     55      -3.3751      2.00000
     56      -3.3472      2.00000
     57      -3.3023      2.00000
     58      -3.2047      2.00000
     59      -3.1791      2.00000
     60      -3.1337      2.00000
     61      -2.9685      2.00000
     62      -2.8790      2.00000
     63      -2.7878      2.00000
     64      -2.6486      2.00000
     65      -2.5989      2.00000
     66      -2.5789      2.00000
     67      -2.5633      2.00000
     68      -2.5331      2.00000
     69      -2.5205      2.00000
     70      -2.4587      2.00000
     71      -2.4511      2.00000
     72      -2.4190      2.00000
     73      -2.4079      2.00000
     74      -2.3976      2.00000
     75      -2.3723      2.00000
     76      -2.3703      2.00000
     77      -2.3438      2.00000
     78      -2.3339      2.00000
     79      -2.3268      2.00000
     80      -2.3135      2.00000
     81      -2.2922      2.00000
     82      -2.2803      2.00000
     83      -2.2745      2.00000
     84      -2.2500      2.00000
     85      -2.2377      2.00000
     86      -2.1663      2.00000
     87      -2.1396      2.00000
     88      -2.1317      2.00000
     89      -2.0779      2.00000
     90      -2.0652      2.00000
     91      -2.0329      2.00000
     92      -1.9971      2.00000
     93      -1.9888      2.00000
     94      -1.9402      2.00000
     95      -1.9243      2.00000
     96      -1.9122      2.00000
     97      -1.8925      2.00000
     98      -1.8473      2.00000
     99      -1.7987      2.00000
    100      -1.7435      2.00000
    101      -1.6613      2.00000
    102      -1.6316      2.00000
    103      -1.6227      2.00000
    104      -1.5926      2.00000
    105      -1.5747      2.00000
    106      -1.5514      2.00000
    107      -1.5437      2.00000
    108      -1.5299      2.00000
    109      -1.5046      2.00000
    110      -1.4906      2.00000
    111      -1.4861      2.00000
    112      -1.4653      2.00000
    113      -1.4581      2.00000
    114      -1.3174      2.00000
    115      -1.2573      2.00000
    116      -1.1535      2.00000
    117      -1.1404      2.00000
    118      -1.0855      2.00000
    119      -1.0720      2.00000
    120      -1.0237      2.00000
    121      -1.0142      2.00000
    122      -0.9733      2.00000
    123      -0.9242      2.00000
    124      -0.9215      2.00000
    125      -0.8751      2.00000
    126      -0.8398      2.00000
    127      -0.8053      2.00000
    128      -0.7846      2.00000
    129      -0.7089      2.00000
    130      -0.6865      2.00000
    131      -0.6750      2.00000
    132      -0.6518      2.00000
    133      -0.6355      2.00000
    134      -0.5905      2.00000
    135      -0.5161      2.00000
    136      -0.4698      2.00000
    137      -0.4038      2.00000
    138      -0.3770      2.00000
    139      -0.3591      2.00000
    140      -0.3342      2.00000
    141      -0.2677      2.00000
    142      -0.2472      2.00000
    143      -0.2189      2.00000
    144      -0.1857      2.00000
    145      -0.1485      2.00000
    146      -0.1277      2.00000
    147      -0.1205      2.00000
    148      -0.0741      2.00000
    149      -0.0135      2.00000
    150       0.0342      2.00000
    151       0.0512      2.00000
    152       0.0998      2.00000
    153       0.1285      2.00000
    154       0.1333      2.00000
    155       0.1441      2.00000
    156       0.1921      2.00000
    157       0.2193      2.00000
    158       0.2285      2.00000
    159       0.2655      2.00000
    160       0.2906      2.00000
    161       0.3093      2.00000
    162       0.3160      2.00000
    163       0.3293      2.00000
    164       0.3552      2.00000
    165       0.3909      2.00001
    166       0.3941      2.00001
    167       0.4211      2.00002
    168       0.4523      2.00006
    169       0.4782      2.00013
    170       0.4866      2.00016
    171       0.5093      2.00030
    172       0.5489      2.00084
    173       0.5733      2.00151
    174       0.6052      2.00310
    175       0.6483      2.00743
    176       0.6610      2.00939
    177       0.6696      2.01096
    178       0.6849      2.01425
    179       0.6888      2.01519
    180       0.7113      2.02159
    181       0.7310      2.02850
    182       0.7535      2.03779
    183       0.7803      2.05000
    184       0.7972      2.05760
    185       0.8126      2.06379
    186       0.8237      2.06738
    187       0.8258      2.06794
    188       0.8403      2.07059
    189       0.8461      2.07091
    190       0.8474      2.07091
    191       0.8573      2.07004
    192       0.8590      2.06972
    193       0.8632      2.06865
    194       0.8875      2.05451
    195       0.9316      1.98090
    196       1.0913      1.00537
    197       1.1024      0.91135
    198       1.1779      0.34187
    199       1.1947      0.24489
    200       1.2060      0.18757
    201       1.2309      0.08397
    202       1.2445      0.04017
    203       1.2499      0.02508
    204       1.4205     -0.04219
    205       1.4545     -0.02790
    206       1.9625     -0.00000
    207       2.0153     -0.00000
    208       2.0512     -0.00000
    209       2.0687     -0.00000
    210       2.2125     -0.00000
    211       2.4692     -0.00000
    212       3.5293     -0.00000
    213       3.9702     -0.00000
    214       4.3200     -0.00000
    215       4.3767     -0.00000
    216       4.4186     -0.00000
    217       4.5722     -0.00000
    218       4.8255     -0.00000
    219       5.3631     -0.00000
    220       5.7297     -0.00000
    221       5.8470     -0.00000
    222       5.8644     -0.00000
    223       5.9013     -0.00000
    224       5.9343     -0.00000
    225       5.9770     -0.00000
    226       6.1064     -0.00000
    227       6.5542      0.00000
    228       6.8102      0.00000

 k-point     2 :       0.5000    0.0000    0.0000
  band No.  band energies     occupation 
      1     -22.1342      2.00000
      2     -16.7389      2.00000
      3      -8.4247      2.00000
      4      -7.2568      2.00000
      5      -7.2381      2.00000
      6      -6.0970      2.00000
      7      -6.0292      2.00000
      8      -5.8915      2.00000
      9      -5.8263      2.00000
     10      -5.6640      2.00000
     11      -5.5136      2.00000
     12      -5.4151      2.00000
     13      -5.2596      2.00000
     14      -5.2426      2.00000
     15      -4.9728      2.00000
     16      -4.9462      2.00000
     17      -4.8770      2.00000
     18      -4.8698      2.00000
     19      -4.8471      2.00000
     20      -4.8394      2.00000
     21      -4.8164      2.00000
     22      -4.8015      2.00000
     23      -4.7698      2.00000
     24      -4.7505      2.00000
     25      -4.7237      2.00000
     26      -4.7038      2.00000
     27      -4.6943      2.00000
     28      -4.6628      2.00000
     29      -4.6317      2.00000
     30      -4.5349      2.00000
     31      -4.3621      2.00000
     32      -4.3501      2.00000
     33      -4.3267      2.00000
     34      -4.2994      2.00000
     35      -4.2773      2.00000
     36      -4.1002      2.00000
     37      -4.0701      2.00000
     38      -4.0347      2.00000
     39      -4.0225      2.00000
     40      -4.0025      2.00000
     41      -3.9535      2.00000
     42      -3.9259      2.00000
     43      -3.8707      2.00000
     44      -3.8155      2.00000
     45      -3.7796      2.00000
     46      -3.7076      2.00000
     47      -3.6913      2.00000
     48      -3.6768      2.00000
     49      -3.6336      2.00000
     50      -3.5948      2.00000
     51      -3.4908      2.00000
     52      -3.4384      2.00000
     53      -3.3958      2.00000
     54      -3.3830      2.00000
     55      -3.3773      2.00000
     56      -3.3370      2.00000
     57      -3.2493      2.00000
     58      -3.2066      2.00000
     59      -3.1576      2.00000
     60      -3.1495      2.00000
     61      -3.0771      2.00000
     62      -3.0592      2.00000
     63      -3.0215      2.00000
     64      -2.9845      2.00000
     65      -2.9591      2.00000
     66      -2.9339      2.00000
     67      -2.9228      2.00000
     68      -2.8599      2.00000
     69      -2.8351      2.00000
     70      -2.7948      2.00000
[...]
     83      -2.2909      2.00000
     84      -2.2547      2.00000
     85      -2.2421      2.00000
     86      -2.2043      2.00000
     87      -2.1827      2.00000
     88      -2.1754      2.00000
     89      -2.1655      2.00000
     90      -2.1456      2.00000
     91      -2.1257      2.00000
     92      -2.0969      2.00000
     93      -2.0623      2.00000
     94      -2.0086      2.00000
     95      -1.9703      2.00000
     96      -1.9416      2.00000
     97      -1.9145      2.00000
     98      -1.8796      2.00000
     99      -1.8578      2.00000
    100      -1.8220      2.00000
    101      -1.7590      2.00000
    102      -1.7510      2.00000
    103      -1.7286      2.00000
    104      -1.7145      2.00000
    105      -1.7083      2.00000
    106      -1.6664      2.00000
    107      -1.6371      2.00000
    108      -1.6188      2.00000
    109      -1.5972      2.00000
    110      -1.5484      2.00000
    111      -1.5253      2.00000
    112      -1.4749      2.00000
    113      -1.4212      2.00000
    114      -1.3829      2.00000
    115      -1.2979      2.00000
    116      -1.2871      2.00000
    117      -1.2250      2.00000
    118      -1.1817      2.00000
    119      -1.1294      2.00000
    120      -1.0966      2.00000
    121      -1.0715      2.00000
    122      -1.0525      2.00000
    123      -1.0318      2.00000
    124      -1.0155      2.00000
    125      -0.9945      2.00000
    126      -0.9775      2.00000
    127      -0.9526      2.00000
    128      -0.9434      2.00000
    129      -0.9220      2.00000
    130      -0.8793      2.00000
    131      -0.8587      2.00000
    132      -0.8266      2.00000
    133      -0.7821      2.00000
    134      -0.7542      2.00000
    135      -0.7189      2.00000
    136      -0.7046      2.00000
    137      -0.6856      2.00000
    138      -0.6474      2.00000
    139      -0.5911      2.00000
    140      -0.5612      2.00000
    141      -0.4986      2.00000
    142      -0.4816      2.00000
    143      -0.4049      2.00000
    144      -0.2800      2.00000
    145      -0.2493      2.00000
    146      -0.1782      2.00000
    147      -0.1499      2.00000
    148      -0.1377      2.00000
    149      -0.1084      2.00000
    150      -0.0413      2.00000
    151      -0.0341      2.00000
    152       0.0455      2.00000
    153       0.0484      2.00000
    154       0.0872      2.00000
    155       0.0997      2.00000
    156       0.1041      2.00000
    157       0.1278      2.00000
    158       0.1588      2.00000
    159       0.1991      2.00000
    160       0.2170      2.00000
    161       0.2601      2.00000
    162       0.2840      2.00000
    163       0.3232      2.00000
    164       0.3477      2.00000
    165       0.3632      2.00000
    166       0.4013      2.00001
    167       0.5255      2.00046
    168       0.5590      2.00108
    169       0.5875      2.00210
    170       0.6173      2.00402
    171       0.6380      2.00610
    172       0.6621      2.00961
    173       0.6976      2.01755
    174       0.7776      2.04881
    175       0.7887      2.05389
    176       0.7997      2.05875
    177       0.8280      2.06851
    178       0.8726      2.06487
    179       0.9051      2.03355
    180       0.9162      2.01488
    181       0.9420      1.95171
    182       1.0054      1.66073
    183       1.0294      1.50091
    184       1.0874      1.03741
    185       1.0948      0.97448
    186       1.1110      0.83835
    187       1.1279      0.70007
    188       1.1400      0.60498
    189       1.1631      0.43734
    190       1.1710      0.38442
    191       1.3102     -0.06445
    192       1.3307     -0.07062
    193       1.3696     -0.06432
    194       1.3814     -0.05978
    195       1.4142     -0.04504
    196       1.4693     -0.02260
    197       1.5826     -0.00284
    198       1.7083     -0.00012
    199       1.8183     -0.00000
    200       1.9852     -0.00000
    201       2.2494     -0.00000
    202       2.3051     -0.00000
    203       2.7765     -0.00000
    204       2.9228     -0.00000
    205       2.9602     -0.00000
    206       2.9873     -0.00000
    207       3.0024     -0.00000
    208       3.2004     -0.00000
    209       3.3870     -0.00000
    210       3.5157     -0.00000
    211       3.5526     -0.00000
    212       3.6150     -0.00000
    213       3.7244     -0.00000
    214       3.8336     -0.00000
    215       3.9293     -0.00000
    216       4.1608     -0.00000
    217       4.2134     -0.00000
    218       4.3973     -0.00000
    219       4.4230     -0.00000
    220       4.6092     -0.00000
    221       4.6655     -0.00000
    222       4.8019     -0.00000
    223       5.0803     -0.00000
    224       5.4357     -0.00000
    225       6.0294     -0.00000
    226       6.4927     -0.00000
    227       6.5467     -0.00000
    228       6.6188      0.00000


--------------------------------------------------------------------------------------------------------


 soft charge-density along one line, spin component           1
         0         1         2         3         4         5         6         7         8         9
 total charge-density along one line
 
 pseudopotential strength for first ion, spin component:           1
 10.096   0.015   0.004   0.011  -0.000  -0.003  -0.010   0.000
  0.015  -0.002  -0.000  -0.000  -0.000  -0.000  -0.000   0.000
  0.004  -0.000  -4.249  -0.006   0.001  -0.009  -0.002   0.000
  0.011  -0.000  -0.006  -4.263   0.005  -0.002  -0.015   0.001
 -0.000  -0.000   0.001   0.005  -4.247   0.000   0.001  -0.009
 -0.003  -0.000  -0.009  -0.002   0.000  -0.770  -0.000   0.000
 -0.010  -0.000  -0.002  -0.015   0.001  -0.000  -0.770   0.000
  0.000   0.000   0.000   0.001  -0.009   0.000   0.000  -0.770
 total augmentation occupancy for first ion, spin component:           1
  1.623  -0.839   0.021   0.020  -0.063   0.032   0.089  -0.027
 -0.839   1.207  -0.192  -0.568   0.108  -0.077  -0.231   0.040
  0.021  -0.192   0.833   0.176  -0.004   0.111   0.051  -0.008
  0.020  -0.568   0.176   1.309  -0.026   0.051   0.242  -0.016
 -0.063   0.108  -0.004  -0.026   0.790  -0.008  -0.017   0.099
  0.032  -0.077   0.111   0.051  -0.008   0.019   0.020  -0.004
  0.089  -0.231   0.051   0.242  -0.017   0.020   0.069  -0.009
 -0.027   0.040  -0.008  -0.016   0.099  -0.004  -0.009   0.014


------------------------ aborting loop because EDIFF is reached ----------------------------------------


    CHARGE:  cpu time    0.3940: real time    0.3967
    FORLOC:  cpu time    0.0430: real time    0.0432
    FORNL :  cpu time    2.1939: real time    2.2102
    STRESS:  cpu time    6.6393: real time    6.6881
    FORCOR:  cpu time    0.1588: real time    0.1598
    FORHAR:  cpu time    0.0737: real time    0.0742
    MIXING:  cpu time    0.0051: real time    0.0051
    OFIELD:  cpu time    0.0001: real time    0.0001

  FORCE on cell =-STRESS in cart. coord.  units (eV):
  Direction    XX          YY          ZZ          XY          YZ          ZX
  --------------------------------------------------------------------------------------
  Alpha Z   975.10247   975.10247   975.10247
  Ewald  110741.26101110725.44554************  -212.53997   252.07388   -86.87891
  Hartree117496.34752117464.51407************  -137.83145   110.16185   -49.17542
  E(xc)   -1665.58346 -1665.46303 -1673.00447    -0.50243     0.77694    -0.22404
  Local  ************************238861.33596   339.41416  -338.16294   129.69991
  n-local   122.74727   121.20254    86.62424    -0.49123     0.47374     0.82445
  augment  1894.50368  1894.08085  1933.62360     2.44704    -4.43021     0.39625
  Kinetic  5520.16434  5515.07063  5601.64407    10.60918   -21.77801     6.91047
  Fock        0.00000     0.00000     0.00000     0.00000     0.00000     0.00000
  -------------------------------------------------------------------------------------
  Total     -37.26847   -39.35663    -5.21644     1.10530    -0.88477     1.55271
  in kB     -44.38737   -46.87440    -6.21286     1.31643    -1.05378     1.84931
  external pressure =      -32.49 kB  Pullay stress =        0.00 kB


 VOLUME and BASIS-vectors are now :
 -----------------------------------------------------------------------------
  energy-cutoff  :      450.00
  volume of cell :     1345.22
      direct lattice vectors                 reciprocal lattice vectors
     7.296955120 -4.212899000  0.000000000     0.137043463  0.000000000  0.000000000
     0.000000000  8.425798000  0.000000000     0.068521732  0.118683121  0.000000000
     0.000000000  0.000000000 21.879635000     0.000000000  0.000000000  0.045704602

  length of vectors
     8.425798004  8.425798000 21.879635000     0.137043463  0.137043463  0.045704602


 FORCES acting on ions
    electron-ion (+dipol)            ewald-force                    non-local-force                 convergence-correction
 -----------------------------------------------------------------------------------------------
   0.859E+01 0.754E+01 -.871E+03   -.914E+01 -.120E+02 0.858E+03   0.558E+00 0.284E+01 0.107E+02   -.188E-01 0.289E-01 0.561E-01
   -.919E+02 0.531E+02 -.158E+04   0.956E+02 -.511E+02 0.160E+04   -.319E+01 -.164E+01 -.220E+02   -.600E-02 0.172E-01 0.416E-01
   0.662E+02 -.102E+03 -.153E+04   -.765E+02 0.122E+03 0.159E+04   0.105E+02 -.197E+02 -.577E+02   -.444E-02 0.107E-02 0.645E-02
   -.922E+00 0.199E+00 0.234E+04   0.885E+00 -.164E+00 -.234E+04   0.818E-02 -.451E-01 -.121E+01   0.582E-01 -.356E-01 0.283E-01
   0.530E+00 -.765E+00 0.234E+04   -.536E+00 0.645E+00 -.234E+04   -.305E-02 -.170E-01 -.111E+01   -.303E-01 0.815E-01 0.460E-01
   -.405E+00 -.733E+00 0.234E+04   0.339E+00 0.735E+00 -.234E+04   0.273E-01 -.176E-01 -.114E+01   0.324E-02 0.810E-02 -.692E-03
   -.309E+00 -.460E+00 0.234E+04   0.299E+00 0.444E+00 -.233E+04   0.150E-02 0.380E-01 -.115E+01   0.162E-01 -.204E-01 -.909E-02
   0.837E-01 0.164E+00 0.234E+04   -.122E+00 -.108E+00 -.233E+04   0.571E-02 0.190E-01 -.125E+01   0.228E-01 -.641E-01 0.338E-01
   -.243E+00 -.604E+00 0.234E+04   0.304E+00 0.486E+00 -.233E+04   0.102E-01 0.327E-01 -.121E+01   -.562E-01 0.546E-01 0.241E-01
   0.115E+01 0.430E+00 0.234E+04   -.101E+01 -.535E+00 -.234E+04   -.927E-01 0.904E-01 -.107E+01   -.224E-02 -.175E-01 -.376E-03
   -.116E+00 0.134E+01 0.234E+04   0.966E-01 -.122E+01 -.234E+04   0.444E-02 -.238E-01 -.127E+01   0.129E-01 -.628E-01 0.151E-01
   0.354E+00 0.260E+00 0.234E+04   -.263E+00 -.280E+00 -.233E+04   -.304E-01 0.367E-03 -.105E+01   -.243E-01 0.559E-01 0.204E-01
   0.780E+01 -.276E+01 0.857E+03   -.795E+01 0.262E+01 -.857E+03   -.182E-01 0.104E+00 -.502E+00   -.213E-01 0.102E+00 0.591E-01
   0.501E+01 0.619E+01 0.866E+03   -.516E+01 -.619E+01 -.866E+03   0.808E-02 -.622E-02 -.444E+00   0.639E-02 -.294E-01 0.265E-01
   -.437E+01 0.774E+01 0.856E+03   0.444E+01 -.786E+01 -.856E+03   0.196E-02 -.107E-01 -.204E+00   0.467E-01 -.180E-01 0.273E-01
   0.521E+00 -.317E+00 0.855E+03   -.610E+00 0.332E+00 -.855E+03   -.313E-01 0.160E-01 -.128E+00   0.412E-01 -.319E-01 0.334E-01
   -.370E+01 -.898E+01 0.859E+03   0.376E+01 0.899E+01 -.859E+03   0.108E+00 0.889E-01 -.297E+00   -.792E-01 0.896E-01 0.537E-01
   -.767E+01 -.745E+01 0.862E+03   0.768E+01 0.751E+01 -.862E+03   0.599E-01 0.187E+00 -.308E+00   0.462E-01 -.435E-01 0.253E-01
   0.243E+01 0.265E+01 0.851E+03   -.240E+01 -.248E+01 -.851E+03   -.120E+00 -.814E-01 -.892E-01   0.298E-01 -.699E-01 0.199E-01
   -.132E+01 0.259E+01 0.855E+03   0.139E+01 -.253E+01 -.855E+03   0.775E-02 0.341E-01 -.222E+00   -.242E-01 -.602E-01 0.186E-01
   0.274E+01 -.138E+01 0.853E+03   -.265E+01 0.148E+01 -.852E+03   -.741E-01 -.229E-01 -.118E+00   -.456E-01 0.613E-01 0.421E-01
   -.670E+01 -.506E+00 -.645E+03   0.658E+01 0.432E+00 0.645E+03   0.112E+00 0.231E+00 -.193E+00   0.546E-01 -.626E-01 0.127E-01
   0.115E+02 -.159E+01 -.635E+03   -.115E+02 0.166E+01 0.635E+03   -.350E+00 0.115E+00 -.101E+00   0.161E-01 -.762E-01 0.262E-01
   -.530E+01 0.661E+01 -.614E+03   0.506E+01 -.609E+01 0.613E+03   0.279E+00 -.670E+00 0.115E+01   0.371E-01 -.381E-01 -.535E-02
   -.313E+01 0.446E+01 -.653E+03   0.270E+01 -.368E+01 0.653E+03   0.343E+00 -.562E+00 -.830E+00   0.408E-01 -.108E-01 -.840E-02
   0.775E+01 0.361E+01 -.610E+03   -.723E+01 -.367E+01 0.609E+03   -.369E+00 -.228E+00 0.974E+00   -.562E-01 0.908E-01 0.683E-02
   -.110E+02 -.208E+01 -.621E+03   0.109E+02 0.193E+01 0.620E+03   0.337E+00 -.211E+00 -.373E-01   -.321E-01 0.694E-01 0.588E-01
   0.358E+00 0.640E+01 -.645E+03   -.419E+00 -.638E+01 0.644E+03   0.129E+00 -.297E+00 -.436E+00   0.267E-02 -.144E-01 0.368E-01
   -.614E+01 0.931E-01 -.636E+03   0.611E+01 -.855E-01 0.636E+03   0.279E+00 -.160E+00 0.236E+00   -.257E-01 -.108E-01 -.131E-01
   0.103E+02 -.838E+01 -.639E+03   -.102E+02 0.812E+01 0.639E+03   -.337E+00 0.321E+00 -.225E+00   -.329E-01 0.584E-01 0.481E-01
   -.276E+02 -.518E+01 -.216E+04   0.279E+02 0.535E+01 0.216E+04   -.244E+00 -.167E+00 0.158E+01   0.275E-01 -.356E-01 -.183E-01
   0.175E+02 0.402E+02 -.212E+04   -.180E+02 -.404E+02 0.212E+04   0.516E+00 0.200E+00 0.165E+01   0.964E-02 -.643E-01 -.242E-02
   0.437E+02 -.163E+02 -.213E+04   -.437E+02 0.161E+02 0.213E+04   -.378E+00 0.496E+00 0.109E+01   -.196E-02 0.163E-01 -.304E-01
   -.656E+01 0.715E+01 -.217E+04   0.644E+01 -.722E+01 0.217E+04   0.196E+00 -.113E+00 0.144E+01   -.738E-02 -.351E-02 -.310E-01
   0.196E+02 0.154E+02 -.217E+04   -.196E+02 -.157E+02 0.217E+04   0.218E-01 0.264E+00 0.836E+00   -.347E-01 0.184E-01 0.169E-01
   0.694E+02 0.563E+02 -.198E+04   -.724E+02 -.548E+02 0.198E+04   0.287E+01 -.101E+01 -.215E+01   -.289E-01 0.351E-01 -.499E-02
   -.542E+02 -.460E+02 -.206E+04   0.555E+02 0.481E+02 0.206E+04   -.131E+01 -.218E+01 0.279E+01   -.327E-02 0.508E-01 -.753E-02
   -.709E+02 0.878E+02 -.206E+04   0.712E+02 -.885E+02 0.206E+04   -.304E+00 0.993E+00 -.543E+00   0.448E-01 -.561E-01 -.320E-01
   0.178E+02 -.833E+02 -.213E+04   -.178E+02 0.841E+02 0.213E+04   -.146E+00 -.329E+00 0.121E+01   -.514E-02 0.155E-01 -.128E-01
 -----------------------------------------------------------------------------------------------
   -.928E+01 0.216E+02 0.728E+02   -.121E-12 -.568E-13 0.682E-11   0.938E+01 -.215E+02 -.734E+02   -.240E-01 0.292E-01 0.608E+00
 
 
 POSITION                                       TOTAL-FORCE (eV/Angst)
 -----------------------------------------------------------------------------------
      5.09236      0.65280     10.45388        -0.019102     -1.562269     -1.685185
      6.59092     -0.51977     10.22788         0.449054      0.298462      0.101001
      4.90574      1.02591     11.53319         0.113189      0.331286      0.585390
      7.20031     -1.38846      1.62732         0.027074     -0.050027      0.113572
      2.33567      1.42014      1.62732        -0.041210     -0.059687      0.112948
      4.76799      0.01584      1.62732        -0.036700     -0.011365      0.081306
      7.20031      1.42015      1.62732         0.005038     -0.002154      0.142955
      2.33567      4.22875      1.62732        -0.012012      0.007008      0.136289
      4.76799      2.82445      1.62732         0.012687     -0.034996      0.189772
      2.33567      7.03734      1.62732         0.047958     -0.036611      0.052313
      4.76799      5.63304      1.62732        -0.003524      0.038602      0.115296
      7.20031      4.22874      1.62732         0.034229      0.031839      0.101769
      1.52490      0.01584      3.92052        -0.191969      0.062218     -0.108616
      3.95722     -1.38846      3.92052        -0.141583     -0.033985     -0.304152
      6.38953     -2.79276      3.92052         0.115653     -0.147749     -0.051801
      1.52490      2.82445      3.92052        -0.080700     -0.005191      0.106827
      3.95722      1.42015      3.92052         0.086167      0.185213     -0.017673
      6.38953      0.01585      3.92052         0.113060      0.192890     -0.016722
      1.52490      5.63305      3.92052        -0.067200      0.020983      0.121105
      3.95722      4.22874      3.92052         0.047644      0.030645      0.068314
      6.38953      2.82445      3.92052        -0.025601      0.127634      0.038241
      0.70377      4.20566      6.24419         0.040683      0.090835     -0.467094
      3.14479      5.63734      6.21476        -0.337835      0.107478     -0.454040
      5.55548     -1.34309      6.14697         0.069891     -0.189600      0.769207
      0.68504      1.45294      6.25213        -0.045083      0.200949     -0.196704
      3.14104      0.03931      6.15071         0.091333     -0.197855      0.585843
      0.69394      7.06840      6.20534         0.219980     -0.289973     -0.418674
      5.55509      4.24866      6.24259         0.068350     -0.287028     -0.678613
      3.12974      2.83403      6.21132         0.217753     -0.167386     -0.063025
      5.59223      1.41687      6.24199        -0.310232      0.115813     -0.453188
      2.34468      4.20464      8.47524         0.147332     -0.037912      0.111443
      4.73565      5.63271      8.42821         0.052972     -0.060678      0.362207
      2.37042      1.35528      8.49085        -0.383122      0.286725     -0.158748
      7.18673      4.22077      8.46592         0.067603     -0.187907      0.453733
      2.32410      7.01624      8.50145         0.002747     -0.005361     -0.112254
      4.68954      0.00893      8.62750        -0.175297      0.531231      0.454956
      7.25541      1.44874      8.42414        -0.017685     -0.031162      0.478503
      7.22426     -1.49726      8.62626        -0.042309      0.269655      0.212938
      4.78621      2.79446      8.53897        -0.099234      0.469430     -0.309437
 -----------------------------------------------------------------------------------
    total drift:                                0.075344      0.151050      0.037942
  FORCES: max atom, RMS     2.298021    0.527279
  Number: max atom                 1
  FORCE total and by dimension    3.292855    1.685185


--------------------------------------------------------------------------------------------------------



  FREE ENERGIE OF THE ION-ELECTRON SYSTEM (eV)
  ---------------------------------------------------
  free  energy   TOTEN  =      -230.41404647 eV

  energy  without entropy=     -230.40399930  energy(sigma->0) =     -230.41069741
 
 d Force = 0.9214522E-01[ 0.175E-01, 0.167E+00]  d Energy = 0.9652184E-01-0.438E-02
 d Force =-0.2361643E+01[-0.280E+01,-0.192E+01]  d Ewald  =-0.2356400E+01-0.524E-02


--------------------------------------------------------------------------------------------------------


    POTLOK:  cpu time    0.1464: real time    0.2206


--------------------------------------------------------------------------------------------------------


 stress matrix after NEB project (eV)
    -37.26847      1.10530      1.55271
      1.10530    -39.35663     -0.88477
      1.55271     -0.88477     -5.21644
  FORCES: max atom, RMS     2.298021    0.527279
  FORCE total and by dimension    3.292855    1.685185
  Stress total and by dimension   54.533707   39.356628
 Quasi-Newton relaxation of ions (Broydens 2nd method)
  g(Force)  = 0.209E+00   g(Stress)= 0.000E+00

 retain information from N=  2 steps
 eigenvalues of (default step * inverse Hessian matrix)
  average eigenvalue of G=   2.4412
 eigenvalue spectrum of G is  0.4037  4.4787
  RESET_HESSIAN           0


--------------------------------------------------------------------------------------------------------


    WAVPRE:  cpu time    0.0671: real time    0.1947
    FEWALD:  cpu time    0.0013: real time    0.0013

 real space projection operators:
  total allocation   :      13551.48 KBytes
  max/ min on nodes  :       6782.91       6768.58

    ORTHCH:  cpu time    0.9550: real time    0.9618
     LOOP+:  cpu time   66.1563: real time   66.9233
