 running on    8 total cores
 distrk:  each k-point on    8 cores,    1 groups
 distr:  one band on    2 cores,    4 groups
 using from now: INCAR     
 vasp.5.4.4 16052018 (build Apr 24 2014 20:13:14) complex standard
 Contain Constrained Minimization Technique (TS), Periodic NBO, VASPsol, libbeef, VASP2WANNIER90, Constrained Cell Relaxation
 POSCAR found type information on POSCAR  C  O  Pt
 POSCAR found :  3 types and      39 ions
 scaLAPACK will be used
 LDA part: xc-table for Pade appr. of Perdew
 POSCAR found type information on POSCAR  C  O  Pt
 POSCAR found :  3 types and      39 ions
 POSCAR, INCAR and KPOINTS ok, starting setup
 FFT: planning ...
 WAVECAR not read
 entering main loop
       N       E                     dE             d eps       ncg     rms          rms(c)
DAV:   1     0.242004405941E+04    0.24200E+04   -0.15950E+05  1824   0.129E+03
DAV:   2    -0.632728881100E+02   -0.24833E+04   -0.23042E+04  2112   0.286E+02
DAV:   3    -0.240439094814E+03   -0.17717E+03   -0.16043E+03  2168   0.690E+01
DAV:   4    -0.248042430595E+03   -0.76033E+01   -0.73259E+01  2320   0.137E+01
DAV:   5    -0.248281769162E+03   -0.23934E+00   -0.23668E+00  2536   0.246E+00    0.271E+01
RMM:   6    -0.245312538782E+03    0.29692E+01   -0.53357E+01  1832   0.147E+01    0.297E+01
RMM:   7    -0.246297009457E+03   -0.98447E+00   -0.31580E+01  1831   0.884E+00    0.225E+01
RMM:   8    -0.243941361260E+03    0.23556E+01   -0.10461E+01  1826   0.485E+00    0.232E+01
RMM:   9    -0.231932335602E+03    0.12009E+02   -0.63663E+00  1831   0.418E+00    0.909E+00
RMM:  10    -0.230578783725E+03    0.13536E+01   -0.18829E+00  1830   0.225E+00    0.499E+00
RMM:  11    -0.230307144624E+03    0.27164E+00   -0.45412E-01  1831   0.103E+00    0.335E+00
RMM:  12    -0.230128569242E+03    0.17858E+00   -0.20204E-01  1846   0.702E-01    0.178E+00
RMM:  13    -0.230144862532E+03   -0.16293E-01   -0.11970E-01  1831   0.568E-01    0.197E+00
RMM:  14    -0.230097179218E+03    0.47683E-01   -0.84774E-02  1832   0.498E-01    0.105E+00
RMM:  15    -0.230091195244E+03    0.59840E-02   -0.33381E-02  1831   0.316E-01    0.728E-01
RMM:  16    -0.230082796831E+03    0.83984E-02   -0.88595E-03  1830   0.161E-01    0.253E-01
RMM:  17    -0.230082162544E+03    0.63429E-03   -0.17854E-03  1822   0.711E-02    0.148E-01
RMM:  18    -0.230082485386E+03   -0.32284E-03   -0.87085E-04  1788   0.497E-02    0.120E-01
RMM:  19    -0.230082516391E+03   -0.31005E-04   -0.41951E-04  1348   0.362E-02
   1 F= -.23008252E+03 E0= -.23008028E+03  d E =-.230083E+03
 BRION: g(F)=  0.331E+00 g(S)=  0.000E+00
 bond charge predicted
       N       E                     dE             d eps       ncg     rms          rms(c)
DAV:   1    -0.230280771188E+03   -0.19829E+00   -0.29933E+01  1848   0.990E+00    0.824E-01
RMM:   2    -0.230369561009E+03   -0.88790E-01   -0.55324E-01  1834   0.158E+00    0.172E+00
RMM:   3    -0.230337269171E+03    0.32292E-01   -0.42169E-02  1862   0.352E-01    0.109E+00
RMM:   4    -0.230322222051E+03    0.15047E-01   -0.13860E-02  1840   0.200E-01    0.533E-01
RMM:   5    -0.230319560627E+03    0.26614E-02   -0.81728E-03  1835   0.151E-01    0.396E-01
RMM:   6    -0.230319953854E+03   -0.39323E-03   -0.95273E-03  1831   0.168E-01    0.390E-01
RMM:   7    -0.230317811831E+03    0.21420E-02   -0.37885E-03  1830   0.104E-01    0.150E-01
RMM:   8    -0.230317601420E+03    0.21041E-03   -0.91162E-04  1809   0.517E-02    0.101E-01
RMM:   9    -0.230317524629E+03    0.76792E-04   -0.24025E-04  1043   0.279E-02
   2 F= -.23031752E+03 E0= -.23031425E+03  d E =-.235008E+00
 BRION: g(F)=  0.347E+00 g(S)=  0.000E+00 retain N=  1 mean eig= 0.74
 eig:   0.744
 bond charge predicted
       N       E                     dE             d eps       ncg     rms          rms(c)
DAV:   1    -0.230392202396E+03   -0.74601E-01   -0.81848E+00  1824   0.538E+00    0.518E-01
RMM:   2    -0.230425442610E+03   -0.33240E-01   -0.32596E-01  1838   0.889E-01    0.656E-01
RMM:   3    -0.230421601692E+03    0.38409E-02   -0.12402E-02  1855   0.173E-01    0.634E-01
RMM:   4    -0.230416551002E+03    0.50507E-02   -0.36686E-03  1843   0.979E-02    0.341E-01
RMM:   5    -0.230416388854E+03    0.16215E-03   -0.61655E-03  1832   0.126E-01    0.374E-01
RMM:   6    -0.230414916364E+03    0.14725E-02   -0.41555E-03  1829   0.107E-01    0.230E-01
RMM:   7    -0.230414191969E+03    0.72439E-03   -0.13669E-03  1820   0.621E-02    0.101E-01
RMM:   8    -0.230414050771E+03    0.14120E-03   -0.24622E-04  1055   0.283E-02    0.472E-02
RMM:   9    -0.230414046470E+03    0.43014E-05   -0.86992E-05   975   0.189E-02
   3 F= -.23041405E+03 E0= -.23041070E+03  d E =-.965218E-01
 BRION: g(F)=  0.209E+00 g(S)=  0.000E+00 retain N=  2 mean eig= 2.44
 eig:   0.404  4.479
 bond charge predicted
       N       E                     dE             d eps       ncg     rms          rms(c)
[mpiexec@node06] Sending Ctrl-C to processes as requested
[mpiexec@node06] Press Ctrl-C again to force abort
Ctrl-C caught... cleaning up processes
