<?xml version="1.0" encoding="ISO-8859-1"?>
<modeling>
 <generator>
  <i name="program" type="string"> vasp </i>
  <i name="version" type="string">5.4.4  </i>
  <i name="subversion" type="string">16052018 (build Apr 24 2014 20:13:14) complex standard parallel Constrained Minimization Technique (TS), Periodic NBO, VASPsol, libbeef, VASP2WANNIER90, Constrained Cell Relaxation </i>
  <i name="platform" type="string">Center for Computational Chemistry </i>
  <i name="user" type="string">phu </i>
  <i name="host" type="string">node06 </i>
  <i name="date" type="string">2025 09 27 </i>
  <i name="time" type="string">23:44:29 </i>
 </generator>
 <incar>
  <i type="string" name="SYSTEM"> metal</i>
  <i type="int" name="ISTART">     0</i>
  <i type="string" name="PREC">normal</i>
  <i type="string" name="ALGO">Fast</i>
  <i type="int" name="NSIM">     4</i>
  <i type="int" name="ISPIN">     1</i>
  <i type="int" name="NELMIN">     8</i>
  <i type="int" name="IBRION">     1</i>
  <i name="EDIFFG">     -0.05000000</i>
  <i type="int" name="NSW">  5000</i>
  <i type="int" name="ISIF">     2</i>
  <i type="int" name="ISYM">     0</i>
  <i name="ENCUT">    450.00000000</i>
  <i name="POTIM">      0.20000000</i>
  <i type="string" name="LREAL">A</i>
  <i type="int" name="ISMEAR">     1</i>
  <i name="SIGMA">      0.20000000</i>
  <i type="logical" name="LWAVE"> F  </i>
  <i type="logical" name="LCHARG"> F  </i>
  <v type="int" name="KPOINT_BSE">    -1     0     0     0</v>
  <i type="int" name="VOSKOWN">     0</i>
 </incar>
 <structure name="primitive_cell" >
  <crystal>
   <varray name="basis" >
    <v>       7.29695512      -4.21289900       0.00000000 </v>
    <v>       0.00000000       8.42579800       0.00000000 </v>
    <v>       0.00000000       0.00000000      21.87963500 </v>
   </varray>
   <i name="volume">   1345.21837528 </i>
   <varray name="rec_basis" >
    <v>       0.13704346       0.00000000       0.00000000 </v>
    <v>       0.06852173       0.11868312       0.00000000 </v>
    <v>       0.00000000       0.00000000       0.04570460 </v>
   </varray>
  </crystal>
  <varray name="positions" >
   <v>      -0.30104377       0.43088526       0.47844456 </v>
   <v>      -0.32918032       0.45774114      -0.47166691 </v>
   <v>      -0.09831690       0.38813464       0.46742346 </v>
   <v>      -0.35687361       0.32051935       0.39335247 </v>
   <v>      -0.34348676      -0.34172217       0.39059456 </v>
   <v>      -0.00571722      -0.33077215       0.38400559 </v>
   <v>       0.32653140       0.32300858       0.38833153 </v>
   <v>      -0.00968034       0.31613154       0.39381033 </v>
   <v>       0.31843678      -0.00811517       0.38870788 </v>
   <v>      -0.35130415      -0.00714319       0.38439265 </v>
   <v>      -0.23164928      -0.44830898       0.28617926 </v>
   <v>      -0.01559076      -0.00598468       0.38593869 </v>
   <v>       0.43001395       0.22046149       0.28014905 </v>
   <v>      -0.23911363       0.22173190       0.27973864 </v>
   <v>       0.32054864      -0.34035350       0.38705544 </v>
   <v>       0.09610528      -0.45296249       0.28632390 </v>
   <v>       0.42765263      -0.44892516       0.28399013 </v>
   <v>      -0.23882952      -0.11348121       0.28666978 </v>
   <v>       0.09358829      -0.11299900       0.28455007 </v>
   <v>       0.43328070      -0.11507484       0.28498417 </v>
   <v>       0.09391815       0.21813032       0.28619706 </v>
   <v>      -0.45768900       0.43970300       0.17918600 </v>
   <v>      -0.12435600       0.43970300       0.17918600 </v>
   <v>      -0.45768900       0.10636900       0.17918600 </v>
   <v>      -0.12435600      -0.22696400       0.17918600 </v>
   <v>       0.20897700       0.10636900       0.17918600 </v>
   <v>      -0.12435600       0.10636900       0.17918600 </v>
   <v>      -0.45768900      -0.22696400       0.17918600 </v>
   <v>       0.20897700      -0.22696400       0.17918600 </v>
   <v>       0.20897700       0.43970300       0.17918600 </v>
   <v>      -0.34657800       0.32859100       0.07437600 </v>
   <v>      -0.34657800      -0.33807500       0.07437600 </v>
   <v>      -0.01324500      -0.33807500       0.07437600 </v>
   <v>       0.32008800       0.32859100       0.07437600 </v>
   <v>      -0.01324500       0.32859100       0.07437600 </v>
   <v>       0.32008800      -0.00474200       0.07437600 </v>
   <v>      -0.34657800      -0.00474200       0.07437600 </v>
   <v>      -0.01324500      -0.00474200       0.07437600 </v>
   <v>       0.32008800      -0.33807500       0.07437600 </v>
  </varray>
 </structure>
 <varray name="primitive_index" >
  <v type="int" >        1 </v>
  <v type="int" >        3 </v>
  <v type="int" >        2 </v>
  <v type="int" >       36 </v>
  <v type="int" >       39 </v>
  <v type="int" >       37 </v>
  <v type="int" >       33 </v>
  <v type="int" >       38 </v>
  <v type="int" >       35 </v>
  <v type="int" >       32 </v>
  <v type="int" >       30 </v>
  <v type="int" >       34 </v>
  <v type="int" >       26 </v>
  <v type="int" >       24 </v>
  <v type="int" >       31 </v>
  <v type="int" >       22 </v>
  <v type="int" >       29 </v>
  <v type="int" >       28 </v>
  <v type="int" >       27 </v>
  <v type="int" >       23 </v>
  <v type="int" >       25 </v>
  <v type="int" >       17 </v>
  <v type="int" >       18 </v>
  <v type="int" >       14 </v>
  <v type="int" >       21 </v>
  <v type="int" >       13 </v>
  <v type="int" >       15 </v>
  <v type="int" >       20 </v>
  <v type="int" >       19 </v>
  <v type="int" >       16 </v>
  <v type="int" >        6 </v>
  <v type="int" >        9 </v>
  <v type="int" >        7 </v>
  <v type="int" >        5 </v>
  <v type="int" >        4 </v>
  <v type="int" >       10 </v>
  <v type="int" >       11 </v>
  <v type="int" >       12 </v>
  <v type="int" >        8 </v>
 </varray>
 <kpoints>
  <generation param="Gamma">
   <v type="int" name="divisions">       2        2        1 </v>
   <v name="usershift">      0.00000000       0.00000000       0.00000000 </v>
   <v name="genvec1">      0.50000000       0.00000000       0.00000000 </v>
   <v name="genvec2">     -0.00000000       0.50000000       0.00000000 </v>
   <v name="genvec3">      0.00000000       0.00000000       1.00000000 </v>
   <v name="shift">      0.00000000       0.00000000       0.00000000 </v>
  </generation>
  <varray name="kpointlist" >
   <v>       0.00000000       0.00000000       0.00000000 </v>
   <v>       0.50000000       0.00000000       0.00000000 </v>
   <v>      -0.00000000       0.50000000       0.00000000 </v>
   <v>       0.50000000       0.50000000       0.00000000 </v>
  </varray>
  <varray name="weights" >
   <v>       0.25000000 </v>
   <v>       0.25000000 </v>
   <v>       0.25000000 </v>
   <v>       0.25000000 </v>
  </varray>
 </kpoints>
 <parameters>
  <separator name="general" >
   <i type="string" name="SYSTEM">metal</i>
   <i type="logical" name="LCOMPAT"> F  </i>
  </separator>
  <separator name="electronic" >
   <i type="string" name="PREC">normal</i>
   <i name="ENMAX">    450.00000000</i>
   <i name="ENAUG">    644.87300000</i>
   <i name="EDIFF">      0.00010000</i>
   <i type="int" name="IALGO">    68</i>
   <i type="int" name="IWAVPR">    11</i>
   <i type="int" name="NBANDS">   228</i>
   <i name="NELECT">    376.00000000</i>
   <i type="int" name="TURBO">     0</i>
   <i type="int" name="IRESTART">     0</i>
   <i type="int" name="NREBOOT">     0</i>
   <i type="int" name="NMIN">     0</i>
   <i name="EREF">      0.00000000</i>
   <separator name="electronic smearing" >
    <i type="int" name="ISMEAR">     1</i>
    <i name="SIGMA">      0.20000000</i>
    <i name="KSPACING">      0.50000000</i>
    <i type="logical" name="KGAMMA"> T  </i>
   </separator>
   <separator name="electronic projectors" >
    <i type="logical" name="LREAL"> T  </i>
    <v name="ROPT">     -0.00050000     -0.00050000     -0.00050000</v>
    <i type="int" name="LMAXPAW">  -100</i>
    <i type="int" name="LMAXMIX">     2</i>
    <i type="logical" name="NLSPLINE"> F  </i>
   </separator>
   <separator name="electronic startup" >
    <i type="int" name="ISTART">     0</i>
    <i type="int" name="ICHARG">     2</i>
    <i type="int" name="INIWAV">     1</i>
   </separator>
   <separator name="electronic spin" >
    <i type="int" name="ISPIN">     1</i>
    <i type="logical" name="LNONCOLLINEAR"> F  </i>
    <v name="MAGMOM">      1.00000000      1.00000000      1.00000000      1.00000000      1.00000000      1.00000000      1.00000000      1.00000000      1.00000000      1.00000000      1.00000000      1.00000000      1.00000000      1.00000000      1.00000000      1.00000000      1.00000000      1.00000000      1.00000000      1.00000000
      1.00000000      1.00000000      1.00000000      1.00000000      1.00000000      1.00000000      1.00000000      1.00000000      1.00000000      1.00000000      1.00000000      1.00000000      1.00000000      1.00000000      1.00000000      1.00000000      1.00000000      1.00000000      1.00000000</v>
    <i name="NUPDOWN">     -1.00000000</i>
    <i type="logical" name="LSORBIT"> F  </i>
    <v name="SAXIS">      0.00000000      0.00000000      1.00000000</v>
    <i type="logical" name="LSPIRAL"> F  </i>
    <v name="QSPIRAL">      0.00000000      0.00000000      0.00000000</v>
    <i type="logical" name="LZEROZ"> F  </i>
   </separator>
   <separator name="electronic exchange-correlation" >
    <i type="logical" name="LASPH"> F  </i>
    <i type="logical" name="LMETAGGA"> F  </i>
   </separator>
   <separator name="electronic convergence" >
    <i type="int" name="NELM">    60</i>
    <i type="int" name="NELMDL">    -5</i>
    <i type="int" name="NELMIN">     8</i>
    <i name="ENINI">    450.00000000</i>
    <separator name="electronic convergence detail" >
     <i type="logical" name="LDIAG"> T  </i>
     <i type="logical" name="LSUBROT"> F  </i>
     <i name="WEIMIN">      0.00100000</i>
     <i name="EBREAK">      0.00000011</i>
     <i name="DEPER">      0.30000000</i>
     <i type="int" name="NRMM">     4</i>
     <i name="TIME">      0.40000000</i>
    </separator>
   </separator>
   <separator name="electronic mixer" >
    <i name="AMIX">      0.40000000</i>
    <i name="BMIX">      1.00000000</i>
    <i name="AMIN">      0.10000000</i>
    <i name="AMIX_MAG">      1.60000000</i>
    <i name="BMIX_MAG">      1.00000000</i>
    <separator name="electronic mixer details" >
     <i type="int" name="IMIX">     4</i>
     <i type="logical" name="MIXFIRST"> F  </i>
     <i type="int" name="MAXMIX">   -45</i>
     <i name="WC">    100.00000000</i>
     <i type="int" name="INIMIX">     1</i>
     <i type="int" name="MIXPRE">     1</i>
     <i type="int" name="MREMOVE">     5</i>
    </separator>
   </separator>
   <separator name="electronic dipolcorrection" >
    <i type="logical" name="LDIPOL"> F  </i>
    <i type="logical" name="LMONO"> F  </i>
    <i type="int" name="IDIPOL">     0</i>
    <i name="EPSILON">      1.00000000</i>
    <v name="DIPOL">   -100.00000000   -100.00000000   -100.00000000</v>
    <i name="EFIELD">      0.00000000</i>
   </separator>
  </separator>
  <separator name="grids" >
   <i type="int" name="NGX">    48</i>
   <i type="int" name="NGY">    48</i>
   <i type="int" name="NGZ">   120</i>
   <i type="int" name="NGXF">    96</i>
   <i type="int" name="NGYF">    96</i>
   <i type="int" name="NGZF">   240</i>
   <i type="logical" name="ADDGRID"> F  </i>
  </separator>
  <separator name="ionic" >
   <i type="int" name="NSW">  5000</i>
   <i type="int" name="IBRION">     1</i>
   <i type="int" name="MDALGO">     0</i>
   <i type="int" name="ISIF">     2</i>
   <i name="PSTRESS">      0.00000000</i>
   <i name="EDIFFG">     -0.05000000</i>
   <i type="int" name="NFREE">     0</i>
   <i name="POTIM">      0.20000000</i>
   <i name="SMASS">     -3.00000000</i>
   <i name="SCALEE">      1.00000000</i>
  </separator>
  <separator name="ionic md" >
   <i name="TEBEG">      0.00010000</i>
   <i name="TEEND">      0.00010000</i>
   <i type="int" name="NBLOCK">     1</i>
   <i type="int" name="KBLOCK">  5000</i>
   <i type="int" name="NPACO">   256</i>
   <i name="APACO">     16.00000000</i>
  </separator>
  <separator name="symmetry" >
   <i type="int" name="ISYM">     0</i>
   <i name="SYMPREC">      0.00001000</i>
  </separator>
  <separator name="dos" >
   <i type="int" name="LORBIT">     0</i>
   <v name="RWIGS">     -1.00000000     -1.00000000     -1.00000000</v>
   <i type="int" name="NEDOS">   301</i>
   <i name="EMIN">     10.00000000</i>
   <i name="EMAX">    -10.00000000</i>
   <i name="EFERMI">      0.00000000</i>
  </separator>
  <separator name="writing" >
   <i type="int" name="NWRITE">     2</i>
   <i type="logical" name="LWAVE"> F  </i>
   <i type="logical" name="LDOWNSAMPLE"> F  </i>
   <i type="logical" name="LCHARG"> F  </i>
   <i type="logical" name="LPARD"> F  </i>
   <i type="logical" name="LVTOT"> F  </i>
   <i type="logical" name="LVHAR"> F  </i>
   <i type="logical" name="LELF"> F  </i>
   <i type="logical" name="LOPTICS"> F  </i>
   <v name="STM">      0.00000000      0.00000000      0.00000000      0.00000000      0.00000000      0.00000000      0.00000000</v>
  </separator>
  <separator name="performance" >
   <i type="int" name="NPAR">     4</i>
   <i type="int" name="NSIM">     4</i>
   <i type="int" name="NBLK">    -1</i>
   <i type="logical" name="LPLANE"> T  </i>
   <i type="logical" name="LSCALAPACK"> T  </i>
   <i type="logical" name="LSCAAWARE"> F  </i>
   <i type="logical" name="LSCALU"> F  </i>
   <i type="logical" name="LASYNC"> F  </i>
   <i type="logical" name="LORBITALREAL"> F  </i>
  </separator>
  <separator name="miscellaneous" >
   <i type="int" name="IDIOT">     3</i>
   <i type="int" name="ISPECIAL">     0</i>
   <i type="logical" name="LMUSIC"> F  </i>
   <v name="POMASS">     12.01100000     16.00000000    195.08000000</v>
   <v name="DARWINR">      0.00000000      0.00000000      0.00000000</v>
   <v name="DARWINV">      1.00000000      1.00000000      1.00000000</v>
   <i type="logical" name="LCORR"> T  </i>
  </separator>
  <i type="logical" name="GGA_COMPAT"> T  </i>
  <i type="logical" name="LBERRY"> F  </i>
  <i type="int" name="ICORELEVEL">     0</i>
  <i type="logical" name="LDAU"> F  </i>
  <i type="int" name="I_CONSTRAINED_M">     0</i>
  <separator name="electronic exchange-correlation" >
   <i type="string" name="GGA">--</i>
   <i type="int" name="VOSKOWN">     0</i>
   <i type="logical" name="LHFCALC"> F  </i>
   <i type="string" name="PRECFOCK"></i>
   <i type="logical" name="LSYMGRAD"> F  </i>
   <i type="logical" name="LHFONE"> F  </i>
   <i type="logical" name="LRHFCALC"> F  </i>
   <i type="logical" name="LTHOMAS"> F  </i>
   <i type="logical" name="LMODELHF"> F  </i>
   <i name="ENCUT4O">     -1.00000000</i>
   <i type="int" name="EXXOEP">     0</i>
   <i type="int" name="FOURORBIT">     0</i>
   <i name="AEXX">      0.00000000</i>
   <i name="HFALPHA">      0.00000000</i>
   <i name="MCALPHA">      0.00000000</i>
   <i name="ALDAX">      1.00000000</i>
   <i name="AGGAX">      1.00000000</i>
   <i name="ALDAC">      1.00000000</i>
   <i name="AGGAC">      1.00000000</i>
   <i type="int" name="NKREDX">     1</i>
   <i type="int" name="NKREDY">     1</i>
   <i type="int" name="NKREDZ">     1</i>
   <i type="logical" name="SHIFTRED"> F  </i>
   <i type="logical" name="ODDONLY"> F  </i>
   <i type="logical" name="EVENONLY"> F  </i>
   <i type="int" name="LMAXFOCK">     0</i>
   <i type="int" name="NMAXFOCKAE">     0</i>
   <i type="logical" name="LFOCKAEDFT"> F  </i>
   <i name="HFSCREEN">      0.00000000</i>
   <i name="HFSCREENC">      0.00000000</i>
   <i type="int" name="NBANDSGWLOW">     0</i>
  </separator>
  <separator name="vdW DFT" >
   <i type="logical" name="LUSE_VDW"> F  </i>
   <i name="Zab_VDW">     -0.84910000</i>
   <i name="PARAM1">      0.12340000</i>
   <i name="PARAM2">      1.00000000</i>
   <i name="PARAM3">      0.00000000</i>
  </separator>
  <separator name="model GW" >
   <i type="int" name="MODEL_GW">     0</i>
   <i name="MODEL_EPS0">     20.69566731</i>
   <i name="MODEL_ALPHA">      1.00000000</i>
  </separator>
  <separator name="linear response parameters" >
   <i type="logical" name="LEPSILON"> F  </i>
   <i type="logical" name="LRPA"> F  </i>
   <i type="logical" name="LNABLA"> F  </i>
   <i type="logical" name="LVEL"> F  </i>
   <i type="int" name="KINTER">     0</i>
   <i name="CSHIFT">      0.10000000</i>
   <i name="OMEGAMAX">     -1.00000000</i>
   <i name="DEG_THRESHOLD">      0.00200000</i>
   <i name="RTIME">     -0.10000000</i>
   <i name="WPLASMAI">      0.00000000</i>
   <v name="DFIELD">      0.00000000      0.00000000      0.00000000</v>
   <v name="WPLASMA">      0.00000000      0.00000000      0.00000000      0.00000000      0.00000000      0.00000000      0.00000000      0.00000000      0.00000000</v>
  </separator>
  <separator name="orbital magnetization" >
   <i type="logical" name="NUCIND"> F  </i>
   <v name="MAGPOS">      0.00000000      0.00000000      0.00000000</v>
   <i type="logical" name="LNICSALL"> T  </i>
   <i type="logical" name="ORBITALMAG"> F  </i>
   <i type="logical" name="LMAGBLOCH"> F  </i>
   <i type="logical" name="LCHIMAG"> F  </i>
   <i type="logical" name="LGAUGE"> T  </i>
   <i type="int" name="MAGATOM">     0</i>
   <v name="MAGDIPOL">      0.00000000      0.00000000      0.00000000</v>
   <v name="AVECCONST">      0.00000000      0.00000000      0.00000000</v>
  </separator>
  <separator name="response functions" >
   <i type="logical" name="LADDER"> F  </i>
   <i type="logical" name="LRPAFORCE"> F  </i>
   <i type="logical" name="LFXC"> F  </i>
   <i type="logical" name="LHARTREE"> T  </i>
   <i type="int" name="IBSE">     0</i>
   <v type="int" name="KPOINT">    -1     0     0     0</v>
   <i type="logical" name="LTCTE"> F  </i>
   <i type="logical" name="LTETE"> F  </i>
   <i type="logical" name="LTRIPLET"> F  </i>
   <i type="logical" name="LFXCEPS"> F  </i>
   <i type="logical" name="LFXHEG"> F  </i>
   <i type="int" name="NATURALO">     2</i>
   <i type="logical" name="L2ORDER"> F  </i>
   <i type="logical" name="LMP2LT"> F  </i>
   <i type="logical" name="LUSEW"> F  </i>
   <i name="ENCUTGW">     -2.00000000</i>
   <i name="ENCUTGWSOFT">     -2.00000000</i>
   <i name="ENCUTLF">     -1.00000000</i>
   <i type="int" name="LMAXMP2">    -1</i>
   <i name="SCISSOR">      0.00000000</i>
   <i type="int" name="NOMEGA">     0</i>
   <i type="int" name="NOMEGAR">     0</i>
   <i type="int" name="NBANDSGW">    -1</i>
   <i type="int" name="NBANDSO">    -1</i>
   <i type="int" name="NBANDSV">    -1</i>
   <i type="int" name="NELM">     1</i>
   <i type="int" name="NELMHF">     1</i>
   <i type="int" name="DIM">     3</i>
   <i type="int" name="ANTIRES">     0</i>
   <i name="OMEGAMAX">    -30.00000000</i>
   <i name="OMEGAMIN">    -30.00000000</i>
   <i name="OMEGATL">   -200.00000000</i>
   <i type="int" name="OMEGAGRID">   140</i>
   <i name="CSHIFT">     -0.10000000</i>
   <i type="logical" name="SELFENERGY"> F  </i>
   <i type="logical" name="LSPECTRAL"> F  </i>
   <i type="logical" name="LSPECTRALGW"> F  </i>
   <i type="logical" name="LSINGLES"> F  </i>
   <i type="logical" name="LFERMIGW"> F  </i>
   <i type="logical" name="ODDONLYGW"> F  </i>
   <i type="logical" name="EVENONLYGW"> F  </i>
   <i type="int" name="NKREDLFX">     1</i>
   <i type="int" name="NKREDLFY">     1</i>
   <i type="int" name="NKREDLFZ">     1</i>
   <i type="int" name="MAXMEM">  2800</i>
   <i type="int" name="TELESCOPE">     0</i>
   <i type="int" name="TAUPAR">     1</i>
   <i type="int" name="OMEGAPAR">    -1</i>
   <i name="LAMBDA">      1.00000000</i>
  </separator>
  <separator name="External order field" >
   <i name="OFIELD_KAPPA">      0.00000000</i>
   <v name="OFIELD_K">      0.00000000      0.00000000      0.00000000</v>
   <i name="OFIELD_Q6_NEAR">      0.00000000</i>
   <i name="OFIELD_Q6_FAR">      0.00000000</i>
   <i name="OFIELD_A">      0.00000000</i>
  </separator>
  <separator name="solvation model" >
   <i type="logical" name="LSOL"> F  </i>
  </separator>
 </parameters>
 <atominfo>
  <atoms>      39 </atoms>
  <types>       3 </types>
  <array name="atoms" >
   <dimension dim="1">ion</dimension>
   <field type="string">element</field>
   <field type="int">atomtype</field>
   <set>
    <rc><c>C </c><c>   1</c></rc>
    <rc><c>O </c><c>   2</c></rc>
    <rc><c>O </c><c>   2</c></rc>
    <rc><c>Pt</c><c>   3</c></rc>
    <rc><c>Pt</c><c>   3</c></rc>
    <rc><c>Pt</c><c>   3</c></rc>
    <rc><c>Pt</c><c>   3</c></rc>
    <rc><c>Pt</c><c>   3</c></rc>
    <rc><c>Pt</c><c>   3</c></rc>
    <rc><c>Pt</c><c>   3</c></rc>
    <rc><c>Pt</c><c>   3</c></rc>
    <rc><c>Pt</c><c>   3</c></rc>
    <rc><c>Pt</c><c>   3</c></rc>
    <rc><c>Pt</c><c>   3</c></rc>
    <rc><c>Pt</c><c>   3</c></rc>
    <rc><c>Pt</c><c>   3</c></rc>
    <rc><c>Pt</c><c>   3</c></rc>
    <rc><c>Pt</c><c>   3</c></rc>
    <rc><c>Pt</c><c>   3</c></rc>
    <rc><c>Pt</c><c>   3</c></rc>
    <rc><c>Pt</c><c>   3</c></rc>
    <rc><c>Pt</c><c>   3</c></rc>
    <rc><c>Pt</c><c>   3</c></rc>
    <rc><c>Pt</c><c>   3</c></rc>
    <rc><c>Pt</c><c>   3</c></rc>
    <rc><c>Pt</c><c>   3</c></rc>
    <rc><c>Pt</c><c>   3</c></rc>
    <rc><c>Pt</c><c>   3</c></rc>
    <rc><c>Pt</c><c>   3</c></rc>
    <rc><c>Pt</c><c>   3</c></rc>
    <rc><c>Pt</c><c>   3</c></rc>
    <rc><c>Pt</c><c>   3</c></rc>
    <rc><c>Pt</c><c>   3</c></rc>
    <rc><c>Pt</c><c>   3</c></rc>
    <rc><c>Pt</c><c>   3</c></rc>
    <rc><c>Pt</c><c>   3</c></rc>
    <rc><c>Pt</c><c>   3</c></rc>
    <rc><c>Pt</c><c>   3</c></rc>
    <rc><c>Pt</c><c>   3</c></rc>
   </set>
  </array>
  <array name="atomtypes" >
   <dimension dim="1">type</dimension>
   <field type="int">atomspertype</field>
   <field type="string">element</field>
   <field>mass</field>
   <field>valence</field>
   <field type="string">pseudopotential</field>
   <set>
    <rc><c>   1</c><c>C </c><c>     12.01100000</c><c>      4.00000000</c><c> PAW_PBE C 08Apr2002                    </c></rc>
    <rc><c>   2</c><c>O </c><c>     16.00000000</c><c>      6.00000000</c><c> PAW_PBE O 08Apr2002                    </c></rc>
    <rc><c>  36</c><c>Pt</c><c>    195.08000000</c><c>     10.00000000</c><c>  PAW_PBE Pt 04Feb2005                  </c></rc>
   </set>
  </array>
 </atominfo>
 <structure name="initialpos" >
  <crystal>
   <varray name="basis" >
    <v>       7.29695512      -4.21289900       0.00000000 </v>
    <v>       0.00000000       8.42579800       0.00000000 </v>
    <v>       0.00000000       0.00000000      21.87963500 </v>
   </varray>
   <i name="volume">   1345.21837528 </i>
   <varray name="rec_basis" >
    <v>       0.13704346       0.00000000       0.00000000 </v>
    <v>       0.06852173       0.11868312       0.00000000 </v>
    <v>       0.00000000       0.00000000       0.04570460 </v>
   </varray>
  </crystal>
  <varray name="positions" >
   <v>       0.69895623       0.43088526       0.47844456 </v>
   <v>       0.90168310       0.38813464       0.46742346 </v>
   <v>       0.67081968       0.45774114       0.52833309 </v>
   <v>       0.98675500       0.32859100       0.07437600 </v>
   <v>       0.32008800       0.32859100       0.07437600 </v>
   <v>       0.65342200       0.32859100       0.07437600 </v>
   <v>       0.98675500       0.66192500       0.07437600 </v>
   <v>       0.32008800       0.66192500       0.07437600 </v>
   <v>       0.65342200       0.66192500       0.07437600 </v>
   <v>       0.32008800       0.99525800       0.07437600 </v>
   <v>       0.65342200       0.99525800       0.07437600 </v>
   <v>       0.98675500       0.99525800       0.07437600 </v>
   <v>       0.20897700       0.10636900       0.17918600 </v>
   <v>       0.54231100       0.10636900       0.17918600 </v>
   <v>       0.87564400       0.10636900       0.17918600 </v>
   <v>       0.20897700       0.43970300       0.17918600 </v>
   <v>       0.54231100       0.43970300       0.17918600 </v>
   <v>       0.87564400       0.43970300       0.17918600 </v>
   <v>       0.20897700       0.77303600       0.17918600 </v>
   <v>       0.54231100       0.77303600       0.17918600 </v>
   <v>       0.87564400       0.77303600       0.17918600 </v>
   <v>       0.09610528       0.54703751       0.28632390 </v>
   <v>       0.43328070       0.88492516       0.28498417 </v>
   <v>       0.76088637       0.22173190       0.27973864 </v>
   <v>       0.09391815       0.21813032       0.28619706 </v>
   <v>       0.43001395       0.22046149       0.28014905 </v>
   <v>       0.09358829       0.88700100       0.28455007 </v>
   <v>       0.76117048       0.88651879       0.28666978 </v>
   <v>       0.42765263       0.55107484       0.28399013 </v>
   <v>       0.76835072       0.55169102       0.28617926 </v>
   <v>       0.32054864       0.65964650       0.38705544 </v>
   <v>       0.64869585       0.99285681       0.38439265 </v>
   <v>       0.32653140       0.32300858       0.38833153 </v>
   <v>       0.98440924       0.99401532       0.38593869 </v>
   <v>       0.31843678       0.99188483       0.38870788 </v>
   <v>       0.64312639       0.32051935       0.39335247 </v>
   <v>       0.99428278       0.66922785       0.38400559 </v>
   <v>       0.99031966       0.31613154       0.39381033 </v>
   <v>       0.65651324       0.65827783       0.39059456 </v>
  </varray>
  <varray name="selective"  type="logical" >
   <v type="logical" >  T  T  T </v>
   <v type="logical" >  T  T  T </v>
   <v type="logical" >  T  T  T </v>
   <v type="logical" >  F  F  F </v>
   <v type="logical" >  F  F  F </v>
   <v type="logical" >  F  F  F </v>
   <v type="logical" >  F  F  F </v>
   <v type="logical" >  F  F  F </v>
   <v type="logical" >  F  F  F </v>
   <v type="logical" >  F  F  F </v>
   <v type="logical" >  F  F  F </v>
   <v type="logical" >  F  F  F </v>
   <v type="logical" >  F  F  F </v>
   <v type="logical" >  F  F  F </v>
   <v type="logical" >  F  F  F </v>
   <v type="logical" >  F  F  F </v>
   <v type="logical" >  F  F  F </v>
   <v type="logical" >  F  F  F </v>
   <v type="logical" >  F  F  F </v>
   <v type="logical" >  F  F  F </v>
   <v type="logical" >  F  F  F </v>
   <v type="logical" >  T  T  T </v>
   <v type="logical" >  T  T  T </v>
   <v type="logical" >  T  T  T </v>
   <v type="logical" >  T  T  T </v>
   <v type="logical" >  T  T  T </v>
   <v type="logical" >  T  T  T </v>
   <v type="logical" >  T  T  T </v>
   <v type="logical" >  T  T  T </v>
   <v type="logical" >  T  T  T </v>
   <v type="logical" >  T  T  T </v>
   <v type="logical" >  T  T  T </v>
   <v type="logical" >  T  T  T </v>
   <v type="logical" >  T  T  T </v>
   <v type="logical" >  T  T  T </v>
   <v type="logical" >  T  T  T </v>
   <v type="logical" >  T  T  T </v>
   <v type="logical" >  T  T  T </v>
   <v type="logical" >  T  T  T </v>
  </varray>
  <nose>
   <v>      -3.00000000       0.00000000       0.00010000       0.00010000 </v>
  </nose>
 </structure>
 <calculation>
  <scstep>
   <time name="dav">    8.03    8.08</time>
   <time name="total">    8.18    8.32</time>
   <energy>
    <i name="alphaZ">    975.10247152 </i>
    <i name="ewald">  91034.15748843 </i>
    <i name="hartreedc">-120125.47528167 </i>
    <i name="XCdc">    189.55386047 </i>
    <i name="pawpsdc">  24789.08602224 </i>
    <i name="pawaedc"> -23775.73976456 </i>
    <i name="eentropy">     -0.00103293 </i>
    <i name="bandstr">   2073.46613504 </i>
    <i name="atom">  27259.89416086 </i>
    <i name="e_fr_energy">   2420.04405941 </i>
    <i name="e_wo_entrp">   2420.04509234 </i>
    <i name="e_0_energy">   2420.04440372 </i>
   </energy>
  </scstep>
  <scstep>
   <time name="dav">    8.30    8.36</time>
   <time name="total">    8.30    8.36</time>
   <energy>
    <i name="e_fr_energy">    -63.27288811 </i>
    <i name="e_wo_entrp">    -63.25569402 </i>
    <i name="e_0_energy">    -63.26715675 </i>
   </energy>
  </scstep>
  <scstep>
   <time name="dav">    8.38    8.44</time>
   <time name="total">    8.38    8.44</time>
   <energy>
    <i name="e_fr_energy">   -240.43909481 </i>
    <i name="e_wo_entrp">   -240.42671112 </i>
    <i name="e_0_energy">   -240.43496691 </i>
   </energy>
  </scstep>
  <scstep>
   <time name="dav">    9.52    9.59</time>
   <time name="total">    9.52    9.59</time>
   <energy>
    <i name="e_fr_energy">   -248.04243059 </i>
    <i name="e_wo_entrp">   -248.03854087 </i>
    <i name="e_0_energy">   -248.04113402 </i>
   </energy>
  </scstep>
  <scstep>
   <time name="dav">   10.49   10.57</time>
   <time name="total">   10.88   10.96</time>
   <energy>
    <i name="e_fr_energy">   -248.28176916 </i>
    <i name="e_wo_entrp">   -248.27818545 </i>
    <i name="e_0_energy">   -248.28057459 </i>
   </energy>
  </scstep>
  <scstep>
   <time name="diag">    1.29    1.30</time>
   <time name="diis">    4.38    4.41</time>
   <time name="orth">    0.22    0.22</time>
   <time name="total">    6.41    6.46</time>
   <energy>
    <i name="e_fr_energy">   -245.31253878 </i>
    <i name="e_wo_entrp">   -245.15910722 </i>
    <i name="e_0_energy">   -245.26139493 </i>
   </energy>
  </scstep>
  <scstep>
   <time name="diag">    1.17    1.18</time>
   <time name="diis">    4.21    4.25</time>
   <time name="orth">    0.21    0.21</time>
   <time name="total">    6.10    6.14</time>
   <energy>
    <i name="e_fr_energy">   -246.29700946 </i>
    <i name="e_wo_entrp">   -246.13074360 </i>
    <i name="e_0_energy">   -246.24158750 </i>
   </energy>
  </scstep>
  <scstep>
   <time name="diag">    1.32    1.33</time>
   <time name="diis">    4.49    4.52</time>
   <time name="orth">    0.22    0.22</time>
   <time name="total">    6.57    6.62</time>
   <energy>
    <i name="e_fr_energy">   -243.94136126 </i>
    <i name="e_wo_entrp">   -243.91403618 </i>
    <i name="e_0_energy">   -243.93225290 </i>
   </energy>
  </scstep>
  <scstep>
   <time name="diag">    1.44    1.45</time>
   <time name="diis">    4.81    4.85</time>
   <time name="orth">    0.21    0.21</time>
   <time name="total">    7.06    7.12</time>
   <energy>
    <i name="e_fr_energy">   -231.93233560 </i>
    <i name="e_wo_entrp">   -231.84743962 </i>
    <i name="e_0_energy">   -231.90403694 </i>
   </energy>
  </scstep>
  <scstep>
   <time name="diag">    1.42    1.43</time>
   <time name="diis">    5.12    5.16</time>
   <time name="orth">    0.23    0.23</time>
   <time name="total">    7.36    7.41</time>
   <energy>
    <i name="e_fr_energy">   -230.57878373 </i>
    <i name="e_wo_entrp">   -230.59886556 </i>
    <i name="e_0_energy">   -230.58547767 </i>
   </energy>
  </scstep>
  <scstep>
   <time name="diag">    1.52    1.53</time>
   <time name="diis">    4.79    4.83</time>
   <time name="orth">    0.22    0.22</time>
   <time name="total">    7.10    7.16</time>
   <energy>
    <i name="e_fr_energy">   -230.30714462 </i>
    <i name="e_wo_entrp">   -230.27902359 </i>
    <i name="e_0_energy">   -230.29777095 </i>
   </energy>
  </scstep>
  <scstep>
   <time name="diag">    1.39    1.40</time>
   <time name="diis">    4.96    4.99</time>
   <time name="orth">    0.22    0.22</time>
   <time name="total">    7.14    7.19</time>
   <energy>
    <i name="e_fr_energy">   -230.12856924 </i>
    <i name="e_wo_entrp">   -230.12331825 </i>
    <i name="e_0_energy">   -230.12681891 </i>
   </energy>
  </scstep>
  <scstep>
   <time name="diag">    1.58    1.59</time>
   <time name="diis">    5.10    5.13</time>
   <time name="orth">    0.21    0.21</time>
   <time name="total">    7.42    7.47</time>
   <energy>
    <i name="e_fr_energy">   -230.14486253 </i>
    <i name="e_wo_entrp">   -230.13151564 </i>
    <i name="e_0_energy">   -230.14041357 </i>
   </energy>
  </scstep>
  <scstep>
   <time name="diag">    1.18    1.19</time>
   <time name="diis">    4.55    4.58</time>
   <time name="orth">    0.21    0.21</time>
   <time name="total">    6.46    6.51</time>
   <energy>
    <i name="e_fr_energy">   -230.09717922 </i>
    <i name="e_wo_entrp">   -230.08641796 </i>
    <i name="e_0_energy">   -230.09359213 </i>
   </energy>
  </scstep>
  <scstep>
   <time name="diag">    1.45    1.46</time>
   <time name="diis">    4.82    4.86</time>
   <time name="orth">    0.22    0.22</time>
   <time name="total">    7.01    7.06</time>
   <energy>
    <i name="e_fr_energy">   -230.09119524 </i>
    <i name="e_wo_entrp">   -230.08751303 </i>
    <i name="e_0_energy">   -230.08996784 </i>
   </energy>
  </scstep>
  <scstep>
   <time name="diag">    1.33    1.34</time>
   <time name="diis">    4.46    4.49</time>
   <time name="orth">    0.22    0.22</time>
   <time name="total">    6.52    6.57</time>
   <energy>
    <i name="e_fr_energy">   -230.08279683 </i>
    <i name="e_wo_entrp">   -230.07668184 </i>
    <i name="e_0_energy">   -230.08075850 </i>
   </energy>
  </scstep>
  <scstep>
   <time name="diag">    1.28    1.29</time>
   <time name="diis">    4.03    4.06</time>
   <time name="orth">    0.22    0.22</time>
   <time name="total">    6.05    6.12</time>
   <energy>
    <i name="e_fr_energy">   -230.08216254 </i>
    <i name="e_wo_entrp">   -230.07533646 </i>
    <i name="e_0_energy">   -230.07988718 </i>
   </energy>
  </scstep>
  <scstep>
   <time name="diag">    1.27    1.28</time>
   <time name="diis">    4.34    4.37</time>
   <time name="orth">    0.22    0.22</time>
   <time name="total">    6.37    6.42</time>
   <energy>
    <i name="e_fr_energy">   -230.08248539 </i>
    <i name="e_wo_entrp">   -230.07630440 </i>
    <i name="e_0_energy">   -230.08042506 </i>
   </energy>
  </scstep>
  <scstep>
   <time name="diag">    1.38    1.39</time>
   <time name="diis">    3.44    3.46</time>
   <time name="orth">    0.21    0.21</time>
   <time name="total">    5.17    5.21</time>
   <energy>
    <i name="alphaZ">    975.10247152 </i>
    <i name="ewald">  91034.15748843 </i>
    <i name="hartreedc">-119740.20812421 </i>
    <i name="XCdc">    178.08708183 </i>
    <i name="pawpsdc">  30091.91032330 </i>
    <i name="pawaedc"> -29177.69284263 </i>
    <i name="eentropy">     -0.00670525 </i>
    <i name="bandstr">   -851.32637025 </i>
    <i name="atom">  27259.89416086 </i>
    <i name="e_fr_energy">   -230.08251639 </i>
    <i name="e_wo_entrp">   -230.07581114 </i>
    <i name="e_0_energy">   -230.08028131 </i>
   </energy>
  </scstep>
  <structure>
   <crystal>
    <varray name="basis" >
     <v>       7.29695512      -4.21289900       0.00000000 </v>
     <v>       0.00000000       8.42579800       0.00000000 </v>
     <v>       0.00000000       0.00000000      21.87963500 </v>
    </varray>
    <i name="volume">   1345.21837528 </i>
    <varray name="rec_basis" >
     <v>       0.13704346       0.00000000       0.00000000 </v>
     <v>       0.06852173       0.11868312       0.00000000 </v>
     <v>       0.00000000       0.00000000       0.04570460 </v>
    </varray>
   </crystal>
   <varray name="positions" >
    <v>       0.69895623       0.43088526       0.47844456 </v>
    <v>       0.90168310       0.38813464       0.46742346 </v>
    <v>       0.67081968       0.45774114       0.52833309 </v>
    <v>       0.98675500       0.32859100       0.07437600 </v>
    <v>       0.32008800       0.32859100       0.07437600 </v>
    <v>       0.65342200       0.32859100       0.07437600 </v>
    <v>       0.98675500       0.66192500       0.07437600 </v>
    <v>       0.32008800       0.66192500       0.07437600 </v>
    <v>       0.65342200       0.66192500       0.07437600 </v>
    <v>       0.32008800       0.99525800       0.07437600 </v>
    <v>       0.65342200       0.99525800       0.07437600 </v>
    <v>       0.98675500       0.99525800       0.07437600 </v>
    <v>       0.20897700       0.10636900       0.17918600 </v>
    <v>       0.54231100       0.10636900       0.17918600 </v>
    <v>       0.87564400       0.10636900       0.17918600 </v>
    <v>       0.20897700       0.43970300       0.17918600 </v>
    <v>       0.54231100       0.43970300       0.17918600 </v>
    <v>       0.87564400       0.43970300       0.17918600 </v>
    <v>       0.20897700       0.77303600       0.17918600 </v>
    <v>       0.54231100       0.77303600       0.17918600 </v>
    <v>       0.87564400       0.77303600       0.17918600 </v>
    <v>       0.09610528       0.54703751       0.28632390 </v>
    <v>       0.43328070       0.88492516       0.28498417 </v>
    <v>       0.76088637       0.22173190       0.27973864 </v>
    <v>       0.09391815       0.21813032       0.28619706 </v>
    <v>       0.43001395       0.22046149       0.28014905 </v>
    <v>       0.09358829       0.88700100       0.28455007 </v>
    <v>       0.76117048       0.88651879       0.28666978 </v>
    <v>       0.42765263       0.55107484       0.28399013 </v>
    <v>       0.76835072       0.55169102       0.28617926 </v>
    <v>       0.32054864       0.65964650       0.38705544 </v>
    <v>       0.64869585       0.99285681       0.38439265 </v>
    <v>       0.32653140       0.32300858       0.38833153 </v>
    <v>       0.98440924       0.99401532       0.38593869 </v>
    <v>       0.31843678       0.99188483       0.38870788 </v>
    <v>       0.64312639       0.32051935       0.39335247 </v>
    <v>       0.99428278       0.66922785       0.38400559 </v>
    <v>       0.99031966       0.31613154       0.39381033 </v>
    <v>       0.65651324       0.65827783       0.39059456 </v>
   </varray>
  </structure>
  <varray name="forces" >
   <v>      -0.19405953      -1.46872321      -1.52172126 </v>
   <v>       0.41540187       0.26580467      -0.03119980 </v>
   <v>       0.23870900       0.12090474      -0.05192498 </v>
   <v>       0.03388896      -0.04885447       0.10173972 </v>
   <v>      -0.04089058      -0.06162968       0.08754716 </v>
   <v>      -0.03933426      -0.00831165       0.06063069 </v>
   <v>       0.00037769      -0.01740172       0.14412879 </v>
   <v>      -0.01516475       0.00448888       0.12612602 </v>
   <v>       0.00812688      -0.04392230       0.19588628 </v>
   <v>       0.06169335      -0.03820206       0.05845193 </v>
   <v>      -0.00608086       0.04084093       0.12315072 </v>
   <v>       0.04132946       0.04055644       0.11910537 </v>
   <v>      -0.25404822       0.03348440      -0.09557423 </v>
   <v>      -0.21121241      -0.09359700      -0.39071077 </v>
   <v>       0.12841503      -0.20090146      -0.04608076 </v>
   <v>      -0.10905843       0.01120578       0.16956084 </v>
   <v>       0.14407366       0.25788347      -0.00374352 </v>
   <v>       0.17848023       0.26924979      -0.05225946 </v>
   <v>      -0.05515038       0.02841378       0.29047859 </v>
   <v>       0.07531494       0.04104027       0.14974912 </v>
   <v>      -0.04360385       0.14394403       0.17106925 </v>
   <v>       0.10752121       0.02917833      -0.80067231 </v>
   <v>      -0.67476913       0.26653359      -0.81237594 </v>
   <v>       0.13363792      -0.20372091       0.97133821 </v>
   <v>       0.00398561       0.43525068      -0.39035969 </v>
   <v>       0.12172117      -0.24497811       0.79236305 </v>
   <v>       0.44248781      -0.41678101      -0.81774238 </v>
   <v>       0.01878110      -0.57262446      -1.16063429 </v>
   <v>       0.35270942      -0.29890300      -0.08839569 </v>
   <v>      -0.56894000       0.21347206      -0.75953267 </v>
   <v>       0.21039012      -0.12548223       0.27120612 </v>
   <v>       0.08236818       0.02371411       0.71712718 </v>
   <v>      -0.44116399       0.33788793      -0.21589463 </v>
   <v>       0.14303528      -0.28148631       0.86522129 </v>
   <v>       0.02027606       0.01814520      -0.11667128 </v>
   <v>      -0.07125330       0.67007232       0.88892602 </v>
   <v>       0.01331419      -0.04883045       0.88069034 </v>
   <v>      -0.08059437       0.43831628       0.40531687 </v>
   <v>      -0.17071504       0.48396233      -0.23431990 </v>
  </varray>
  <varray name="stress" >
   <v>     -43.27054340       1.38996113       1.92616286 </v>
   <v>       1.38996102     -45.79613866      -1.33013177 </v>
   <v>       1.92616283      -1.33013164      -5.49684807 </v>
  </varray>
  <energy>
   <i name="e_fr_energy">   -230.08251639 </i>
   <i name="e_wo_entrp">   -230.08028131 </i>
   <i name="e_0_energy">     -0.00670525 </i>
  </energy>
  <time name="totalsc">  148.78  150.24</time>
 </calculation>
 <calculation>
  <scstep>
   <time name="dav">    7.72    7.78</time>
   <time name="total">    8.23    8.42</time>
   <energy>
    <i name="alphaZ">    975.10247152 </i>
    <i name="ewald">  90961.02765101 </i>
    <i name="hartreedc">-119670.93537877 </i>
    <i name="XCdc">    177.91555700 </i>
    <i name="pawpsdc">  30089.55280129 </i>
    <i name="pawaedc"> -29175.29066323 </i>
    <i name="eentropy">     -0.01058213 </i>
    <i name="bandstr">   -847.53678873 </i>
    <i name="atom">  27259.89416086 </i>
    <i name="e_fr_energy">   -230.28077119 </i>
    <i name="e_wo_entrp">   -230.27018905 </i>
    <i name="e_0_energy">   -230.27724381 </i>
   </energy>
  </scstep>
  <scstep>
   <time name="diag">    1.18    1.19</time>
   <time name="diis">    4.30    4.33</time>
   <time name="orth">    0.22    0.22</time>
   <time name="total">    6.19    6.23</time>
   <energy>
    <i name="e_fr_energy">   -230.36956101 </i>
    <i name="e_wo_entrp">   -230.35409871 </i>
    <i name="e_0_energy">   -230.36440691 </i>
   </energy>
  </scstep>
  <scstep>
   <time name="diag">    1.25    1.26</time>
   <time name="diis">    4.36    4.39</time>
   <time name="orth">    0.22    0.22</time>
   <time name="total">    6.32    6.36</time>
   <energy>
    <i name="e_fr_energy">   -230.33726917 </i>
    <i name="e_wo_entrp">   -230.33155669 </i>
    <i name="e_0_energy">   -230.33536501 </i>
   </energy>
  </scstep>
  <scstep>
   <time name="diag">    1.26    1.26</time>
   <time name="diis">    4.25    4.28</time>
   <time name="orth">    0.22    0.22</time>
   <time name="total">    6.23    6.28</time>
   <energy>
    <i name="e_fr_energy">   -230.32222205 </i>
    <i name="e_wo_entrp">   -230.30990154 </i>
    <i name="e_0_energy">   -230.31811521 </i>
   </energy>
  </scstep>
  <scstep>
   <time name="diag">    1.28    1.29</time>
   <time name="diis">    4.45    4.49</time>
   <time name="orth">    0.22    0.22</time>
   <time name="total">    6.48    6.53</time>
   <energy>
    <i name="e_fr_energy">   -230.31956063 </i>
    <i name="e_wo_entrp">   -230.31155585 </i>
    <i name="e_0_energy">   -230.31689237 </i>
   </energy>
  </scstep>
  <scstep>
   <time name="diag">    1.31    1.32</time>
   <time name="diis">    4.40    4.43</time>
   <time name="orth">    0.22    0.22</time>
   <time name="total">    6.44    6.49</time>
   <energy>
    <i name="e_fr_energy">   -230.31995385 </i>
    <i name="e_wo_entrp">   -230.30899883 </i>
    <i name="e_0_energy">   -230.31630218 </i>
   </energy>
  </scstep>
  <scstep>
   <time name="diag">    1.14    1.14</time>
   <time name="diis">    4.33    4.36</time>
   <time name="orth">    0.22    0.22</time>
   <time name="total">    6.20    6.25</time>
   <energy>
    <i name="e_fr_energy">   -230.31781183 </i>
    <i name="e_wo_entrp">   -230.30857575 </i>
    <i name="e_0_energy">   -230.31473314 </i>
   </energy>
  </scstep>
  <scstep>
   <time name="diag">    1.36    1.37</time>
   <time name="diis">    4.44    4.48</time>
   <time name="orth">    0.21    0.22</time>
   <time name="total">    6.55    6.59</time>
   <energy>
    <i name="e_fr_energy">   -230.31760142 </i>
    <i name="e_wo_entrp">   -230.30704085 </i>
    <i name="e_0_energy">   -230.31408123 </i>
   </energy>
  </scstep>
  <scstep>
   <time name="diag">    1.35    1.36</time>
   <time name="diis">    2.81    2.83</time>
   <time name="orth">    0.22    0.22</time>
   <time name="total">    4.52    4.55</time>
   <energy>
    <i name="alphaZ">    975.10247152 </i>
    <i name="ewald">  90961.02765101 </i>
    <i name="hartreedc">-119664.95295924 </i>
    <i name="XCdc">    177.85392038 </i>
    <i name="pawpsdc">  30063.18963326 </i>
    <i name="pawaedc"> -29148.77486755 </i>
    <i name="eentropy">     -0.00981997 </i>
    <i name="bandstr">   -853.64771489 </i>
    <i name="atom">  27259.89416086 </i>
    <i name="e_fr_energy">   -230.31752463 </i>
    <i name="e_wo_entrp">   -230.30770465 </i>
    <i name="e_0_energy">   -230.31425130 </i>
   </energy>
  </scstep>
  <structure>
   <crystal>
    <varray name="basis" >
     <v>       7.29695512      -4.21289900       0.00000000 </v>
     <v>       0.00000000       8.42579800       0.00000000 </v>
     <v>       0.00000000       0.00000000      21.87963500 </v>
    </varray>
    <i name="volume">   1345.21837528 </i>
    <varray name="rec_basis" >
     <v>       0.13704346       0.00000000       0.00000000 </v>
     <v>       0.06852173       0.11868312       0.00000000 </v>
     <v>       0.00000000       0.00000000       0.04570460 </v>
    </varray>
   </crystal>
   <varray name="positions" >
    <v>       0.69844303       0.42726494       0.47710246 </v>
    <v>       0.90278164       0.38929267       0.46739594 </v>
    <v>       0.67145096       0.45833368       0.52828730 </v>
    <v>       0.98675500       0.32859100       0.07437600 </v>
    <v>       0.32008800       0.32859100       0.07437600 </v>
    <v>       0.65342200       0.32859100       0.07437600 </v>
    <v>       0.98675500       0.66192500       0.07437600 </v>
    <v>       0.32008800       0.66192500       0.07437600 </v>
    <v>       0.65342200       0.66192500       0.07437600 </v>
    <v>       0.32008800       0.99525800       0.07437600 </v>
    <v>       0.65342200       0.99525800       0.07437600 </v>
    <v>       0.98675500       0.99525800       0.07437600 </v>
    <v>       0.20897700       0.10636900       0.17918600 </v>
    <v>       0.54231100       0.10636900       0.17918600 </v>
    <v>       0.87564400       0.10636900       0.17918600 </v>
    <v>       0.20897700       0.43970300       0.17918600 </v>
    <v>       0.54231100       0.43970300       0.17918600 </v>
    <v>       0.87564400       0.43970300       0.17918600 </v>
    <v>       0.20897700       0.77303600       0.17918600 </v>
    <v>       0.54231100       0.77303600       0.17918600 </v>
    <v>       0.87564400       0.77303600       0.17918600 </v>
    <v>       0.09638962       0.54724650       0.28561773 </v>
    <v>       0.43149625       0.88464336       0.28426768 </v>
    <v>       0.76123978       0.22144203       0.28059533 </v>
    <v>       0.09392869       0.21913241       0.28585277 </v>
    <v>       0.43033585       0.22006138       0.28084789 </v>
    <v>       0.09475846       0.88663156       0.28382885 </v>
    <v>       0.76122015       0.88523217       0.28564614 </v>
    <v>       0.42858538       0.55085666       0.28391217 </v>
    <v>       0.76684614       0.55142763       0.28550938 </v>
    <v>       0.32110503       0.65963731       0.38729464 </v>
    <v>       0.64891368       0.99302003       0.38502513 </v>
    <v>       0.32536473       0.32319909       0.38814112 </v>
    <v>       0.98478751       0.99355978       0.38670178 </v>
    <v>       0.31849040       0.99195320       0.38860498 </v>
    <v>       0.64293796       0.32195976       0.39413647 </v>
    <v>       0.99431799       0.66913362       0.38478233 </v>
    <v>       0.99010653       0.31702882       0.39416781 </v>
    <v>       0.65606178       0.65916049       0.39038790 </v>
   </varray>
  </structure>
  <varray name="forces" >
   <v>      -0.44791748      -0.51650652       1.62553401 </v>
   <v>       0.36332822       0.37373379       0.15419055 </v>
   <v>       0.66837454      -0.77386171      -2.75852608 </v>
   <v>       0.02880703      -0.04821059       0.11091812 </v>
   <v>      -0.03855422      -0.05956992       0.10715255 </v>
   <v>      -0.03627939      -0.00887983       0.08067383 </v>
   <v>       0.00246527      -0.00702610       0.14540754 </v>
   <v>      -0.01098531       0.00586891       0.13086343 </v>
   <v>       0.01176242      -0.03821568       0.19822622 </v>
   <v>       0.05252620      -0.03639642       0.04907745 </v>
   <v>      -0.00449449       0.03847715       0.11655965 </v>
   <v>       0.03507405       0.03239632       0.10840224 </v>
   <v>      -0.20979902       0.05583046      -0.11337005 </v>
   <v>      -0.15819995      -0.04942149      -0.32847280 </v>
   <v>       0.11882587      -0.16560968      -0.05666997 </v>
   <v>      -0.08659990      -0.00164097       0.12001257 </v>
   <v>       0.10230492       0.20499761      -0.01841826 </v>
   <v>       0.12950237       0.21397361      -0.02923362 </v>
   <v>      -0.06449739       0.02306539       0.16389679 </v>
   <v>       0.05647682       0.03258247       0.08765799 </v>
   <v>      -0.03106154       0.13288923       0.06920789 </v>
   <v>       0.04553886       0.08134118      -0.54177864 </v>
   <v>      -0.41193581       0.14780905      -0.53055884 </v>
   <v>       0.08020349      -0.20403114       0.82563537 </v>
   <v>      -0.03789733       0.24743193      -0.24022419 </v>
   <v>       0.09680362      -0.20729348       0.63289538 </v>
   <v>       0.26858280      -0.32070238      -0.51137136 </v>
   <v>       0.05415412      -0.34382365      -0.78277283 </v>
   <v>       0.25654483      -0.19311626      -0.06225613 </v>
   <v>      -0.36855573       0.13996233      -0.52351062 </v>
   <v>       0.17224958      -0.05879347       0.14885843 </v>
   <v>       0.06026615      -0.05038597       0.43186715 </v>
   <v>      -0.40520948       0.30228010      -0.16632322 </v>
   <v>       0.08371548      -0.21125149       0.54235309 </v>
   <v>       0.01017252       0.00109260      -0.11750348 </v>
   <v>      -0.21043299       0.51815180       0.42542988 </v>
   <v>      -0.00904380      -0.03088465       0.56600022 </v>
   <v>      -0.05391859       0.29571863       0.21776011 </v>
   <v>      -0.11229675       0.47801883      -0.27759038 </v>
  </varray>
  <varray name="stress" >
   <v>     -44.30758819       1.71189389       2.77351442 </v>
   <v>       1.71189386     -47.13548748      -2.40952617 </v>
   <v>       2.77351439      -2.40952616     -10.08774620 </v>
  </varray>
  <energy>
   <i name="e_fr_energy">   -230.31752463 </i>
   <i name="e_wo_entrp">   -230.31425130 </i>
   <i name="e_0_energy">     -0.00981997 </i>
  </energy>
  <time name="totalsc">   67.81   68.89</time>
 </calculation>
 <calculation>
  <scstep>
   <time name="dav">    7.70    7.76</time>
   <time name="total">    8.21    8.28</time>
   <energy>
    <i name="alphaZ">    975.10247152 </i>
    <i name="ewald">  90963.38405053 </i>
    <i name="hartreedc">-119663.84618987 </i>
    <i name="XCdc">    177.96960636 </i>
    <i name="pawpsdc">  30063.08087575 </i>
    <i name="pawaedc"> -29148.66540756 </i>
    <i name="eentropy">     -0.01101456 </i>
    <i name="bandstr">   -857.30075542 </i>
    <i name="atom">  27259.89416086 </i>
    <i name="e_fr_energy">   -230.39220240 </i>
    <i name="e_wo_entrp">   -230.38118784 </i>
    <i name="e_0_energy">   -230.38853088 </i>
   </energy>
  </scstep>
  <scstep>
   <time name="diag">    1.22    1.23</time>
   <time name="diis">    4.41    4.44</time>
   <time name="orth">    0.21    0.21</time>
   <time name="total">    6.38    6.42</time>
   <energy>
    <i name="e_fr_energy">   -230.42544261 </i>
    <i name="e_wo_entrp">   -230.41377213 </i>
    <i name="e_0_energy">   -230.42155245 </i>
   </energy>
  </scstep>
  <scstep>
   <time name="diag">    1.28    1.29</time>
   <time name="diis">    4.47    4.50</time>
   <time name="orth">    0.22    0.22</time>
   <time name="total">    6.49    6.54</time>
   <energy>
    <i name="e_fr_energy">   -230.42160169 </i>
    <i name="e_wo_entrp">   -230.41326168 </i>
    <i name="e_0_energy">   -230.41882169 </i>
   </energy>
  </scstep>
  <scstep>
   <time name="diag">    1.31    1.32</time>
   <time name="diis">    4.26    4.29</time>
   <time name="orth">    0.21    0.22</time>
   <time name="total">    6.29    6.33</time>
   <energy>
    <i name="e_fr_energy">   -230.41655100 </i>
    <i name="e_wo_entrp">   -230.40507859 </i>
    <i name="e_0_energy">   -230.41272686 </i>
   </energy>
  </scstep>
  <scstep>
   <time name="diag">    1.31    1.32</time>
   <time name="diis">    4.21    4.24</time>
   <time name="orth">    0.21    0.21</time>
   <time name="total">    6.25    6.29</time>
   <energy>
    <i name="e_fr_energy">   -230.41638885 </i>
    <i name="e_wo_entrp">   -230.40818181 </i>
    <i name="e_0_energy">   -230.41365317 </i>
   </energy>
  </scstep>
  <scstep>
   <time name="diag">    1.27    1.28</time>
   <time name="diis">    4.22    4.26</time>
   <time name="orth">    0.20    0.20</time>
   <time name="total">    6.20    6.24</time>
   <energy>
    <i name="e_fr_energy">   -230.41491636 </i>
    <i name="e_wo_entrp">   -230.40390057 </i>
    <i name="e_0_energy">   -230.41124443 </i>
   </energy>
  </scstep>
  <scstep>
   <time name="diag">    1.17    1.18</time>
   <time name="diis">    4.32    4.36</time>
   <time name="orth">    0.22    0.23</time>
   <time name="total">    6.27    6.32</time>
   <energy>
    <i name="e_fr_energy">   -230.41419197 </i>
    <i name="e_wo_entrp">   -230.40424647 </i>
    <i name="e_0_energy">   -230.41087680 </i>
   </energy>
  </scstep>
  <scstep>
   <time name="diag">    1.37    1.38</time>
   <time name="diis">    2.84    2.86</time>
   <time name="orth">    0.22    0.22</time>
   <time name="total">    4.96    5.00</time>
   <energy>
    <i name="e_fr_energy">   -230.41405077 </i>
    <i name="e_wo_entrp">   -230.40341826 </i>
    <i name="e_0_energy">   -230.41050660 </i>
   </energy>
  </scstep>
  <scstep>
   <time name="diag">    1.36    1.37</time>
   <time name="diis">    2.69    2.71</time>
   <time name="orth">    0.22    0.22</time>
   <time name="total">    4.41    4.45</time>
   <energy>
    <i name="alphaZ">    975.10247152 </i>
    <i name="ewald">  90963.38405053 </i>
    <i name="hartreedc">-119671.71397530 </i>
    <i name="XCdc">    178.07337839 </i>
    <i name="pawpsdc">  30066.01115206 </i>
    <i name="pawaedc"> -29151.58247673 </i>
    <i name="eentropy">     -0.01004717 </i>
    <i name="bandstr">   -849.57276064 </i>
    <i name="atom">  27259.89416086 </i>
    <i name="e_fr_energy">   -230.41404647 </i>
    <i name="e_wo_entrp">   -230.40399930 </i>
    <i name="e_0_energy">   -230.41069741 </i>
   </energy>
  </scstep>
  <structure>
   <crystal>
    <varray name="basis" >
     <v>       7.29695512      -4.21289900       0.00000000 </v>
     <v>       0.00000000       8.42579800       0.00000000 </v>
     <v>       0.00000000       0.00000000      21.87963500 </v>
    </varray>
    <i name="volume">   1345.21837528 </i>
    <varray name="rec_basis" >
     <v>       0.13704346       0.00000000       0.00000000 </v>
     <v>       0.06852173       0.11868312       0.00000000 </v>
     <v>       0.00000000       0.00000000       0.04570460 </v>
    </varray>
   </crystal>
   <varray name="positions" >
    <v>       0.69787463       0.42641310       0.47779041 </v>
    <v>       0.90324270       0.38993393       0.46746120 </v>
    <v>       0.67229912       0.45790730       0.52711984 </v>
    <v>       0.98675500       0.32859100       0.07437600 </v>
    <v>       0.32008800       0.32859100       0.07437600 </v>
    <v>       0.65342200       0.32859100       0.07437600 </v>
    <v>       0.98675500       0.66192500       0.07437600 </v>
    <v>       0.32008800       0.66192500       0.07437600 </v>
    <v>       0.65342200       0.66192500       0.07437600 </v>
    <v>       0.32008800       0.99525800       0.07437600 </v>
    <v>       0.65342200       0.99525800       0.07437600 </v>
    <v>       0.98675500       0.99525800       0.07437600 </v>
    <v>       0.20897700       0.10636900       0.17918600 </v>
    <v>       0.54231100       0.10636900       0.17918600 </v>
    <v>       0.87564400       0.10636900       0.17918600 </v>
    <v>       0.20897700       0.43970300       0.17918600 </v>
    <v>       0.54231100       0.43970300       0.17918600 </v>
    <v>       0.87564400       0.43970300       0.17918600 </v>
    <v>       0.20897700       0.77303600       0.17918600 </v>
    <v>       0.54231100       0.77303600       0.17918600 </v>
    <v>       0.87564400       0.77303600       0.17918600 </v>
    <v>       0.09644741       0.54736479       0.28538844 </v>
    <v>       0.43097350       0.88454443       0.28404314 </v>
    <v>       0.76134155       0.22126870       0.28094475 </v>
    <v>       0.09388059       0.21938029       0.28575111 </v>
    <v>       0.43045869       0.21989499       0.28111574 </v>
    <v>       0.09509929       0.88644953       0.28361243 </v>
    <v>       0.76128887       0.88488868       0.28531486 </v>
    <v>       0.42891094       0.55080721       0.28388582 </v>
    <v>       0.76637844       0.55134759       0.28528782 </v>
    <v>       0.32132361       0.65968199       0.38735764 </v>
    <v>       0.64899015       0.99300290       0.38520790 </v>
    <v>       0.32485052       0.32327418       0.38807073 </v>
    <v>       0.98489374       0.99338074       0.38693131 </v>
    <v>       0.31850331       0.99196086       0.38855525 </v>
    <v>       0.64267092       0.32239568       0.39431652 </v>
    <v>       0.99430651       0.66909394       0.38502187 </v>
    <v>       0.99003811       0.31731960       0.39425997 </v>
    <v>       0.65591928       0.65961457       0.39027042 </v>
   </varray>
  </structure>
  <varray name="forces" >
   <v>      -0.01910162      -1.56226895      -1.68518518 </v>
   <v>       0.44905365       0.29846231       0.10100121 </v>
   <v>       0.11318902       0.33128596       0.58538977 </v>
   <v>       0.02707358      -0.05002712       0.11357169 </v>
   <v>      -0.04120988      -0.05968665       0.11294767 </v>
   <v>      -0.03669998      -0.01136517       0.08130553 </v>
   <v>       0.00503799      -0.00215390       0.14295462 </v>
   <v>      -0.01201181       0.00700752       0.13628947 </v>
   <v>       0.01268705      -0.03499577       0.18977234 </v>
   <v>       0.04795847      -0.03661083       0.05231264 </v>
   <v>      -0.00352392       0.03860223       0.11529624 </v>
   <v>       0.03422941       0.03183888       0.10176895 </v>
   <v>      -0.19196910       0.06221761      -0.10861634 </v>
   <v>      -0.14158280      -0.03398531      -0.30415214 </v>
   <v>       0.11565332      -0.14774920      -0.05180145 </v>
   <v>      -0.08069972      -0.00519140       0.10682728 </v>
   <v>       0.08616724       0.18521259      -0.01767322 </v>
   <v>       0.11305979       0.19288982      -0.01672162 </v>
   <v>      -0.06719953       0.02098341       0.12110492 </v>
   <v>       0.04764408       0.03064502       0.06831375 </v>
   <v>      -0.02560103       0.12763385       0.03824093 </v>
   <v>       0.04068297       0.09083470      -0.46709380 </v>
   <v>      -0.33783490       0.10747825      -0.45403967 </v>
   <v>       0.06989126      -0.18959968       0.76920659 </v>
   <v>      -0.04508340       0.20094901      -0.19670367 </v>
   <v>       0.09133293      -0.19785517       0.58584281 </v>
   <v>       0.21997955      -0.28997255      -0.41867446 </v>
   <v>       0.06834974      -0.28702815      -0.67861334 </v>
   <v>       0.21775271      -0.16738571      -0.06302460 </v>
   <v>      -0.31023157       0.11581307      -0.45318840 </v>
   <v>       0.14733231      -0.03791170       0.11144345 </v>
   <v>       0.05297190      -0.06067793       0.36220725 </v>
   <v>      -0.38312239       0.28672475      -0.15874838 </v>
   <v>       0.06760350      -0.18790714       0.45373310 </v>
   <v>       0.00274658      -0.00536065      -0.11225388 </v>
   <v>      -0.17529723       0.53123060       0.45495592 </v>
   <v>      -0.01768524      -0.03116208       0.47850283 </v>
   <v>      -0.04230864       0.26965501       0.21293835 </v>
   <v>      -0.09923427       0.46943043      -0.30943718 </v>
  </varray>
  <varray name="stress" >
   <v>     -44.38736533       1.31643151       1.84930905 </v>
   <v>       1.31643157     -46.87439502      -1.05377722 </v>
   <v>       1.84930912      -1.05377725      -6.21286148 </v>
  </varray>
  <energy>
   <i name="e_fr_energy">   -230.41404647 </i>
   <i name="e_wo_entrp">   -230.41069741 </i>
   <i name="e_0_energy">     -0.01004717 </i>
  </energy>
  <time name="totalsc">   66.16   66.92</time>
 </calculation>
 <calculation>
