metal                                   
           1
     7.296955   -4.212899    0.000000
     0.000000    8.425798    0.000000
     0.000000    0.000000   21.879635
   C    O    Pt
   1   2  36
Direct configuration=     1
   0.69895623  0.43088526  0.47844456
   0.90168310  0.38813464  0.46742346
   0.67081968  0.45774114  0.52833309
   0.98675500  0.32859100  0.07437600
   0.32008800  0.32859100  0.07437600
   0.65342200  0.32859100  0.07437600
   0.98675500  0.66192500  0.07437600
   0.32008800  0.66192500  0.07437600
   0.65342200  0.66192500  0.07437600
   0.32008800  0.99525800  0.07437600
   0.65342200  0.99525800  0.07437600
   0.98675500  0.99525800  0.07437600
   0.20897700  0.10636900  0.17918600
   0.54231100  0.10636900  0.17918600
   0.87564400  0.10636900  0.17918600
   0.20897700  0.43970300  0.17918600
   0.54231100  0.43970300  0.17918600
   0.87564400  0.43970300  0.17918600
   0.20897700  0.77303600  0.17918600
   0.54231100  0.77303600  0.17918600
   0.87564400  0.77303600  0.17918600
   0.09610528  0.54703751  0.28632390
   0.43328070  0.88492516  0.28498417
   0.76088637  0.22173190  0.27973864
   0.09391815  0.21813032  0.28619706
   0.43001395  0.22046149  0.28014905
   0.09358829  0.88700100  0.28455007
   0.76117048  0.88651879  0.28666978
   0.42765263  0.55107484  0.28399013
   0.76835072  0.55169102  0.28617926
   0.32054864  0.65964650  0.38705544
   0.64869585  0.99285681  0.38439265
   0.32653140  0.32300858  0.38833153
   0.98440924  0.99401532  0.38593869
   0.31843678  0.99188483  0.38870788
   0.64312639  0.32051935  0.39335247
   0.99428278  0.66922785  0.38400559
   0.99031966  0.31613154  0.39381033
   0.65651324  0.65827783  0.39059456
Direct configuration=     2
   0.69844303  0.42726494  0.47710246
   0.90278164  0.38929267  0.46739594
   0.67145096  0.45833368  0.52828730
   0.98675500  0.32859100  0.07437600
   0.32008800  0.32859100  0.07437600
   0.65342200  0.32859100  0.07437600
   0.98675500  0.66192500  0.07437600
   0.32008800  0.66192500  0.07437600
   0.65342200  0.66192500  0.07437600
   0.32008800  0.99525800  0.07437600
   0.65342200  0.99525800  0.07437600
   0.98675500  0.99525800  0.07437600
   0.20897700  0.10636900  0.17918600
   0.54231100  0.10636900  0.17918600
   0.87564400  0.10636900  0.17918600
   0.20897700  0.43970300  0.17918600
   0.54231100  0.43970300  0.17918600
   0.87564400  0.43970300  0.17918600
   0.20897700  0.77303600  0.17918600
   0.54231100  0.77303600  0.17918600
   0.87564400  0.77303600  0.17918600
   0.09638962  0.54724650  0.28561773
   0.43149625  0.88464336  0.28426768
   0.76123978  0.22144203  0.28059533
   0.09392869  0.21913241  0.28585277
   0.43033585  0.22006138  0.28084789
   0.09475846  0.88663156  0.28382885
   0.76122015  0.88523217  0.28564614
   0.42858538  0.55085666  0.28391217
   0.76684614  0.55142763  0.28550938
   0.32110503  0.65963731  0.38729464
   0.64891368  0.99302003  0.38502513
   0.32536473  0.32319909  0.38814112
   0.98478751  0.99355978  0.38670178
   0.31849040  0.99195320  0.38860498
   0.64293796  0.32195976  0.39413647
   0.99431799  0.66913362  0.38478233
   0.99010653  0.31702882  0.39416781
   0.65606178  0.65916049  0.39038790
Direct configuration=     3
   0.69787463  0.42641310  0.47779041
   0.90324270  0.38993393  0.46746120
   0.67229912  0.45790730  0.52711984
   0.98675500  0.32859100  0.07437600
   0.32008800  0.32859100  0.07437600
   0.65342200  0.32859100  0.07437600
   0.98675500  0.66192500  0.07437600
   0.32008800  0.66192500  0.07437600
   0.65342200  0.66192500  0.07437600
   0.32008800  0.99525800  0.07437600
   0.65342200  0.99525800  0.07437600
   0.98675500  0.99525800  0.07437600
   0.20897700  0.10636900  0.17918600
   0.54231100  0.10636900  0.17918600
   0.87564400  0.10636900  0.17918600
   0.20897700  0.43970300  0.17918600
   0.54231100  0.43970300  0.17918600
   0.87564400  0.43970300  0.17918600
   0.20897700  0.77303600  0.17918600
   0.54231100  0.77303600  0.17918600
   0.87564400  0.77303600  0.17918600
   0.09644741  0.54736479  0.28538844
   0.43097350  0.88454443  0.28404314
   0.76134155  0.22126870  0.28094475
   0.09388059  0.21938029  0.28575111
   0.43045869  0.21989499  0.28111574
   0.09509929  0.88644953  0.28361243
   0.76128887  0.88488868  0.28531486
   0.42891094  0.55080721  0.28388582
   0.76637844  0.55134759  0.28528782
   0.32132361  0.65968199  0.38735764
   0.64899015  0.99300290  0.38520790
   0.32485052  0.32327418  0.38807073
   0.98489374  0.99338074  0.38693131
   0.31850331  0.99196086  0.38855525
   0.64267092  0.32239568  0.39431652
   0.99430651  0.66909394  0.38502187
   0.99003811  0.31731960  0.39425997
   0.65591928  0.65961457  0.39027042
