 vasp.5.4.4 16052018 (build Apr 24 2014 20:13:14) complex standard
 Contain Constrained Minimization Technique (TS), Periodic NBO, VASPsol, libbeef, VASP2WANNIER90, Constrained Cell Relaxation
 executed on Center for Computational Chemistry by phu@node09 date 2025.09.27 23:42:33
 running on    8 total cores
 distrk:  each k-point on    8 cores,    1 groups
 distr:  one band on NCORES_PER_BAND=   2 cores,    4 groups


--------------------------------------------------------------------------------------------------------


 INCAR:
 POTCAR:   PAW_PBE C 08Apr2002                    
 POTCAR:   PAW_PBE O 08Apr2002                    
 POTCAR:    PAW_PBE Pt 04Feb2005                  
 POTCAR:   PAW_PBE C 08Apr2002                    
   VRHFIN =C: s2p2                                                              
   LEXCH  = PE                                                                  
   EATOM  =   147.1560 eV,   10.8157 Ry                                         
                                                                                
   TITEL  = PAW_PBE C 08Apr2002                                                 
   LULTRA =        F    use ultrasoft PP ?                                      
   IUNSCR =        0    unscreen: 0-lin 1-nonlin 2-no                           
   RPACOR =     .000    partial core radius                                     
   POMASS =   12.011; ZVAL   =    4.000    mass and valenz                      
   RCORE  =    1.500    outmost cutoff radius                                   
   RWIGS  =    1.630; RWIGS  =     .863    wigner-seitz radius (au A)           
   ENMAX  =  400.000; ENMIN  =  300.000 eV                                      
   ICORE  =        2    local potential                                         
   LCOR   =        T    correct aug charges                                     
   LPAW   =        T    paw PP                                                  
   EAUG   =  644.873                                                            
   DEXC   =     .000                                                            
   RMAX   =    2.266    core radius for proj-oper                               
   RAUG   =    1.300    factor for augmentation sphere                          
   RDEP   =    1.501    radius for radial grids                                 
   RDEPT  =    1.300    core radius for aug-charge                              
   QCUT   =   -5.516; QGAM   =   11.032    optimization parameters              
                                                                                
   Description                                                                  
     l     E      TYP  RCUT    TYP  RCUT                                        
     0   .000     23  1.200                                                     
     0   .000     23  1.200                                                     
     1   .000     23  1.500                                                     
     1  2.500     23  1.500                                                     
     2   .000      7  1.500                                                     
  local pseudopotential read in
  atomic valenz-charges read in
  non local Contribution for L=           0  read in
    real space projection operators read in
  non local Contribution for L=           0  read in
    real space projection operators read in
  non local Contribution for L=           1  read in
    real space projection operators read in
  non local Contribution for L=           1  read in
    real space projection operators read in
    PAW grid and wavefunctions read in
 
   number of l-projection  operators is LMAX  =           4
   number of lm-projection operators is LMMAX =           8
 
 POTCAR:   PAW_PBE O 08Apr2002                    
   VRHFIN =O: s2p4                                                              
   LEXCH  = PE                                                                  
   EATOM  =   432.3788 eV,   31.7789 Ry                                         
                                                                                
   TITEL  = PAW_PBE O 08Apr2002                                                 
   LULTRA =        F    use ultrasoft PP ?                                      
   IUNSCR =        0    unscreen: 0-lin 1-nonlin 2-no                           
   RPACOR =     .000    partial core radius                                     
   POMASS =   16.000; ZVAL   =    6.000    mass and valenz                      
   RCORE  =    1.520    outmost cutoff radius                                   
   RWIGS  =    1.550; RWIGS  =     .820    wigner-seitz radius (au A)           
   ENMAX  =  400.000; ENMIN  =  300.000 eV                                      
   ICORE  =        2    local potential                                         
   LCOR   =        T    correct aug charges                                     
   LPAW   =        T    paw PP                                                  
   EAUG   =  605.392                                                            
   DEXC   =     .000                                                            
   RMAX   =    2.264    core radius for proj-oper                               
   RAUG   =    1.300    factor for augmentation sphere                          
   RDEP   =    1.550    radius for radial grids                                 
   QCUT   =   -5.520; QGAM   =   11.041    optimization parameters              
                                                                                
   Description                                                                  
     l     E      TYP  RCUT    TYP  RCUT                                        
     0   .000     23  1.200                                                     
     0  -.700     23  1.200                                                     
     1   .000     23  1.520                                                     
     1   .600     23  1.520                                                     
     2   .000      7  1.500                                                     
  local pseudopotential read in
  atomic valenz-charges read in
  non local Contribution for L=           0  read in
    real space projection operators read in
  non local Contribution for L=           0  read in
    real space projection operators read in
  non local Contribution for L=           1  read in
    real space projection operators read in
  non local Contribution for L=           1  read in
    real space projection operators read in
    PAW grid and wavefunctions read in
 
   number of l-projection  operators is LMAX  =           4
   number of lm-projection operators is LMMAX =           8
 
 POTCAR:    PAW_PBE Pt 04Feb2005                  
   VRHFIN =Pt: s1d9                                                             
   LEXCH  = PE                                                                  
   EATOM  =   729.1182 eV,   53.5887 Ry                                         
                                                                                
   TITEL  = PAW_PBE Pt 04Feb2005                                                
   LULTRA =        F    use ultrasoft PP ?                                      
   IUNSCR =        1    unscreen: 0-lin 1-nonlin 2-no                           
   RPACOR =    2.330    partial core radius                                     
   POMASS =  195.080; ZVAL   =   10.000    mass and valenz                      
   RCORE  =    2.600    outmost cutoff radius                                   
   RWIGS  =    2.750; RWIGS  =    1.455    wigner-seitz radius (au A)           
   ENMAX  =  230.283; ENMIN  =  172.712 eV                                      
   ICORE  =        3    local potential                                         
   LCOR   =        T    correct aug charges                                     
   LPAW   =        T    paw PP                                                  
   EAUG   =  358.966                                                            
   DEXC   =     .000                                                            
   RMAX   =    3.038    core radius for proj-oper                               
   RAUG   =    1.300    factor for augmentation sphere                          
   RDEP   =    2.761    radius for radial grids                                 
   QCUT   =   -4.114; QGAM   =    8.228    optimization parameters              
                                                                                
   Description                                                                  
     l     E      TYP  RCUT    TYP  RCUT                                        
     2   .000     23  2.500                                                     
     2   .000     23  2.500                                                     
     0   .000     23  2.500                                                     
     0   .000     23  2.500                                                     
     1  -.200     23  2.600                                                     
     1  1.500     23  2.600                                                     
     3   .000     23  2.500                                                     
  local pseudopotential read in
  partial core-charges read in
  atomic valenz-charges read in
  non local Contribution for L=           2  read in
    real space projection operators read in
  non local Contribution for L=           2  read in
    real space projection operators read in
  non local Contribution for L=           0  read in
    real space projection operators read in
  non local Contribution for L=           0  read in
    real space projection operators read in
  non local Contribution for L=           1  read in
    real space projection operators read in
  non local Contribution for L=           1  read in
    real space projection operators read in
    PAW grid and wavefunctions read in
 
   number of l-projection  operators is LMAX  =           6
   number of lm-projection operators is LMMAX =          18
 
 Optimization of the real space projectors (new method)

 maximal supplied QI-value         = 25.13
 optimisation between [QCUT,QGAM] = [ 10.81, 21.61] = [ 32.71,130.83] Ry 
 Optimized for a Real-space Cutoff    1.23 Angstroem

   l    n(q)    QCUT    max X(q) W(low)/X(q) W(high)/X(q)  e(spline) 
   0      8    10.807     5.582    0.53E-04    0.84E-04    0.44E-07
   0      8    10.807    69.432    0.35E-03    0.71E-03    0.24E-06
   1      7    10.807     2.780    0.44E-04    0.88E-04    0.89E-07
   1      7    10.807     4.549    0.14E-03    0.28E-03    0.13E-06
 Optimization of the real space projectors (new method)

 maximal supplied QI-value         = 24.76
 optimisation between [QCUT,QGAM] = [ 10.64, 21.54] = [ 31.73,129.89] Ry 
 Optimized for a Real-space Cutoff    1.23 Angstroem

   l    n(q)    QCUT    max X(q) W(low)/X(q) W(high)/X(q)  e(spline) 
   0      8    10.645     4.192    0.69E-04    0.93E-04    0.58E-07
   0      8    10.645     8.473    0.40E-03    0.65E-03    0.17E-06
   1      7    10.645     2.474    0.80E-04    0.12E-03    0.30E-07
   1      7    10.645     3.912    0.24E-03    0.53E-03    0.16E-06
 Optimization of the real space projectors (new method)

 maximal supplied QI-value         = 14.36
 optimisation between [QCUT,QGAM] = [ 10.77, 21.69] = [ 32.49,131.70] Ry 
 Optimized for a Real-space Cutoff    1.46 Angstroem

   l    n(q)    QCUT    max X(q) W(low)/X(q) W(high)/X(q)  e(spline) 
   2      9    10.771     3.903    0.38E-04    0.12E-03    0.82E-07
   2      9    10.771    18.372    0.13E-03    0.32E-03    0.28E-06
   0     10    10.771    13.697    0.11E-04    0.86E-05    0.85E-08
   0     10    10.771    65.529    0.40E-04    0.12E-03    0.14E-06
   1      9    10.771     7.604    0.48E-04    0.31E-04    0.38E-07
   1      9    10.771    12.136    0.35E-03    0.16E-03    0.23E-06
 PAW_PBE C 08Apr2002                    :
 energy of atom  1       EATOM= -147.1560
 kinetic energy error for atom=    0.0116 (will be added to EATOM!!)
 PAW_PBE O 08Apr2002                    :
 energy of atom  2       EATOM= -432.3788
 kinetic energy error for atom=    0.0389 (will be added to EATOM!!)
  PAW_PBE Pt 04Feb2005                  :
 energy of atom  3       EATOM= -729.1182
 kinetic energy error for atom=    0.0051 (will be added to EATOM!!)
 
 
 POSCAR: C    O    Pt                            
  positions in direct lattice
  No initial velocities read in
 exchange correlation table for  LEXCH =        8
   RHO(1)=    0.500       N(1)  =     2000
   RHO(2)=  100.500       N(2)  =     4000

 VTST: version 3.2, (02/03/18)

 CHAIN: initializing optimizer
 
 OPT: Using VASP QUASI-newton optimizer
 CHAIN: Read ICHAIN            0
 
 POSCAR: C    O    Pt                            
  positions in direct lattice
  No initial velocities read in
 


--------------------------------------------------------------------------------------------------------


 ion  position               nearest neighbor table
   1  0.706  0.434  0.479-   3 1.16  36 2.04
   2  0.910  0.382  0.460-  38 1.79  36 2.49  37 2.71
   3  0.677  0.461  0.529-   1 1.16
   4  0.987  0.329  0.074-  15 2.81  16 2.81  12 2.81   5 2.81  11 2.81   6 2.81  18 2.81   8 2.81
                             7 2.81
   5  0.320  0.329  0.074-  13 2.81  10 2.81   4 2.81  12 2.81  16 2.81  17 2.81   8 2.81   9 2.81
                             6 2.81
   6  0.653  0.329  0.074-  14 2.81  18 2.81  11 2.81   4 2.81  17 2.81   7 2.81  10 2.81   9 2.81
                             5 2.81
   7  0.987  0.662  0.074-  18 2.81  21 2.81  19 2.81  12 2.81   8 2.81  10 2.81   9 2.81   6 2.81
                             4 2.81
   8  0.320  0.662  0.074-  16 2.81  19 2.81  10 2.81   7 2.81  20 2.81   4 2.81  11 2.81   5 2.81
                             9 2.81
   9  0.653  0.662  0.074-  17 2.81  20 2.81  21 2.81  11 2.81  12 2.81   7 2.81   6 2.81   5 2.81
                             8 2.81
  10  0.320  0.995  0.074-  13 2.81  19 2.81   5 2.81   8 2.81  12 2.81   7 2.81  14 2.81   6 2.81
                            11 2.81
  11  0.653  0.995  0.074-  14 2.81  20 2.81  15 2.81   9 2.81   6 2.81  12 2.81   4 2.81   8 2.81
                            10 2.81
  12  0.987  0.995  0.074-  15 2.81  21 2.81  13 2.81   7 2.81   4 2.81  10 2.81   5 2.81  11 2.81
                             9 2.81
  13  0.209  0.106  0.179-  27 2.73  10 2.81   5 2.81  12 2.81  19 2.81  15 2.81  21 2.81  16 2.81
                            17 2.81  14 2.81  25 2.82  26 2.88
  14  0.542  0.106  0.179-  23 2.78  24 2.80   6 2.81  11 2.81  20 2.81  15 2.81  10 2.81  18 2.81
                            19 2.81  17 2.81  13 2.81  26 2.88
  15  0.876  0.106  0.179-  28 2.76  25 2.77   4 2.81  12 2.81  11 2.81  21 2.81  13 2.81  20 2.81
                            14 2.81  16 2.81  18 2.81  24 2.82
  16  0.209  0.440  0.179-  22 2.68  29 2.71  25 2.77   8 2.81   4 2.81  19 2.81  18 2.81   5 2.81
                            15 2.81  20 2.81  13 2.81  17 2.81
  17  0.542  0.440  0.179-  29 2.70  30 2.77   9 2.81  20 2.81  21 2.81  18 2.81   6 2.81   5 2.81
                            14 2.81  16 2.81  13 2.81  26 2.89
  18  0.876  0.440  0.179-  22 2.72  24 2.79  30 2.79   7 2.81   6 2.81  21 2.81  16 2.81  19 2.81
                            17 2.81   4 2.81  14 2.81  15 2.81
  19  0.209  0.773  0.179-  27 2.70  22 2.72  23 2.76  10 2.81   8 2.81   7 2.81  16 2.81  13 2.81
                            21 2.81  18 2.81  14 2.81  20 2.81
  20  0.542  0.773  0.179-  29 2.73  28 2.75  23 2.77  11 2.81   9 2.81  17 2.81  14 2.81  21 2.81
                            15 2.81   8 2.81  16 2.81  19 2.81
  21  0.876  0.773  0.179-  27 2.71  28 2.77  30 2.79  12 2.81   7 2.81   9 2.81  18 2.81  15 2.81
                            19 2.81  13 2.81  17 2.81  20 2.81
  22  0.100  0.548  0.278-  16 2.68  18 2.72  19 2.72  25 2.73  29 2.79  23 2.79  24 2.80  27 2.82
                            30 2.86  37 2.86  31 2.93  38 3.08
  23  0.429  0.882  0.282-  19 2.76  20 2.77  32 2.77  14 2.78  22 2.79  27 2.80  28 2.80  35 2.80
                            26 2.82  29 2.83  24 2.84  31 2.84
  24  0.764  0.221  0.284-  32 2.77  30 2.78  25 2.78  26 2.78  18 2.79  14 2.80  22 2.80  15 2.82
                            28 2.84  23 2.84  36 2.88  38 2.98
  25  0.094  0.221  0.283-  22 2.73  16 2.77  15 2.77  24 2.78  29 2.79  13 2.82  28 2.82  38 2.85
                            26 2.86  34 2.87  27 2.88  33 2.88
  26  0.431  0.217  0.288-  35 2.67  33 2.71  36 2.78  24 2.78  29 2.80  30 2.80  23 2.82  27 2.83
                            25 2.86  14 2.88  13 2.88  17 2.89
  27  0.097  0.881  0.279-  19 2.70  21 2.71  13 2.73  37 2.79  23 2.80  30 2.81  22 2.82  28 2.83
                            26 2.83  35 2.84  25 2.88  34 2.90
  28  0.763  0.884  0.281-  32 2.74  20 2.75  15 2.76  21 2.77  23 2.80  30 2.82  25 2.82  29 2.82
                            27 2.83  24 2.84  39 2.85  34 2.88
  29  0.431  0.547  0.278-  17 2.70  16 2.71  20 2.73  30 2.78  22 2.79  25 2.79  26 2.80  28 2.82
                            23 2.83  39 2.91  33 2.94  31 2.95
  30  0.762  0.549  0.283-  17 2.77  24 2.78  29 2.78  18 2.79  21 2.79  26 2.80  27 2.81  37 2.81
                            28 2.82  39 2.85  22 2.86  36 2.92
  31  0.322  0.666  0.390-  37 2.76  32 2.77  39 2.79  35 2.80  23 2.84  38 2.86  33 2.91  22 2.93
                            29 2.95
  32  0.653  0.990  0.384-  39 2.74  28 2.74  31 2.77  24 2.77  23 2.77  34 2.82  38 2.82  36 2.85
                            35 2.86
  33  0.323  0.321  0.390-  26 2.71  35 2.72  36 2.72  38 2.76  34 2.80  39 2.84  25 2.88  31 2.91
                            29 2.94
  34  0.989  0.992  0.389-  38 2.71  37 2.75  35 2.75  33 2.80  39 2.80  32 2.82  25 2.87  28 2.88
                            27 2.90
  35  0.317  0.996  0.385-  26 2.67  33 2.72  37 2.73  34 2.75  36 2.78  31 2.80  23 2.80  27 2.84
                            32 2.86
  36  0.647  0.324  0.393-   1 2.04   2 2.49  33 2.72  35 2.78  26 2.78  32 2.85  39 2.86  24 2.88
                            30 2.92  37 2.93  38 2.95
  37  0.996  0.669  0.385-   2 2.71  35 2.73  34 2.75  31 2.76  27 2.79  30 2.81  22 2.86  39 2.88
                            36 2.93  38 2.98
  38  0.994  0.316  0.396-   2 1.79  34 2.71  33 2.76  32 2.82  25 2.85  31 2.86  36 2.95  24 2.98
                            37 2.98  22 3.08
  39  0.652  0.665  0.389-  32 2.74  31 2.79  34 2.80  33 2.84  30 2.85  28 2.85  36 2.86  37 2.88
                            29 2.91
 

IMPORTANT INFORMATION: All symmetrisations will be switched off!
NOSYMM: (Re-)initialisation of all symmetry stuff for point group C_1.

 
 
 KPOINTS: mesh auto                               

Automatic generation of k-mesh.
Space group operators:
 irot       det(A)        alpha          n_x          n_y          n_z        tau_x        tau_y        tau_z
    1     1.000000     0.000000     1.000000     0.000000     0.000000     0.000000     0.000000     0.000000
 
 Subroutine IBZKPT returns following result:
 ===========================================
 
 Found      4 irreducible k-points:
 
 Following reciprocal coordinates:
            Coordinates               Weight
  0.000000  0.000000  0.000000      1.000000
  0.500000  0.000000  0.000000      1.000000
 -0.000000  0.500000  0.000000      1.000000
  0.500000  0.500000  0.000000      1.000000
 
 Following cartesian coordinates:
            Coordinates               Weight
  0.000000  0.000000  0.000000      1.000000
  0.068522  0.000000  0.000000      1.000000
  0.034261  0.059342  0.000000      1.000000
  0.102783  0.059342  0.000000      1.000000
 


--------------------------------------------------------------------------------------------------------




 Dimension of arrays:
   k-points           NKPTS =      4   k-points in BZ     NKDIM =      4   number of bands    NBANDS=    228
   number of dos      NEDOS =    301   number of ions     NIONS =     39
   non local maximal  LDIM  =      6   non local SUM 2l+1 LMDIM =     18
   total plane-waves  NPLWV = 276480
   max r-space proj   IRMAX =   2756   max aug-charges    IRDMAX=  12646
   dimension x,y,z NGX =    48 NGY =   48 NGZ =  120
   dimension x,y,z NGXF=    96 NGYF=   96 NGZF=  240
   support grid    NGXF=    96 NGYF=   96 NGZF=  240
   ions per type =               1   2  36
   NGX,Y,Z   is equivalent  to a cutoff of   9.47,  9.47,  9.12 a.u.
   NGXF,Y,Z  is equivalent  to a cutoff of  18.94, 18.94, 18.24 a.u.

 SYSTEM =  metal                                   
 POSCAR =  C    O    Pt                            

 Startparameter for this run:
   NWRITE =      2    write-flag & timer
   PREC   = normal    normal or accurate (medium, high low for compatibility)
   ISTART =      0    job   : 0-new  1-cont  2-samecut
   ICHARG =      2    charge: 1-file 2-atom 10-const
   ISPIN  =      1    spin polarized calculation?
   LNONCOLLINEAR =      F non collinear calculations
   LSORBIT =      F    spin-orbit coupling
   INIWAV =      1    electr: 0-lowe 1-rand  2-diag
   LASPH  =      F    aspherical Exc in radial PAW
   METAGGA=      F    non-selfconsistent MetaGGA calc.

 Electronic Relaxation 1
   ENCUT  =  450.0 eV  33.07 Ry    5.75 a.u.  14.57 14.57 37.84*2*pi/ulx,y,z
   ENINI  =  450.0     initial cutoff
   ENAUG  =  644.9 eV  augmentation charge cutoff
   NELM   =     60;   NELMIN=  8; NELMDL= -5     # of ELM steps 
   EDIFF  = 0.1E-03   stopping-criterion for ELM
   LREAL  =      T    real-space projection
   NLSPLINE    = F    spline interpolate recip. space projectors
   LCOMPAT=      F    compatible to vasp.4.4
   GGA_COMPAT  = T    GGA compatible to vasp.4.4-vasp.4.6
   LMAXPAW     = -100 max onsite density
   LMAXMIX     =    2 max onsite mixed and CHGCAR
   VOSKOWN=      0    Vosko Wilk Nusair interpolation
   ROPT   =   -0.00050  -0.00050  -0.00050
 Ionic relaxation
   EDIFFG = -.5E-01   stopping-criterion for IOM
   NSW    =   5000    number of steps for IOM
   NBLOCK =      1;   KBLOCK =   5000    inner block; outer block 
   IBRION =      1    ionic relax: 0-MD 1-quasi-New 2-CG
   NFREE  =      0    steps in history (QN), initial steepest desc. (CG)
   ISIF   =      2    stress and relaxation
   IWAVPR =     11    prediction:  0-non 1-charg 2-wave 3-comb
   ISYM   =      0    0-nonsym 1-usesym 2-fastsym
   LCORR  =      T    Harris-Foulkes like correction to forces

   POTIM  = 0.2000    time-step for ionic-motion
   TEIN   =    0.0    initial temperature
   TEBEG  =    0.0;   TEEND  =   0.0 temperature during run
   SMASS  =  -3.00    Nose mass-parameter (am)
   estimated Nose-frequenzy (Omega)   =  0.10E-29 period in steps =****** mass=  -0.162E-26a.u.
   SCALEE = 1.0000    scale energy and forces
   NPACO  =    256;   APACO  = 16.0  distance and # of slots for P.C.
   PSTRESS=    0.0 pullay stress

  Mass of Ions in am
   POMASS =  12.01 16.00195.08
  Ionic Valenz
   ZVAL   =   4.00  6.00 10.00
  Atomic Wigner-Seitz radii
   RWIGS  =  -1.00 -1.00 -1.00
  virtual crystal weights 
   VCA    =   1.00  1.00  1.00
   NELECT =     376.0000    total number of electrons
   NUPDOWN=      -1.0000    fix difference up-down

 DOS related values:
   EMIN   =  10.00;   EMAX   =-10.00  energy-range for DOS
   EFERMI =   0.00
   ISMEAR =     1;   SIGMA  =   0.20  broadening in eV -4-tet -1-fermi 0-gaus

 Electronic relaxation 2 (details)
   IALGO  =     68    algorithm
   LDIAG  =      T    sub-space diagonalisation (order eigenvalues)
   LSUBROT=      F    optimize rotation matrix (better conditioning)
   TURBO    =      0    0=normal 1=particle mesh
   IRESTART =      0    0=no restart 2=restart with 2 vectors
   NREBOOT  =      0    no. of reboots
   NMIN     =      0    reboot dimension
   EREF     =   0.00    reference energy to select bands
   IMIX   =      4    mixing-type and parameters
     AMIX     =   0.40;   BMIX     =  1.00
     AMIX_MAG =   1.60;   BMIX_MAG =  1.00
     AMIN     =   0.10
     WC   =   100.;   INIMIX=   1;  MIXPRE=   1;  MAXMIX= -45

 Intra band minimization:
   WEIMIN = 0.0010     energy-eigenvalue tresh-hold
   EBREAK =  0.11E-06  absolut break condition
   DEPER  =   0.30     relativ break condition  

   TIME   =   0.40     timestep for ELM

  volume/ion in A,a.u.               =      34.49       232.77
  Fermi-wavevector in a.u.,A,eV,Ry     =   1.070385  2.022734 15.588510  1.145723
  Thomas-Fermi vector in A             =   2.206093
 
 Write flags
   LWAVE        =      F    write WAVECAR
   LDOWNSAMPLE  =      F    k-point downsampling of WAVECAR
   LCHARG       =      F    write CHGCAR
   LVTOT        =      F    write LOCPOT, total local potential
   LVHAR        =      F    write LOCPOT, Hartree potential only
   LELF         =      F    write electronic localiz. function (ELF)
   LORBIT       =      0    0 simple, 1 ext, 2 COOP (PROOUT), +10 PAW based schemes


 Dipole corrections
   LMONO  =      F    monopole corrections only (constant potential shift)
   LDIPOL =      F    correct potential (dipole corrections)
   IDIPOL =      0    1-x, 2-y, 3-z, 4-all directions 
   EPSILON=  1.0000000 bulk dielectric constant

 Exchange correlation treatment:
   GGA     =    --    GGA type
   LEXCH   =     8    internal setting for exchange type
   VOSKOWN=      0    Vosko Wilk Nusair interpolation
   LHFCALC =     F    Hartree Fock is set to
   LHFONE  =     F    Hartree Fock one center treatment
   AEXX    =    0.0000 exact exchange contribution

 Linear response parameters
   LEPSILON=     F    determine dielectric tensor
   LRPA    =     F    only Hartree local field effects (RPA)
   LNABLA  =     F    use nabla operator in PAW spheres
   LVEL    =     F    velocity operator in full k-point grid
   LINTERFAST=   F  fast interpolation
   KINTER  =     0    interpolate to denser k-point grid
   CSHIFT  =0.1000    complex shift for real part using Kramers Kronig
   OMEGAMAX=  -1.0    maximum frequency
   DEG_THRESHOLD= 0.2000000E-02 threshold for treating states as degnerate
   RTIME   =   -0.100 relaxation time in fs
  (WPLASMAI=    0.000 imaginary part of plasma frequency in eV, 0.658/RTIME)
   DFIELD  = 0.0000000 0.0000000 0.0000000 field for delta impulse in time
 
 Orbital magnetization related:
   ORBITALMAG=     F  switch on orbital magnetization
   LCHIMAG   =     F  perturbation theory with respect to B field
   DQ        =  0.001000  dq finite difference perturbation B field
   LLRAUG    =     F  two centre corrections for induced B field



--------------------------------------------------------------------------------------------------------


 quasi-Newton-method for relaxation of ions
   using selective dynamics as specified on POSCAR
 charge density and potential will be updated during run
 non-spin polarized calculation
 RMM-DIIS sequential band-by-band and
  variant of blocked Davidson during initial phase
 perform sub-space diagonalisation
    before iterative eigenvector-optimisation
 modified Broyden-mixing scheme, WC =      100.0
 initial mixing is a Kerker type mixing with AMIX =  0.4000 and BMIX =      1.0000
 Hartree-type preconditioning will be used
 using additional bands           40
 real space projection scheme for non local part
 use partial core corrections
 calculate Harris-corrections to forces 
   (improved forces if not selfconsistent)
 use gradient corrections 
 use of overlap-Matrix (Vanderbilt PP)
 Methfessel and Paxton  Order N= 1 SIGMA  =   0.20


--------------------------------------------------------------------------------------------------------


  energy-cutoff  :      450.00
  volume of cell :     1345.22
      direct lattice vectors                 reciprocal lattice vectors
     7.296955120 -4.212899000  0.000000000     0.137043463  0.000000000  0.000000000
     0.000000000  8.425798000  0.000000000     0.068521732  0.118683121  0.000000000
     0.000000000  0.000000000 21.879635000     0.000000000  0.000000000  0.045704602

  length of vectors
     8.425798004  8.425798000 21.879635000     0.137043463  0.137043463  0.045704602


 
 k-points in units of 2pi/SCALE and weight: mesh auto                               
   0.00000000  0.00000000  0.00000000       0.250
   0.06852173  0.00000000  0.00000000       0.250
   0.03426087  0.05934156  0.00000000       0.250
   0.10278260  0.05934156  0.00000000       0.250
 
 k-points in reciprocal lattice and weights: mesh auto                               
   0.00000000  0.00000000  0.00000000       0.250
   0.50000000  0.00000000  0.00000000       0.250
  -0.00000000  0.50000000  0.00000000       0.250
   0.50000000  0.50000000  0.00000000       0.250
 
 position of ions in fractional coordinates (direct lattice) 
   0.70556037  0.43419593  0.47872487
   0.90978568  0.38166672  0.45999119
   0.67742382  0.46105181  0.52861340
   0.98675500  0.32859100  0.07437600
   0.32008800  0.32859100  0.07437600
   0.65342200  0.32859100  0.07437600
   0.98675500  0.66192500  0.07437600
   0.32008800  0.66192500  0.07437600
   0.65342200  0.66192500  0.07437600
   0.32008800  0.99525800  0.07437600
   0.65342200  0.99525800  0.07437600
   0.98675500  0.99525800  0.07437600
   0.20897700  0.10636900  0.17918600
   0.54231100  0.10636900  0.17918600
   0.87564400  0.10636900  0.17918600
   0.20897700  0.43970300  0.17918600
   0.54231100  0.43970300  0.17918600
   0.87564400  0.43970300  0.17918600
   0.20897700  0.77303600  0.17918600
   0.54231100  0.77303600  0.17918600
   0.87564400  0.77303600  0.17918600
   0.10039894  0.54810913  0.27819032
   0.42908763  0.88188702  0.28162175
   0.76361269  0.22086145  0.28352318
   0.09404618  0.22132067  0.28256614
   0.43119417  0.21661164  0.28806713
   0.09686433  0.88102138  0.27852373
   0.76294558  0.88403536  0.28119030
   0.43054041  0.54710649  0.27847484
   0.76197991  0.54939245  0.28268819
   0.32154756  0.66599472  0.38979945
   0.65323297  0.98984869  0.38400364
   0.32318857  0.32095417  0.38969796
   0.98859002  0.99179614  0.38903170
   0.31710953  0.99589530  0.38527489
   0.64731814  0.32373764  0.39292277
   0.99598616  0.66948471  0.38492946
   0.99393408  0.31600755  0.39555929
   0.65191039  0.66469652  0.38888375
 
 position of ions in cartesian coordinates  (Angst):
   5.14844235  0.68599264 10.47432536
   6.63866529 -0.61698848 10.06443936
   4.94313125  1.03081130 11.56586823
   7.20030695 -1.38845776  1.62731973
   2.33566777  1.42014298  1.62731973
   4.76799101  0.01584050  1.62731973
   7.20030695  1.42014719  1.62731973
   2.33566777  4.22874793  1.62731973
   4.76799101  2.82444545  1.62731973
   2.33566777  7.03734445  1.62731973
   4.76799101  5.63304198  1.62731973
   7.20030695  4.22874371  1.62731973
   1.52489579  0.01584471  3.92052428
   3.95721903 -1.38845776  3.92052428
   6.38953497 -2.79275602  3.92052428
   1.52489579  2.82444966  3.92052428
   3.95721903  1.42014719  3.92052428
   6.38953497  0.01584893  3.92052428
   1.52489579  5.63304619  3.92052428
   3.95721903  4.22874371  3.92052428
   6.38953497  2.82444545  3.92052428
   0.73260654  4.19528624  6.08670268
   3.13103316  5.62289908  6.16178121
   5.57204755 -1.35608919  6.20338361
   0.68625073  1.46859624  6.18244396
   3.14640449  0.00854847  6.30280368
   0.70681465  7.01522852  6.09399762
   5.56717963  4.23449075  6.15234108
   3.14163408  2.79598550  6.09292778
   5.56013322  1.41892537  6.18511447
   2.34631815  4.25688955  8.52866964
   4.76661168  5.58826058  8.40185949
   2.35829249  1.34273423  8.52644919
   7.21369699  4.19184406  8.51187166
   2.31393403  7.05526223  8.42967386
   4.72345142  0.00066204  8.59700676
   7.26766627  1.44495388  8.42211614
   7.25269239 -1.52472810  8.65469282
   4.75696088  2.85416596  8.50863444
 


--------------------------------------------------------------------------------------------------------


 k-point  1 :   0.0000 0.0000 0.0000  plane waves:   29241
 k-point  2 :   0.5000 0.0000 0.0000  plane waves:   29108
 k-point  3 :  -0.0000 0.5000 0.0000  plane waves:   29108
 k-point  4 :   0.5000 0.5000 0.0000  plane waves:   29108

 maximum and minimum number of plane-waves per node :     14624    14548

 maximum number of plane-waves:     29241
 maximum index in each direction: 
   IXMAX=   14   IYMAX=   14   IZMAX=   37
   IXMIN=  -15   IYMIN=  -15   IZMIN=  -37


 real space projection operators:
  total allocation   :      13559.61 KBytes
  max/ min on nodes  :       6784.11       6775.50


 parallel 3D FFT for wavefunctions:
    minimum data exchange during FFTs selected (reduces bandwidth)
 parallel 3D FFT for charge:
    minimum data exchange during FFTs selected (reduces bandwidth)


 total amount of memory used by VASP MPI-rank0   131954. kBytes
=======================================================================

   base      :      30000. kBytes
   nonlr-proj:      10146. kBytes
   fftplans  :      13556. kBytes
   grid      :      23353. kBytes
   one-center:        311. kBytes
   wavefun   :      54588. kBytes
 
     INWAV:  cpu time    0.0000: real time    0.0000
 Broyden mixing: mesh for mixing (old mesh)
   NGX = 29   NGY = 29   NGZ = 75
  (NGX  = 96   NGY  = 96   NGZ  =240)
  gives a total of  63075 points

 initial charge density was supplied:
 charge density of overlapping atoms calculated
 number of electron     376.0000000 magnetization 
 keeping initial charge density in first step


--------------------------------------------------------------------------------------------------------


 Maximum index for non-local projection operator         1318
 Maximum index for augmentation-charges         1558 (set IRDMAX)


--------------------------------------------------------------------------------------------------------


 First call to EWALD:  gamma=   0.161
 Maximum number of real-space cells 4x 4x 2
 Maximum number of reciprocal cells 2x 2x 5

    FEWALD:  cpu time    0.0023: real time    0.0023


--------------------------------------- Iteration      1(   1)  ---------------------------------------


    POTLOK:  cpu time    0.2003: real time    0.3471
    SETDIJ:  cpu time    0.0172: real time    0.0173
     EDDAV:  cpu time    9.2919: real time    9.3774
       DOS:  cpu time    0.0021: real time    0.0021
    --------------------------------------------
      LOOP:  cpu time    9.5115: real time    9.7440

 eigenvalue-minimisations  :  1824
 total energy-change (2. order) : 0.2422472E+04  (-0.1595065E+05)
 number of electron     376.0000000 magnetization 
 augmentation part      376.0000000 magnetization 

 Free energy of the ion-electron system (eV)
  ---------------------------------------------------
  alpha Z        PSCENC =       975.10247152
  Ewald energy   TEWEN  =     91422.24816593
  -Hartree energ DENC   =   -120509.18153347
  -exchange      EXHF   =         0.00000000
  -V(xc)+E(xc)   XCENC  =       189.82354173
  PAW double counting   =     24789.08602224   -23775.73976456
  entropy T*S    EENTRO =         0.02813925
  eigenvalues    EBANDS =      2071.21090087
  atomic energy  EATOM  =     27259.89416086
  Solvation  Ediel_sol  =         0.00000000
  ---------------------------------------------------
  free energy    TOTEN  =      2422.47210437 eV

  energy without entropy =     2422.44396512  energy(sigma->0) =     2422.46272462


--------------------------------------------------------------------------------------------------------




--------------------------------------- Iteration      1(   2)  ---------------------------------------


     EDDAV:  cpu time    9.8508: real time    9.9136
       DOS:  cpu time    0.0010: real time    0.0010
    --------------------------------------------
      LOOP:  cpu time    9.8517: real time    9.9146

 eigenvalue-minimisations  :  2104
 total energy-change (2. order) :-0.2482937E+04  (-0.2305600E+04)
 number of electron     376.0000000 magnetization 
 augmentation part      376.0000000 magnetization 

 Free energy of the ion-electron system (eV)
  ---------------------------------------------------
  alpha Z        PSCENC =       975.10247152
  Ewald energy   TEWEN  =     91422.24816593
  -Hartree energ DENC   =   -120509.18153347
  -exchange      EXHF   =         0.00000000
  -V(xc)+E(xc)   XCENC  =       189.82354173
  PAW double counting   =     24789.08602224   -23775.73976456
  entropy T*S    EENTRO =        -0.01215366
  eigenvalues    EBANDS =      -411.68545097
  atomic energy  EATOM  =     27259.89416086
  Solvation  Ediel_sol  =         0.00000000
  ---------------------------------------------------
  free energy    TOTEN  =       -60.46454037 eV

  energy without entropy =      -60.45238672  energy(sigma->0) =      -60.46048915


--------------------------------------------------------------------------------------------------------




--------------------------------------- Iteration      1(   3)  ---------------------------------------


     EDDAV:  cpu time   11.2056: real time   11.2821
       DOS:  cpu time    0.0011: real time    0.0011
    --------------------------------------------
      LOOP:  cpu time   11.2067: real time   11.2833

 eigenvalue-minimisations  :  2168
 total energy-change (2. order) :-0.1789462E+03  (-0.1624472E+03)
 number of electron     376.0000000 magnetization 
 augmentation part      376.0000000 magnetization 

 Free energy of the ion-electron system (eV)
  ---------------------------------------------------
  alpha Z        PSCENC =       975.10247152
  Ewald energy   TEWEN  =     91422.24816593
  -Hartree energ DENC   =   -120509.18153347
  -exchange      EXHF   =         0.00000000
  -V(xc)+E(xc)   XCENC  =       189.82354173
  PAW double counting   =     24789.08602224   -23775.73976456
  entropy T*S    EENTRO =        -0.01257607
  eigenvalues    EBANDS =      -590.63119185
  atomic energy  EATOM  =     27259.89416086
  Solvation  Ediel_sol  =         0.00000000
  ---------------------------------------------------
  free energy    TOTEN  =      -239.41070367 eV

  energy without entropy =     -239.39812760  energy(sigma->0) =     -239.40651165


--------------------------------------------------------------------------------------------------------




--------------------------------------- Iteration      1(   4)  ---------------------------------------


     EDDAV:  cpu time   14.0570: real time   14.1577
       DOS:  cpu time    0.0011: real time    0.0011
    --------------------------------------------
      LOOP:  cpu time   14.0581: real time   14.1588

 eigenvalue-minimisations  :  2352
 total energy-change (2. order) :-0.7908384E+01  (-0.7577906E+01)
 number of electron     376.0000000 magnetization 
 augmentation part      376.0000000 magnetization 

 Free energy of the ion-electron system (eV)
  ---------------------------------------------------
  alpha Z        PSCENC =       975.10247152
  Ewald energy   TEWEN  =     91422.24816593
  -Hartree energ DENC   =   -120509.18153347
  -exchange      EXHF   =         0.00000000
  -V(xc)+E(xc)   XCENC  =       189.82354173
  PAW double counting   =     24789.08602224   -23775.73976456
  entropy T*S    EENTRO =        -0.00780169
  eigenvalues    EBANDS =      -598.54435008
  atomic energy  EATOM  =     27259.89416086
  Solvation  Ediel_sol  =         0.00000000
  ---------------------------------------------------
  free energy    TOTEN  =      -247.31908753 eV

  energy without entropy =     -247.31128583  energy(sigma->0) =     -247.31648696


--------------------------------------------------------------------------------------------------------




--------------------------------------- Iteration      1(   5)  ---------------------------------------


     EDDAV:  cpu time   12.5900: real time   12.6764
       DOS:  cpu time    0.0011: real time    0.0011
    CHARGE:  cpu time    0.4486: real time    0.4515
    MIXING:  cpu time    0.0223: real time    0.0224
    --------------------------------------------
      LOOP:  cpu time   13.0621: real time   13.1515

 eigenvalue-minimisations  :  2328
 total energy-change (2. order) :-0.2229721E+00  (-0.2206641E+00)
 number of electron     376.0000044 magnetization 
 augmentation part      105.8604895 magnetization 

 Broyden mixing:
  rms(total) = 0.27181E+01    rms(broyden)= 0.27177E+01
  rms(prec ) = 0.30209E+01
  weight for this iteration     100.00

 Free energy of the ion-electron system (eV)
  ---------------------------------------------------
  alpha Z        PSCENC =       975.10247152
  Ewald energy   TEWEN  =     91422.24816593
  -Hartree energ DENC   =   -120509.18153347
  -exchange      EXHF   =         0.00000000
  -V(xc)+E(xc)   XCENC  =       189.82354173
  PAW double counting   =     24789.08602224   -23775.73976456
  entropy T*S    EENTRO =        -0.00798508
  eigenvalues    EBANDS =      -598.76713884
  atomic energy  EATOM  =     27259.89416086
  Solvation  Ediel_sol  =         0.00000000
  ---------------------------------------------------
  free energy    TOTEN  =      -247.54205967 eV

  energy without entropy =     -247.53407459  energy(sigma->0) =     -247.53939798


--------------------------------------------------------------------------------------------------------




--------------------------------------- Iteration      1(   6)  ---------------------------------------


    POTLOK:  cpu time    0.1689: real time    0.1701
    SETDIJ:  cpu time    0.0128: real time    0.0129
    EDDIAG:  cpu time    1.1910: real time    1.1986
  RMM-DIIS:  cpu time    4.9930: real time    5.0301
    ORTHCH:  cpu time    0.2329: real time    0.2344
       DOS:  cpu time    0.0075: real time    0.0076
    CHARGE:  cpu time    0.4156: real time    0.4186
    MIXING:  cpu time    0.0068: real time    0.0069
    --------------------------------------------
      LOOP:  cpu time    7.0285: real time    7.0791

 eigenvalue-minimisations  :  1831
 total energy-change (2. order) : 0.3352721E+01  (-0.5503028E+01)
 number of electron     376.0000043 magnetization 
 augmentation part      112.7101193 magnetization 

 Broyden mixing:
  rms(total) = 0.26399E+01    rms(broyden)= 0.26390E+01
  rms(prec ) = 0.35208E+01
  weight for this iteration     100.00

 eigenvalues of (default mixing * dielectric matrix)
  average eigenvalue GAMMA=   0.5307
  0.5307

 Free energy of the ion-electron system (eV)
  ---------------------------------------------------
  alpha Z        PSCENC =       975.10247152
  Ewald energy   TEWEN  =     91422.24816593
  -Hartree energ DENC   =   -120053.59218322
  -exchange      EXHF   =         0.00000000
  -V(xc)+E(xc)   XCENC  =       182.65316812
  PAW double counting   =     26761.68367766   -25802.04575647
  entropy T*S    EENTRO =        -0.19677080
  eigenvalues    EBANDS =      -989.93627250
  atomic energy  EATOM  =     27259.89416086
  Solvation  Ediel_sol  =         0.00000000
  ---------------------------------------------------
  free energy    TOTEN  =      -244.18933890 eV

  energy without entropy =     -243.99256810  energy(sigma->0) =     -244.12374864


--------------------------------------------------------------------------------------------------------




--------------------------------------- Iteration      1(   7)  ---------------------------------------


    POTLOK:  cpu time    0.1269: real time    0.1279
    SETDIJ:  cpu time    0.0126: real time    0.0126
    EDDIAG:  cpu time    1.3696: real time    1.3796
  RMM-DIIS:  cpu time    4.8376: real time    4.8749
    ORTHCH:  cpu time    0.2270: real time    0.2285
       DOS:  cpu time    0.0012: real time    0.0012
    CHARGE:  cpu time    0.4726: real time    0.4755
    MIXING:  cpu time    0.0059: real time    0.0059
    --------------------------------------------
      LOOP:  cpu time    7.0533: real time    7.1061

 eigenvalue-minimisations  :  1830
 total energy-change (2. order) : 0.6158957E+01  (-0.3039275E+01)
 number of electron     376.0000049 magnetization 
 augmentation part      111.4595436 magnetization 

 Broyden mixing:
  rms(total) = 0.19178E+01    rms(broyden)= 0.19170E+01
  rms(prec ) = 0.26228E+01
  weight for this iteration     100.00

 eigenvalues of (default mixing * dielectric matrix)
  average eigenvalue GAMMA=   0.6584
  1.0523  0.2645

 Free energy of the ion-electron system (eV)
  ---------------------------------------------------
  alpha Z        PSCENC =       975.10247152
  Ewald energy   TEWEN  =     91422.24816593
  -Hartree energ DENC   =   -120249.01476678
  -exchange      EXHF   =         0.00000000
  -V(xc)+E(xc)   XCENC  =       180.31744811
  PAW double counting   =     27458.07346715   -26506.68502589
  entropy T*S    EENTRO =        -0.14672607
  eigenvalues    EBANDS =      -777.81957626
  atomic energy  EATOM  =     27259.89416086
  Solvation  Ediel_sol  =         0.00000000
  ---------------------------------------------------
  free energy    TOTEN  =      -238.03038142 eV

  energy without entropy =     -237.88365536  energy(sigma->0) =     -237.98147273


--------------------------------------------------------------------------------------------------------




--------------------------------------- Iteration      1(   8)  ---------------------------------------


    POTLOK:  cpu time    0.1589: real time    0.1600
    SETDIJ:  cpu time    0.0128: real time    0.0129
    EDDIAG:  cpu time    1.3930: real time    1.4024
  RMM-DIIS:  cpu time    5.3132: real time    5.3507
    ORTHCH:  cpu time    0.2264: real time    0.2280
       DOS:  cpu time    0.0011: real time    0.0011
    CHARGE:  cpu time    0.5175: real time    0.5208
    MIXING:  cpu time    0.0058: real time    0.0058
    --------------------------------------------
      LOOP:  cpu time    7.6286: real time    7.6817

 eigenvalue-minimisations  :  1831
 total energy-change (2. order) : 0.4761265E+01  (-0.7807924E+00)
 number of electron     376.0000049 magnetization 
 augmentation part      112.6006169 magnetization 

 Broyden mixing:
  rms(total) = 0.14325E+01    rms(broyden)= 0.14324E+01
  rms(prec ) = 0.23951E+01
  weight for this iteration     100.00

 eigenvalues of (default mixing * dielectric matrix)
  average eigenvalue GAMMA=   0.5905
  1.2211  0.3204  0.2301

 Free energy of the ion-electron system (eV)
  ---------------------------------------------------
  alpha Z        PSCENC =       975.10247152
  Ewald energy   TEWEN  =     91422.24816593
  -Hartree energ DENC   =   -120127.30244787
  -exchange      EXHF   =         0.00000000
  -V(xc)+E(xc)   XCENC  =       179.01340864
  PAW double counting   =     28449.68964071   -27513.66662939
  entropy T*S    EENTRO =        -0.03927120
  eigenvalues    EBANDS =      -878.20861527
  atomic energy  EATOM  =     27259.89416086
  Solvation  Ediel_sol  =         0.00000000
  ---------------------------------------------------
  free energy    TOTEN  =      -233.26911607 eV

  energy without entropy =     -233.22984487  energy(sigma->0) =     -233.25602567


--------------------------------------------------------------------------------------------------------




--------------------------------------- Iteration      1(   9)  ---------------------------------------


    POTLOK:  cpu time    0.1559: real time    0.1569
    SETDIJ:  cpu time    0.0119: real time    0.0120
    EDDIAG:  cpu time    1.5351: real time    1.5460
  RMM-DIIS:  cpu time    4.3707: real time    4.4040
    ORTHCH:  cpu time    0.2236: real time    0.2252
       DOS:  cpu time    0.0011: real time    0.0012
    CHARGE:  cpu time    0.3812: real time    0.3840
    MIXING:  cpu time    0.0050: real time    0.0050
    --------------------------------------------
      LOOP:  cpu time    6.6846: real time    6.7343

 eigenvalue-minimisations  :  1830
 total energy-change (2. order) :-0.5784363E+00  (-0.2066223E+00)
 number of electron     376.0000052 magnetization 
 augmentation part      112.8716843 magnetization 

 Broyden mixing:
  rms(total) = 0.15251E+01    rms(broyden)= 0.15249E+01
  rms(prec ) = 0.28190E+01
  weight for this iteration     100.00

 eigenvalues of (default mixing * dielectric matrix)
  average eigenvalue GAMMA=   0.5149
  1.3089  0.4070  0.2481  0.0957

 Free energy of the ion-electron system (eV)
  ---------------------------------------------------
  alpha Z        PSCENC =       975.10247152
  Ewald energy   TEWEN  =     91422.24816593
  -Hartree energ DENC   =   -120135.41915906
  -exchange      EXHF   =         0.00000000
  -V(xc)+E(xc)   XCENC  =       178.85097106
  PAW double counting   =     28760.44269110   -27828.93360227
  entropy T*S    EENTRO =        -0.02170395
  eigenvalues    EBANDS =      -866.01154761
  atomic energy  EATOM  =     27259.89416086
  Solvation  Ediel_sol  =         0.00000000
  ---------------------------------------------------
  free energy    TOTEN  =      -233.84755242 eV

  energy without entropy =     -233.82584847  energy(sigma->0) =     -233.84031777


--------------------------------------------------------------------------------------------------------




--------------------------------------- Iteration      1(  10)  ---------------------------------------


    POTLOK:  cpu time    0.1371: real time    0.1381
    SETDIJ:  cpu time    0.0104: real time    0.0104
    EDDIAG:  cpu time    1.0741: real time    1.0817
  RMM-DIIS:  cpu time    4.4381: real time    4.4701
    ORTHCH:  cpu time    0.2966: real time    0.2988
       DOS:  cpu time    0.0012: real time    0.0012
    CHARGE:  cpu time    0.5467: real time    0.5507
    MIXING:  cpu time    0.0059: real time    0.0060
    --------------------------------------------
      LOOP:  cpu time    6.5101: real time    6.5570

 eigenvalue-minimisations  :  1831
 total energy-change (2. order) : 0.3584543E+01  (-0.1388072E+00)
 number of electron     376.0000046 magnetization 
 augmentation part      112.8044009 magnetization 

 Broyden mixing:
  rms(total) = 0.43769E+00    rms(broyden)= 0.43751E+00
  rms(prec ) = 0.55169E+00
  weight for this iteration     100.00

 eigenvalues of (default mixing * dielectric matrix)
  average eigenvalue GAMMA=   0.5225
  1.4014  0.5282  0.3741  0.2144  0.0941

 Free energy of the ion-electron system (eV)
  ---------------------------------------------------
  alpha Z        PSCENC =       975.10247152
  Ewald energy   TEWEN  =     91422.24816593
  -Hartree energ DENC   =   -120146.38151300
  -exchange      EXHF   =         0.00000000
  -V(xc)+E(xc)   XCENC  =       178.70519008
  PAW double counting   =     29075.12605813   -28147.95695978
  entropy T*S    EENTRO =        -0.03581404
  eigenvalues    EBANDS =      -846.96476873
  atomic energy  EATOM  =     27259.89416086
  Solvation  Ediel_sol  =         0.00000000
  ---------------------------------------------------
  free energy    TOTEN  =      -230.26300902 eV

  energy without entropy =     -230.22719498  energy(sigma->0) =     -230.25107101


--------------------------------------------------------------------------------------------------------




--------------------------------------- Iteration      1(  11)  ---------------------------------------


    POTLOK:  cpu time    0.1388: real time    0.1398
    SETDIJ:  cpu time    0.0103: real time    0.0104
    EDDIAG:  cpu time    1.6423: real time    1.6542
  RMM-DIIS:  cpu time    5.6662: real time    5.7089
    ORTHCH:  cpu time    0.2802: real time    0.2819
       DOS:  cpu time    0.0071: real time    0.0071
    CHARGE:  cpu time    0.3682: real time    0.3704
    MIXING:  cpu time    0.0049: real time    0.0049
    --------------------------------------------
      LOOP:  cpu time    8.1179: real time    8.1777

 eigenvalue-minimisations  :  1831
 total energy-change (2. order) : 0.3113559E+00  (-0.4146190E-01)
 number of electron     376.0000047 magnetization 
 augmentation part      112.8675759 magnetization 

 Broyden mixing:
  rms(total) = 0.28907E+00    rms(broyden)= 0.28904E+00
  rms(prec ) = 0.37535E+00
  weight for this iteration     100.00

 eigenvalues of (default mixing * dielectric matrix)
  average eigenvalue GAMMA=   0.5814
  1.5644  0.7947  0.4673  0.3436  0.2250  0.0934

 Free energy of the ion-electron system (eV)
  ---------------------------------------------------
  alpha Z        PSCENC =       975.10247152
  Ewald energy   TEWEN  =     91422.24816593
  -Hartree energ DENC   =   -120136.50504419
  -exchange      EXHF   =         0.00000000
  -V(xc)+E(xc)   XCENC  =       178.60131588
  PAW double counting   =     29361.30579727   -28437.88650306
  entropy T*S    EENTRO =        -0.03047960
  eigenvalues    EBANDS =      -852.68153771
  atomic energy  EATOM  =     27259.89416086
  Solvation  Ediel_sol  =         0.00000000
  ---------------------------------------------------
  free energy    TOTEN  =      -229.95165308 eV

  energy without entropy =     -229.92117348  energy(sigma->0) =     -229.94149322


--------------------------------------------------------------------------------------------------------




--------------------------------------- Iteration      1(  12)  ---------------------------------------


    POTLOK:  cpu time    0.1242: real time    0.1251
    SETDIJ:  cpu time    0.0102: real time    0.0103
    EDDIAG:  cpu time    1.5102: real time    1.5210
  RMM-DIIS:  cpu time    4.4892: real time    4.5216
    ORTHCH:  cpu time    0.2556: real time    0.2572
       DOS:  cpu time    0.0011: real time    0.0011
    CHARGE:  cpu time    0.3824: real time    0.3849
    MIXING:  cpu time    0.0048: real time    0.0048
    --------------------------------------------
      LOOP:  cpu time    6.7777: real time    6.8260

 eigenvalue-minimisations  :  1831
 total energy-change (2. order) : 0.8136776E-01  (-0.1774930E-01)
 number of electron     376.0000045 magnetization 
 augmentation part      112.9627262 magnetization 

 Broyden mixing:
  rms(total) = 0.24677E+00    rms(broyden)= 0.24669E+00
  rms(prec ) = 0.29994E+00
  weight for this iteration     100.00

 eigenvalues of (default mixing * dielectric matrix)
  average eigenvalue GAMMA=   0.6607
  1.9356  1.0895  0.5177  0.5177  0.0935  0.2355  0.2355

 Free energy of the ion-electron system (eV)
  ---------------------------------------------------
  alpha Z        PSCENC =       975.10247152
  Ewald energy   TEWEN  =     91422.24816593
  -Hartree energ DENC   =   -120132.10162810
  -exchange      EXHF   =         0.00000000
  -V(xc)+E(xc)   XCENC  =       178.54263917
  PAW double counting   =     29678.64550882   -28759.23546010
  entropy T*S    EENTRO =        -0.04471246
  eigenvalues    EBANDS =      -852.92143096
  atomic energy  EATOM  =     27259.89416086
  Solvation  Ediel_sol  =         0.00000000
  ---------------------------------------------------
  free energy    TOTEN  =      -229.87028532 eV

  energy without entropy =     -229.82557286  energy(sigma->0) =     -229.85538117


--------------------------------------------------------------------------------------------------------




--------------------------------------- Iteration      1(  13)  ---------------------------------------


    POTLOK:  cpu time    0.1184: real time    0.1192
    SETDIJ:  cpu time    0.0099: real time    0.0099
    EDDIAG:  cpu time    1.3988: real time    1.4086
  RMM-DIIS:  cpu time    4.3638: real time    4.3974
    ORTHCH:  cpu time    0.2416: real time    0.2432
       DOS:  cpu time    0.0012: real time    0.0012
    CHARGE:  cpu time    0.3767: real time    0.3793
    MIXING:  cpu time    0.0059: real time    0.0059
    --------------------------------------------
      LOOP:  cpu time    6.5163: real time    6.5649

 eigenvalue-minimisations  :  1831
 total energy-change (2. order) : 0.3583282E-01  (-0.1517477E-01)
 number of electron     376.0000046 magnetization 
 augmentation part      112.9662516 magnetization 

 Broyden mixing:
  rms(total) = 0.18115E+00    rms(broyden)= 0.18114E+00
  rms(prec ) = 0.21989E+00
  weight for this iteration     100.00

 eigenvalues of (default mixing * dielectric matrix)
  average eigenvalue GAMMA=   0.6975
  2.2878  1.2083  0.7202  0.4978  0.0935  0.3135  0.2217  0.2369

 Free energy of the ion-electron system (eV)
  ---------------------------------------------------
  alpha Z        PSCENC =       975.10247152
  Ewald energy   TEWEN  =     91422.24816593
  -Hartree energ DENC   =   -120131.47956360
  -exchange      EXHF   =         0.00000000
  -V(xc)+E(xc)   XCENC  =       178.46973052
  PAW double counting   =     29949.72408178   -29033.57680031
  entropy T*S    EENTRO =        -0.02769748
  eigenvalues    EBANDS =      -850.18900173
  atomic energy  EATOM  =     27259.89416086
  Solvation  Ediel_sol  =         0.00000000
  ---------------------------------------------------
  free energy    TOTEN  =      -229.83445250 eV

  energy without entropy =     -229.80675501  energy(sigma->0) =     -229.82522000


--------------------------------------------------------------------------------------------------------




--------------------------------------- Iteration      1(  14)  ---------------------------------------


    POTLOK:  cpu time    0.1363: real time    0.1374
    SETDIJ:  cpu time    0.0112: real time    0.0112
    EDDIAG:  cpu time    1.3356: real time    1.3449
  RMM-DIIS:  cpu time    4.3172: real time    4.3478
    ORTHCH:  cpu time    0.2347: real time    0.2361
       DOS:  cpu time    0.0014: real time    0.0015
    CHARGE:  cpu time    0.4309: real time    0.4337
    MIXING:  cpu time    0.0083: real time    0.0083
    --------------------------------------------
      LOOP:  cpu time    6.4756: real time    6.5208

 eigenvalue-minimisations  :  1831
 total energy-change (2. order) : 0.4011721E-01  (-0.7301882E-02)
 number of electron     376.0000046 magnetization 
 augmentation part      112.9511714 magnetization 

 Broyden mixing:
  rms(total) = 0.89565E-01    rms(broyden)= 0.89535E-01
  rms(prec ) = 0.11257E+00
  weight for this iteration     100.00

 eigenvalues of (default mixing * dielectric matrix)
  average eigenvalue GAMMA=   0.6854
  2.3373  1.2261  0.8275  0.4840  0.4639  0.0935  0.2862  0.2250  0.2250

 Free energy of the ion-electron system (eV)
  ---------------------------------------------------
  alpha Z        PSCENC =       975.10247152
  Ewald energy   TEWEN  =     91422.24816593
  -Hartree energ DENC   =   -120134.43398618
  -exchange      EXHF   =         0.00000000
  -V(xc)+E(xc)   XCENC  =       178.41699107
  PAW double counting   =     30128.51857961   -29214.44698227
  entropy T*S    EENTRO =        -0.02475751
  eigenvalues    EBANDS =      -845.06897832
  atomic energy  EATOM  =     27259.89416086
  Solvation  Ediel_sol  =         0.00000000
  ---------------------------------------------------
  free energy    TOTEN  =      -229.79433529 eV

  energy without entropy =     -229.76957778  energy(sigma->0) =     -229.78608278


--------------------------------------------------------------------------------------------------------




--------------------------------------- Iteration      1(  15)  ---------------------------------------


    POTLOK:  cpu time    0.2047: real time    0.2062
    SETDIJ:  cpu time    0.0118: real time    0.0119
    EDDIAG:  cpu time    1.3647: real time    1.3746
  RMM-DIIS:  cpu time    4.6881: real time    4.7240
    ORTHCH:  cpu time    0.3030: real time    0.3048
       DOS:  cpu time    0.0011: real time    0.0012
    CHARGE:  cpu time    0.3501: real time    0.3523
    MIXING:  cpu time    0.0066: real time    0.0066
    --------------------------------------------
      LOOP:  cpu time    6.9301: real time    6.9815

 eigenvalue-minimisations  :  1831
 total energy-change (2. order) : 0.1073692E-01  (-0.2420243E-02)
 number of electron     376.0000046 magnetization 
 augmentation part      112.9431224 magnetization 

 Broyden mixing:
  rms(total) = 0.48623E-01    rms(broyden)= 0.48618E-01
  rms(prec ) = 0.61881E-01
  weight for this iteration     100.00

 eigenvalues of (default mixing * dielectric matrix)
  average eigenvalue GAMMA=   0.7055
  2.4436  1.2754  1.0122  0.6905  0.4930  0.0935  0.3371  0.2630  0.2256  0.2208

 Free energy of the ion-electron system (eV)
  ---------------------------------------------------
  alpha Z        PSCENC =       975.10247152
  Ewald energy   TEWEN  =     91422.24816593
  -Hartree energ DENC   =   -120136.80980740
  -exchange      EXHF   =         0.00000000
  -V(xc)+E(xc)   XCENC  =       178.41670834
  PAW double counting   =     30161.30973946   -29247.57888649
  entropy T*S    EENTRO =        -0.02461220
  eigenvalues    EBANDS =      -842.34153839
  atomic energy  EATOM  =     27259.89416086
  Solvation  Ediel_sol  =         0.00000000
  ---------------------------------------------------
  free energy    TOTEN  =      -229.78359837 eV

  energy without entropy =     -229.75898617  energy(sigma->0) =     -229.77539430


--------------------------------------------------------------------------------------------------------




--------------------------------------- Iteration      1(  16)  ---------------------------------------


    POTLOK:  cpu time    0.1427: real time    0.1437
    SETDIJ:  cpu time    0.0103: real time    0.0104
    EDDIAG:  cpu time    1.4027: real time    1.4129
  RMM-DIIS:  cpu time    4.5297: real time    4.5635
    ORTHCH:  cpu time    0.2149: real time    0.2163
       DOS:  cpu time    0.0011: real time    0.0011
    CHARGE:  cpu time    0.3563: real time    0.3586
    MIXING:  cpu time    0.0056: real time    0.0057
    --------------------------------------------
      LOOP:  cpu time    6.6633: real time    6.7122

 eigenvalue-minimisations  :  1830
 total energy-change (2. order) : 0.1647719E-02  (-0.7274391E-03)
 number of electron     376.0000046 magnetization 
 augmentation part      112.9422289 magnetization 

 Broyden mixing:
  rms(total) = 0.35298E-01    rms(broyden)= 0.35295E-01
  rms(prec ) = 0.44156E-01
  weight for this iteration     100.00

 eigenvalues of (default mixing * dielectric matrix)
  average eigenvalue GAMMA=   0.6922
  2.4896  1.3237  1.0835  0.7460  0.4887  0.3991  0.0935  0.3020  0.2417  0.2295
  0.2168

 Free energy of the ion-electron system (eV)
  ---------------------------------------------------
  alpha Z        PSCENC =       975.10247152
  Ewald energy   TEWEN  =     91422.24816593
  -Hartree energ DENC   =   -120138.58876986
  -exchange      EXHF   =         0.00000000
  -V(xc)+E(xc)   XCENC  =       178.42356769
  PAW double counting   =     30189.69917323   -29276.24870071
  entropy T*S    EENTRO =        -0.02445439
  eigenvalues    EBANDS =      -840.28756491
  atomic energy  EATOM  =     27259.89416086
  Solvation  Ediel_sol  =         0.00000000
  ---------------------------------------------------
  free energy    TOTEN  =      -229.78195065 eV

  energy without entropy =     -229.75749625  energy(sigma->0) =     -229.77379918


--------------------------------------------------------------------------------------------------------




--------------------------------------- Iteration      1(  17)  ---------------------------------------


    POTLOK:  cpu time    0.1574: real time    0.1585
    SETDIJ:  cpu time    0.0102: real time    0.0102
    EDDIAG:  cpu time    1.1409: real time    1.1491
  RMM-DIIS:  cpu time    4.8245: real time    4.8610
    ORTHCH:  cpu time    0.2713: real time    0.2731
       DOS:  cpu time    0.0011: real time    0.0011
    CHARGE:  cpu time    0.4645: real time    0.4677
    MIXING:  cpu time    0.0072: real time    0.0072
    --------------------------------------------
      LOOP:  cpu time    6.8770: real time    6.9279

 eigenvalue-minimisations  :  1817
 total energy-change (2. order) : 0.1903311E-02  (-0.2393362E-03)
 number of electron     376.0000046 magnetization 
 augmentation part      112.9417831 magnetization 

 Broyden mixing:
  rms(total) = 0.12385E-01    rms(broyden)= 0.12383E-01
  rms(prec ) = 0.15788E-01
  weight for this iteration     100.00

 eigenvalues of (default mixing * dielectric matrix)
  average eigenvalue GAMMA=   0.6982
  2.5034  1.3481  1.1088  0.8115  0.6877  0.4947  0.0935  0.3623  0.2882  0.2357
  0.2287  0.2158

 Free energy of the ion-electron system (eV)
  ---------------------------------------------------
  alpha Z        PSCENC =       975.10247152
  Ewald energy   TEWEN  =     91422.24816593
  -Hartree energ DENC   =   -120139.63860220
  -exchange      EXHF   =         0.00000000
  -V(xc)+E(xc)   XCENC  =       178.42961002
  PAW double counting   =     30196.90225528   -29283.50575803
  entropy T*S    EENTRO =        -0.02576102
  eigenvalues    EBANDS =      -839.18658969
  atomic energy  EATOM  =     27259.89416086
  Solvation  Ediel_sol  =         0.00000000
  ---------------------------------------------------
  free energy    TOTEN  =      -229.78004734 eV

  energy without entropy =     -229.75428631  energy(sigma->0) =     -229.77146033


--------------------------------------------------------------------------------------------------------




--------------------------------------- Iteration      1(  18)  ---------------------------------------


    POTLOK:  cpu time    0.1387: real time    0.1396
    SETDIJ:  cpu time    0.0122: real time    0.0123
    EDDIAG:  cpu time    1.5172: real time    1.5272
  RMM-DIIS:  cpu time    4.6962: real time    4.7255
    ORTHCH:  cpu time    0.2568: real time    0.2583
       DOS:  cpu time    0.0012: real time    0.0012
    --------------------------------------------
      LOOP:  cpu time    6.6222: real time    6.6640

 eigenvalue-minimisations  :  1660
 total energy-change (2. order) : 0.2492162E-04  (-0.6591892E-04)
 number of electron     376.0000046 magnetization 
 augmentation part      112.9417831 magnetization 

 Free energy of the ion-electron system (eV)
  ---------------------------------------------------
  alpha Z        PSCENC =       975.10247152
  Ewald energy   TEWEN  =     91422.24816593
  -Hartree energ DENC   =   -120140.66716510
  -exchange      EXHF   =         0.00000000
  -V(xc)+E(xc)   XCENC  =       178.43622787
  PAW double counting   =     30196.04751464   -29282.61202625
  entropy T*S    EENTRO =        -0.02629237
  eigenvalues    EBANDS =      -838.20307953
  atomic energy  EATOM  =     27259.89416086
  Solvation  Ediel_sol  =         0.00000000
  ---------------------------------------------------
  free energy    TOTEN  =      -229.78002241 eV

  energy without entropy =     -229.75373005  energy(sigma->0) =     -229.77125829


--------------------------------------------------------------------------------------------------------




 average (electrostatic) potential at core
  the test charge radii are     0.6991  0.7215  1.2059
  (the norm of the test charge is              1.0000)
       1 -56.3613       2 -75.2658       3 -76.5722       4 -72.2852       5 -72.2832
       6 -72.2684       7 -72.2545       8 -72.2827       9 -72.2533      10 -72.2549
      11 -72.2667      12 -72.2403      13 -72.8133      14 -72.8863      15 -72.9053
      16 -73.0259      17 -72.9356      18 -72.9366      19 -73.0026      20 -72.9697
      21 -72.9536      22 -72.9081      23 -72.9176      24 -72.8192      25 -72.8827
      26 -72.9422      27 -72.9899      28 -72.9181      29 -72.8924      30 -72.8428
      31 -72.1367      32 -72.3626      33 -72.3735      34 -72.3169      35 -72.4341
      36 -73.1555      37 -72.3934      38 -73.4536      39 -72.2368
 
 
 
 E-fermi :   1.1642     XC(G=0):  -6.6384     alpha+bet : -6.8913


 k-point     1 :       0.0000    0.0000    0.0000
  band No.  band energies     occupation 
      1     -22.3686      2.00000
      2     -17.8221      2.00000
      3      -8.5959      2.00000
      4      -8.0999      2.00000
      5      -6.7385      2.00000
      6      -6.2196      2.00000
      7      -5.9349      2.00000
      8      -5.7179      2.00000
      9      -5.6797      2.00000
     10      -5.6531      2.00000
     11      -5.6241      2.00000
     12      -5.6016      2.00000
     13      -5.5759      2.00000
     14      -5.5427      2.00000
     15      -5.5022      2.00000
     16      -5.2925      2.00000
     17      -5.0755      2.00000
     18      -5.0515      2.00000
     19      -5.0132      2.00000
     20      -4.9927      2.00000
     21      -4.9820      2.00000
     22      -4.9697      2.00000
     23      -4.8002      2.00000
     24      -4.6758      2.00000
     25      -4.5360      2.00000
     26      -4.5035      2.00000
     27      -4.5019      2.00000
     28      -4.4623      2.00000
     29      -4.4205      2.00000
     30      -4.3659      2.00000
     31      -4.3156      2.00000
     32      -4.3017      2.00000
     33      -4.2675      2.00000
     34      -4.1897      2.00000
     35      -4.1468      2.00000
     36      -4.1207      2.00000
     37      -4.1180      2.00000
     38      -4.0855      2.00000
     39      -4.0667      2.00000
     40      -4.0408      2.00000
     41      -4.0287      2.00000
     42      -4.0252      2.00000
     43      -3.9797      2.00000
     44      -3.9643      2.00000
     45      -3.9310      2.00000
     46      -3.9034      2.00000
     47      -3.7688      2.00000
     48      -3.5922      2.00000
     49      -3.5270      2.00000
     50      -3.3852      2.00000
     51      -3.3660      2.00000
     52      -3.3506      2.00000
     53      -3.3344      2.00000
     54      -3.3118      2.00000
     55      -3.2518      2.00000
     56      -3.2355      2.00000
     57      -3.2056      2.00000
     58      -3.1720      2.00000
     59      -3.1195      2.00000
     60      -3.1103      2.00000
     61      -3.0473      2.00000
     62      -2.9943      2.00000
     63      -2.9572      2.00000
     64      -2.6027      2.00000
     65      -2.5430      2.00000
     66      -2.5085      2.00000
     67      -2.4981      2.00000
     68      -2.4433      2.00000
     69      -2.4259      2.00000
     70      -2.4081      2.00000
     71      -2.3924      2.00000
     72      -2.3730      2.00000
     73      -2.3591      2.00000
     74      -2.3532      2.00000
     75      -2.3351      2.00000
     76      -2.3170      2.00000
     77      -2.3137      2.00000
     78      -2.2992      2.00000
     79      -2.2858      2.00000
     80      -2.2798      2.00000
     81      -2.2647      2.00000
     82      -2.2493      2.00000
     83      -2.2386      2.00000
     84      -2.2186      2.00000
     85      -2.1382      2.00000
     86      -2.0954      2.00000
     87      -2.0740      2.00000
     88      -2.0720      2.00000
     89      -2.0320      2.00000
     90      -2.0201      2.00000
     91      -1.9970      2.00000
     92      -1.9738      2.00000
     93      -1.9537      2.00000
     94      -1.9354      2.00000
     95      -1.9072      2.00000
     96      -1.8808      2.00000
     97      -1.8222      2.00000
     98      -1.7948      2.00000
     99      -1.7697      2.00000
    100      -1.7075      2.00000
    101      -1.6196      2.00000
    102      -1.5825      2.00000
    103      -1.5682      2.00000
    104      -1.5476      2.00000
    105      -1.5344      2.00000
    106      -1.5022      2.00000
    107      -1.4860      2.00000
    108      -1.4811      2.00000
    109      -1.4454      2.00000
    110      -1.4378      2.00000
    111      -1.4336      2.00000
    112      -1.4058      2.00000
    113      -1.3931      2.00000
    114      -1.2864      2.00000
    115      -1.2155      2.00000
    116      -1.1143      2.00000
    117      -1.0267      2.00000
    118      -0.9833      2.00000
    119      -0.9423      2.00000
    120      -0.9144      2.00000
    121      -0.8983      2.00000
    122      -0.8352      2.00000
    123      -0.7907      2.00000
    124      -0.7714      2.00000
    125      -0.7273      2.00000
    126      -0.7077      2.00000
    127      -0.6912      2.00000
    128      -0.6546      2.00000
    129      -0.6325      2.00000
    130      -0.6193      2.00000
    131      -0.6124      2.00000
    132      -0.5921      2.00000
    133      -0.5702      2.00000
    134      -0.5498      2.00000
    135      -0.4458      2.00000
    136      -0.3980      2.00000
    137      -0.3891      2.00000
    138      -0.3491      2.00000
    139      -0.3187      2.00000
    140      -0.3124      2.00000
    141      -0.2221      2.00000
    142      -0.1915      2.00000
    143      -0.1435      2.00000
    144      -0.1369      2.00000
    145      -0.0985      2.00000
    146      -0.0863      2.00000
    147       0.0080      2.00000
    148       0.0258      2.00000
    149       0.0494      2.00000
    150       0.0916      2.00000
    151       0.1122      2.00000
    152       0.1339      2.00000
    153       0.1784      2.00000
    154       0.1894      2.00000
    155       0.2142      2.00000
    156       0.2455      2.00000
    157       0.2746      2.00000
    158       0.3188      2.00000
    159       0.3295      2.00000
    160       0.3507      2.00000
    161       0.3597      2.00000
    162       0.3708      2.00000
    163       0.3833      2.00000
    164       0.3996      2.00000
    165       0.4089      2.00000
    166       0.4231      2.00000
    167       0.4423      2.00000
    168       0.4767      2.00001
    169       0.4862      2.00002
    170       0.5157      2.00005
    171       0.5318      2.00007
    172       0.5594      2.00016
    173       0.6509      2.00171
    174       0.6672      2.00248
    175       0.6741      2.00288
    176       0.6975      2.00472
    177       0.7083      2.00586
    178       0.7441      2.01140
    179       0.7474      2.01209
    180       0.7703      2.01763
    181       0.8137      2.03265
    182       0.8457      2.04685
    183       0.8631      2.05482
    184       0.8663      2.05626
    185       0.8783      2.06132
    186       0.8826      2.06294
    187       0.8867      2.06444
    188       0.8988      2.06814
    189       0.9104      2.07035
    190       0.9269      2.07044
    191       0.9325      2.06945
    192       0.9444      2.06514
    193       0.9613      2.05308
    194       0.9980      1.99510
    195       1.0363      1.87398
    196       1.1556      1.07264
    197       1.1755      0.90477
    198       1.2604      0.28118
    199       1.2724      0.21628
    200       1.2932      0.12157
    201       1.3051      0.07708
    202       1.3151      0.04504
    203       1.3303      0.00502
    204       1.5053     -0.03661
    205       1.5912     -0.01009
    206       1.9877     -0.00000
    207       2.0671     -0.00000
    208       2.1019     -0.00000
    209       2.1469     -0.00000
    210       2.2545     -0.00000
    211       2.5081     -0.00000
    212       3.6351     -0.00000
    213       3.9773     -0.00000
    214       4.3710     -0.00000
    215       4.3890     -0.00000
    216       4.4912     -0.00000
    217       4.5794     -0.00000
    218       4.8433     -0.00000
    219       5.4342     -0.00000
    220       5.5267     -0.00000
    221       5.9062     -0.00000
    222       5.9367     -0.00000
    223       5.9613     -0.00000
    224       5.9832     -0.00000
    225       6.0231     -0.00000
    226       6.1280     -0.00000
    227       6.5586     -0.00000
    228       6.6776      0.00000

 k-point     2 :       0.5000    0.0000    0.0000
  band No.  band energies     occupation 
      1     -22.3685      2.00000
      2     -17.8217      2.00000
      3      -8.5873      2.00000
      4      -7.2550      2.00000
      5      -7.2045      2.00000
      6      -6.2298      2.00000
      7      -6.0567      2.00000
      8      -5.8955      2.00000
      9      -5.7878      2.00000
     10      -5.7519      2.00000
     11      -5.5842      2.00000
     12      -5.4140      2.00000
     13      -5.3489      2.00000
     14      -5.2401      2.00000
     15      -5.0246      2.00000
     16      -4.9172      2.00000
     17      -4.8884      2.00000
     18      -4.8697      2.00000
     19      -4.8491      2.00000
     20      -4.8042      2.00000
     21      -4.7903      2.00000
     22      -4.7769      2.00000
     23      -4.7513      2.00000
     24      -4.7427      2.00000
     25      -4.7222      2.00000
     26      -4.6856      2.00000
     27      -4.6737      2.00000
     28      -4.6414      2.00000
     29      -4.5909      2.00000
     30      -4.5455      2.00000
     31      -4.4311      2.00000
     32      -4.3384      2.00000
     33      -4.3135      2.00000
     34      -4.2766      2.00000
     35      -4.2590      2.00000
     36      -4.2313      2.00000
     37      -4.0590      2.00000
     38      -3.9862      2.00000
     39      -3.9475      2.00000
     40      -3.9390      2.00000
     41      -3.9196      2.00000
     42      -3.8752      2.00000
     43      -3.8522      2.00000
     44      -3.8030      2.00000
     45      -3.7708      2.00000
     46      -3.6882      2.00000
     47      -3.6223      2.00000
     48      -3.5703      2.00000
     49      -3.5287      2.00000
     50      -3.5080      2.00000
     51      -3.4746      2.00000
     52      -3.4173      2.00000
     53      -3.3729      2.00000
     54      -3.3104      2.00000
     55      -3.2806      2.00000
     56      -3.2636      2.00000
     57      -3.2179      2.00000
     58      -3.2063      2.00000
     59      -3.1597      2.00000
     60      -3.1154      2.00000
     61      -3.0676      2.00000
     62      -3.0237      2.00000
     63      -3.0199      2.00000
     64      -2.9930      2.00000
     65      -2.9620      2.00000
     66      -2.9414      2.00000
     67      -2.8797      2.00000
     68      -2.8457      2.00000
     69      -2.8148      2.00000
     70      -2.7248      2.00000
     71      -2.6775      2.00000
     72      -2.6383      2.00000
     73      -2.5976      2.00000
     74      -2.5262      2.00000
     75      -2.4936      2.00000
     76      -2.4745      2.00000
     77      -2.4493      2.00000
     78      -2.4361      2.00000
     79      -2.4119      2.00000
     80      -2.3815      2.00000
     81      -2.3305      2.00000
     82      -2.2748      2.00000
     83      -2.2498      2.00000
     84      -2.1907      2.00000
     85      -2.1831      2.00000
     86      -2.1723      2.00000
     87      -2.1650      2.00000
     88      -2.1454      2.00000
     89      -2.1248      2.00000
     90      -2.0910      2.00000
     91      -2.0560      2.00000
     92      -2.0211      2.00000
     93      -2.0137      2.00000
     94      -1.9929      2.00000
     95      -1.9137      2.00000
     96      -1.9022      2.00000
     97      -1.8745      2.00000
     98      -1.8586      2.00000
     99      -1.8409      2.00000
    100      -1.8037      2.00000
    101      -1.7392      2.00000
    102      -1.7106      2.00000
    103      -1.6876      2.00000
    104      -1.6639      2.00000
    105      -1.6486      2.00000
    106      -1.6418      2.00000
    107      -1.5992      2.00000
    108      -1.5707      2.00000
    109      -1.5466      2.00000
    110      -1.5054      2.00000
    111      -1.4819      2.00000
    112      -1.4224      2.00000
    113      -1.3732      2.00000
    114      -1.3417      2.00000
    115      -1.2292      2.00000
    116      -1.1803      2.00000
    117      -1.1635      2.00000
    118      -1.1435      2.00000
    119      -1.0966      2.00000
    120      -1.0774      2.00000
    121      -1.0232      2.00000
    122      -0.9952      2.00000
    123      -0.9469      2.00000
    124      -0.9408      2.00000
    125      -0.9081      2.00000
    126      -0.8777      2.00000
    127      -0.8677      2.00000
    128      -0.8618      2.00000
    129      -0.8375      2.00000
    130      -0.8034      2.00000
[...]
     86      -2.1934      2.00000
     87      -2.1715      2.00000
     88      -2.1579      2.00000
     89      -2.1483      2.00000
     90      -2.1409      2.00000
     91      -2.1195      2.00000
     92      -2.0645      2.00000
     93      -2.0446      2.00000
     94      -1.9859      2.00000
     95      -1.9625      2.00000
     96      -1.9235      2.00000
     97      -1.8946      2.00000
     98      -1.8802      2.00000
     99      -1.8633      2.00000
    100      -1.8100      2.00000
    101      -1.7668      2.00000
    102      -1.7425      2.00000
    103      -1.7175      2.00000
    104      -1.7140      2.00000
    105      -1.6859      2.00000
    106      -1.6623      2.00000
    107      -1.6366      2.00000
    108      -1.6166      2.00000
    109      -1.5884      2.00000
    110      -1.5317      2.00000
    111      -1.5093      2.00000
    112      -1.4538      2.00000
    113      -1.4285      2.00000
    114      -1.3571      2.00000
    115      -1.2993      2.00000
    116      -1.2349      2.00000
    117      -1.1840      2.00000
    118      -1.1619      2.00000
    119      -1.1244      2.00000
    120      -1.0785      2.00000
    121      -1.0464      2.00000
    122      -1.0331      2.00000
    123      -0.9962      2.00000
    124      -0.9858      2.00000
    125      -0.9707      2.00000
    126      -0.9487      2.00000
    127      -0.9262      2.00000
    128      -0.9113      2.00000
    129      -0.8792      2.00000
    130      -0.8721      2.00000
    131      -0.8231      2.00000
    132      -0.8046      2.00000
    133      -0.7552      2.00000
    134      -0.7229      2.00000
    135      -0.6999      2.00000
    136      -0.6761      2.00000
    137      -0.6669      2.00000
    138      -0.6311      2.00000
    139      -0.5869      2.00000
    140      -0.5392      2.00000
    141      -0.4716      2.00000
    142      -0.4636      2.00000
    143      -0.3778      2.00000
    144      -0.3004      2.00000
    145      -0.2536      2.00000
    146      -0.2030      2.00000
    147      -0.1763      2.00000
    148      -0.0954      2.00000
    149      -0.0793      2.00000
    150      -0.0504      2.00000
    151      -0.0130      2.00000
    152       0.0648      2.00000
    153       0.0779      2.00000
    154       0.0915      2.00000
    155       0.1221      2.00000
    156       0.1346      2.00000
    157       0.1381      2.00000
    158       0.1752      2.00000
    159       0.2100      2.00000
    160       0.2227      2.00000
    161       0.2557      2.00000
    162       0.3135      2.00000
    163       0.3453      2.00000
    164       0.3837      2.00000
    165       0.4004      2.00000
    166       0.4249      2.00001
    167       0.5164      2.00016
    168       0.5867      2.00104
    169       0.6225      2.00238
    170       0.6424      2.00367
    171       0.6713      2.00659
    172       0.6923      2.00976
    173       0.7209      2.01593
    174       0.8036      2.04724
    175       0.8120      2.05116
    176       0.8368      2.06190
    177       0.8723      2.07080
    178       0.9023      2.06472
    179       0.9326      2.03632
    180       0.9530      1.99954
    181       0.9654      1.96874
    182       1.0376      1.64345
    183       1.0682      1.43125
    184       1.1090      1.10278
    185       1.1139      1.06126
    186       1.1246      0.97066
    187       1.1535      0.73043
    188       1.1644      0.64364
    189       1.1809      0.51843
    190       1.2051      0.35409
    191       1.3250     -0.05400
    192       1.3555     -0.06999
    193       1.3807     -0.06944
    194       1.4204     -0.05566
    195       1.4500     -0.04209
    196       1.5005     -0.02200
    197       1.6106     -0.00292
    198       1.7473     -0.00009
    199       1.8392     -0.00000
    200       2.0101     -0.00000
    201       2.2405     -0.00000
    202       2.3411     -0.00000
    203       2.7888     -0.00000
    204       2.9527     -0.00000
    205       2.9732     -0.00000
    206       3.0157     -0.00000
    207       3.0229     -0.00000
    208       3.2204     -0.00000
    209       3.3952     -0.00000
    210       3.5320     -0.00000
    211       3.5978     -0.00000
    212       3.6297     -0.00000
    213       3.7434     -0.00000
    214       3.8444     -0.00000
    215       3.9526     -0.00000
    216       4.1754     -0.00000
    217       4.2548     -0.00000
    218       4.3897     -0.00000
    219       4.3986     -0.00000
    220       4.6315     -0.00000
    221       4.6458     -0.00000
    222       4.8272     -0.00000
    223       5.0585     -0.00000
    224       5.5077     -0.00000
    225       5.8108     -0.00000
    226       6.5500     -0.00000
    227       6.5845      0.00000
    228       6.6151      0.00000


--------------------------------------------------------------------------------------------------------


 soft charge-density along one line, spin component           1
         0         1         2         3         4         5         6         7         8         9
 total charge-density along one line
 
 pseudopotential strength for first ion, spin component:           1
 10.097   0.016   0.003   0.009   0.001  -0.003  -0.008  -0.000
  0.016  -0.002  -0.000  -0.000  -0.000  -0.000  -0.000   0.000
  0.003  -0.000  -4.252  -0.005   0.001  -0.009  -0.002   0.000
  0.009  -0.000  -0.005  -4.264   0.003  -0.002  -0.015   0.000
  0.001  -0.000   0.001   0.003  -4.250   0.000   0.000  -0.008
 -0.003  -0.000  -0.009  -0.002   0.000  -0.770  -0.000   0.000
 -0.008  -0.000  -0.002  -0.015   0.000  -0.000  -0.770   0.000
 -0.000   0.000   0.000   0.000  -0.008   0.000   0.000  -0.770
 total augmentation occupancy for first ion, spin component:           1
  1.637  -0.807   0.003  -0.015  -0.050   0.028   0.080  -0.021
 -0.807   1.126  -0.177  -0.525   0.074  -0.071  -0.216   0.025
  0.003  -0.177   0.825   0.174   0.011   0.107   0.050  -0.003
 -0.015  -0.525   0.174   1.305  -0.002   0.050   0.241  -0.007
 -0.050   0.074   0.011  -0.002   0.771  -0.004  -0.008   0.093
  0.028  -0.071   0.107   0.050  -0.004   0.018   0.019  -0.002
  0.080  -0.216   0.050   0.241  -0.008   0.019   0.068  -0.005
 -0.021   0.025  -0.003  -0.007   0.093  -0.002  -0.005   0.012


------------------------ aborting loop because EDIFF is reached ----------------------------------------


    CHARGE:  cpu time    0.5256: real time    0.5288
    FORLOC:  cpu time    0.0475: real time    0.0478
    FORNL :  cpu time    1.9721: real time    1.9863
    STRESS:  cpu time    5.4211: real time    5.4620
    FORCOR:  cpu time    0.1278: real time    0.1286
    FORHAR:  cpu time    0.0676: real time    0.0680
    MIXING:  cpu time    0.0047: real time    0.0047
    OFIELD:  cpu time    0.0000: real time    0.0000

  FORCE on cell =-STRESS in cart. coord.  units (eV):
  Direction    XX          YY          ZZ          XY          YZ          ZX
  --------------------------------------------------------------------------------------
  Alpha Z   975.10247   975.10247   975.10247
  Ewald  111233.07834111225.43887************  -211.30091   254.87634   -83.83000
  Hartree117985.07233117954.46601************  -138.65670   111.96633   -48.87376
  E(xc)   -1665.95731 -1665.76590 -1673.28227    -0.47806     0.72513    -0.19498
  Local  ************************239883.90591   338.25112  -343.84256   127.32417
  n-local   125.24022   124.82792    92.81729    -1.59309     1.28788    -0.39856
  augment  1895.09635  1893.55982  1932.10354     3.11816    -4.40335     0.93491
  Kinetic  5522.99763  5515.81633  5597.74703    10.99289   -21.71799     5.60006
  Fock        0.00000     0.00000     0.00000     0.00000     0.00000     0.00000
  -------------------------------------------------------------------------------------
  Total     -34.97105   -36.85575    -5.33423     0.33341    -1.10822     0.56185
  in kB     -41.65110   -43.89580    -6.35316     0.39709    -1.31991     0.66917
  external pressure =      -30.63 kB  Pullay stress =        0.00 kB


 VOLUME and BASIS-vectors are now :
 -----------------------------------------------------------------------------
  energy-cutoff  :      450.00
  volume of cell :     1345.22
      direct lattice vectors                 reciprocal lattice vectors
     7.296955120 -4.212899000  0.000000000     0.137043463  0.000000000  0.000000000
     0.000000000  8.425798000  0.000000000     0.068521732  0.118683121  0.000000000
     0.000000000  0.000000000 21.879635000     0.000000000  0.000000000  0.045704602

  length of vectors
     8.425798004  8.425798000 21.879635000     0.137043463  0.137043463  0.045704602


 FORCES acting on ions
    electron-ion (+dipol)            ewald-force                    non-local-force                 convergence-correction
 -----------------------------------------------------------------------------------------------
   0.138E+02 0.652E+01 -.882E+03   -.151E+02 -.102E+02 0.871E+03   0.628E+00 0.340E+01 0.115E+02   -.421E-01 -.104E-01 -.106E+00
   -.763E+02 0.419E+02 -.159E+04   0.771E+02 -.376E+02 0.161E+04   -.337E+00 -.405E+01 -.234E+02   -.328E-01 -.567E-02 -.423E-01
   0.495E+02 -.963E+02 -.153E+04   -.559E+02 0.115E+03 0.158E+04   0.686E+01 -.189E+02 -.573E+02   -.298E-01 0.280E-01 -.830E-02
   0.573E+00 0.717E+00 0.234E+04   -.626E+00 -.676E+00 -.234E+04   0.654E-03 -.419E-01 -.121E+01   0.676E-01 -.594E-01 0.579E-01
   -.722E-01 0.981E+00 0.234E+04   0.101E+00 -.103E+01 -.234E+04   -.191E-01 -.190E-01 -.112E+01   -.605E-01 0.203E-01 0.704E-01
   0.696E+00 0.453E+00 0.234E+04   -.713E+00 -.424E+00 -.234E+04   0.234E-01 -.167E-01 -.112E+01   -.406E-01 -.188E-01 0.313E-01
   0.432E+00 -.211E-02 0.234E+04   -.507E+00 -.460E-02 -.234E+04   0.570E-02 0.145E-01 -.120E+01   0.806E-01 0.443E-01 0.603E-01
   -.342E+00 0.100E+00 0.234E+04   0.306E+00 -.104E+00 -.234E+04   0.131E-01 0.264E-01 -.128E+01   0.233E-01 0.379E-02 0.914E-01
   0.167E+00 0.330E+00 0.234E+04   -.963E-01 -.413E+00 -.234E+04   0.667E-02 0.112E-01 -.123E+01   -.277E-01 0.840E-01 0.623E-01
   -.681E+00 -.125E+01 0.234E+04   0.814E+00 0.113E+01 -.234E+04   -.736E-01 0.108E+00 -.105E+01   -.411E-01 -.240E-01 0.104E+00
   -.227E+00 -.750E+00 0.234E+04   0.284E+00 0.843E+00 -.234E+04   -.153E-01 -.983E-02 -.128E+01   -.209E-01 -.652E-01 0.941E-01
   -.423E+00 -.682E+00 0.234E+04   0.434E+00 0.678E+00 -.234E+04   -.118E-01 0.105E-01 -.105E+01   0.194E-01 0.151E-01 0.102E+00
   -.669E+01 -.589E+01 0.854E+03   0.667E+01 0.589E+01 -.853E+03   0.166E+00 0.115E+00 -.427E+00   -.659E-01 -.280E-01 0.156E+00
   -.702E+00 -.578E+01 0.855E+03   0.680E+00 0.593E+01 -.855E+03   0.877E-01 0.916E-01 -.146E+00   -.882E-01 -.110E+00 0.156E+00
   0.105E+00 -.302E+01 0.858E+03   -.507E-01 0.301E+01 -.858E+03   -.128E-01 0.129E+00 -.356E+00   0.210E-01 -.934E-01 0.157E+00
   0.854E+00 0.809E+01 0.867E+03   -.891E+00 -.815E+01 -.867E+03   -.145E-01 -.419E-01 -.609E+00   0.156E-01 -.247E-01 0.885E-01
   0.237E+01 0.902E+01 0.860E+03   -.232E+01 -.913E+01 -.860E+03   0.177E-01 -.907E-01 -.372E+00   -.934E-01 0.445E-01 0.967E-01
   0.696E+01 0.259E+01 0.862E+03   -.710E+01 -.262E+01 -.862E+03   -.331E-01 0.719E-01 -.423E+00   0.667E-01 -.383E-01 0.107E+00
   -.299E+01 -.235E+01 0.869E+03   0.302E+01 0.246E+01 -.869E+03   -.684E-01 -.108E+00 -.652E+00   0.763E-01 0.526E-01 0.129E+00
   -.212E+01 -.210E+01 0.865E+03   0.217E+01 0.211E+01 -.865E+03   -.768E-02 -.307E-01 -.551E+00   -.631E-02 0.656E-01 0.117E+00
   0.302E+01 -.109E+00 0.866E+03   -.304E+01 0.166E+00 -.866E+03   -.916E-01 -.116E+00 -.563E+00   0.745E-01 0.132E+00 0.137E+00
   0.282E+01 0.336E+01 -.634E+03   -.296E+01 -.347E+01 0.633E+03   -.801E-01 0.152E+00 0.109E+01   0.805E-01 0.201E-01 -.600E-01
   -.280E+01 -.145E+01 -.637E+03   0.279E+01 0.143E+01 0.636E+03   0.425E-01 0.272E-01 0.464E+00   0.195E-01 0.517E-01 -.456E-02
   -.870E+00 -.339E+00 -.661E+03   0.652E+00 0.892E+00 0.661E+03   0.266E+00 -.474E+00 0.266E+00   -.672E-01 -.129E+00 0.374E-01
   -.498E+01 0.142E+02 -.651E+03   0.456E+01 -.133E+02 0.651E+03   0.499E+00 -.921E+00 -.314E+00   -.301E-01 -.134E+00 -.407E-01
   0.616E+01 0.101E+01 -.664E+03   -.544E+01 -.981E+00 0.664E+03   -.550E+00 0.454E-01 -.593E+00   -.107E+00 -.923E-01 0.819E-01
   -.540E+01 -.145E+02 -.615E+03   0.520E+01 0.143E+02 0.614E+03   0.163E+00 0.232E+00 0.915E+00   0.642E-01 0.106E+00 -.186E-01
   -.320E+01 -.254E+01 -.634E+03   0.317E+01 0.248E+01 0.633E+03   0.385E-01 -.529E-01 0.574E+00   0.519E-01 0.777E-01 -.211E-02
   0.187E+01 -.145E+01 -.636E+03   -.186E+01 0.132E+01 0.636E+03   -.364E-02 0.187E+00 0.103E+01   -.141E-01 0.364E-01 -.287E-01
   0.243E+01 0.411E+01 -.645E+03   -.251E+01 -.438E+01 0.644E+03   0.128E+00 0.139E+00 0.300E+00   0.194E-02 0.561E-01 0.481E-01
   -.233E+02 -.567E+01 -.217E+04   0.237E+02 0.593E+01 0.217E+04   -.442E+00 -.558E+00 0.107E+01   0.925E-01 0.737E-01 -.438E-01
   0.208E+02 0.220E+02 -.212E+04   -.212E+02 -.227E+02 0.212E+04   0.358E+00 0.871E+00 0.164E+01   -.276E-01 -.142E-02 -.116E+00
   0.247E+02 -.146E+02 -.215E+04   -.251E+02 0.148E+02 0.215E+04   0.313E+00 0.223E+00 0.992E+00   0.120E-01 -.124E+00 -.673E-01
   0.341E+00 0.119E+02 -.217E+04   -.465E+00 -.121E+02 0.217E+04   0.336E-01 0.101E+00 0.856E+00   0.258E-01 -.103E-01 -.114E+00
   0.794E+01 0.209E+02 -.216E+04   -.819E+01 -.212E+02 0.216E+04   0.361E+00 0.556E-01 0.117E+01   0.259E-01 0.572E-01 -.121E+00
   0.678E+02 0.592E+02 -.200E+04   -.707E+02 -.571E+02 0.200E+04   0.267E+01 -.160E+01 -.281E+01   -.114E+00 -.548E-01 -.911E-01
   -.437E+02 -.394E+02 -.205E+04   0.451E+02 0.417E+02 0.205E+04   -.153E+01 -.249E+01 0.234E+01   0.353E-01 0.126E+00 -.732E-01
   -.576E+02 0.742E+02 -.204E+04   0.583E+02 -.750E+02 0.205E+04   -.747E+00 0.120E+01 -.104E+01   -.216E-01 -.135E+00 -.134E+00
   0.104E+02 -.596E+02 -.212E+04   -.105E+02 0.607E+02 0.212E+04   0.180E+00 -.117E+01 0.116E+01   0.169E-01 0.506E-01 -.385E-01
 -----------------------------------------------------------------------------------------------
   -.870E+01 0.236E+02 0.739E+02   0.112E-12 -.213E-12 0.500E-11   0.883E+01 -.235E+02 -.747E+02   -.593E-01 -.147E-01 0.876E+00
 
 
 POSITION                                       TOTAL-FORCE (eV/Angst)
 -----------------------------------------------------------------------------------
      5.09270      0.65335     10.42907        -0.717495     -0.305582      0.830731
      6.65073     -0.57983     10.13681         0.502430      0.242761      0.199214
      4.97105      1.02255     11.53854         0.441382     -0.374566     -1.384738
      7.20031     -1.38846      1.62732         0.013545     -0.063113      0.143400
      2.33567      1.42014      1.62732        -0.052456     -0.048491      0.183604
      4.76799      0.01584      1.62732        -0.035949     -0.010062      0.178107
      7.20031      1.42015      1.62732         0.010117      0.048817      0.108014
      2.33567      4.22875      1.62732        -0.000621      0.022821      0.148143
      4.76799      2.82445      1.62732         0.047615      0.008996      0.136277
      2.33567      7.03734      1.62732         0.016951     -0.040721      0.080618
      4.76799      5.63304      1.62732         0.018888      0.014355      0.100866
      7.20031      4.22874      1.62732         0.017018      0.018963      0.018098
      1.52490      0.01584      3.92052         0.074210      0.088776     -0.068036
      3.95722     -1.38846      3.92052        -0.023707      0.131237     -0.020885
      6.38953     -2.79276      3.92052         0.060360      0.017304     -0.191951
      1.52490      2.82445      3.92052        -0.038208     -0.137484     -0.341589
      3.95722      1.42015      3.92052        -0.027602     -0.161481     -0.073041
      6.38953      0.01585      3.92052        -0.113330      0.006806     -0.110833
      1.52490      5.63305      3.92052         0.028292      0.048722     -0.475848
      3.95722      4.22874      3.92052         0.035986      0.037742     -0.314086
      6.38953      2.82445      3.92052        -0.035833      0.069405     -0.404926
      0.72250      4.20549      6.14487        -0.144506      0.058201      0.597941
      3.13504      5.62341      6.16843         0.053959      0.050034      0.039525
      5.57018     -1.36098      6.21233        -0.021150     -0.053220      0.189263
      0.68806      1.45322      6.20714         0.041978     -0.134280      0.214203
      3.15334      0.01128      6.25136         0.062010     -0.020968     -0.481421
      0.70210      7.02683      6.13507         0.021360      0.121583      0.411432
      5.57515      4.22755      6.16532         0.058339     -0.037436      0.111508
      3.14215      2.80392      6.15227        -0.010807      0.095839      0.584543
      5.56663      1.41648      6.19414         0.055080     -0.075397      0.068033
      2.34934      4.23933      8.49261         0.045822     -0.220652     -0.430701
      4.75923      5.59451      8.41181        -0.062997      0.162048      0.184170
      2.34696      1.37641      8.51009        -0.064621      0.234868     -0.266990
      7.20641      4.18507      8.49450        -0.066671     -0.096724     -0.153559
      2.31665      7.02663      8.44879         0.143582     -0.221181      0.219319
      4.71361      0.04250      8.64768        -0.330691      0.363252      0.200460
      7.26234      1.44434      8.41328        -0.092181     -0.079709      0.045638
      7.28960     -1.55150      8.60002         0.000204      0.203481      0.001103
      4.76020      2.85235      8.48684         0.089696      0.035052     -0.275608
 -----------------------------------------------------------------------------------
    total drift:                                0.073081      0.128341      0.004010
  FORCES: max atom, RMS     1.500872    0.398999
  Number: max atom                 3
  FORCE total and by dimension    2.491749    1.384738


--------------------------------------------------------------------------------------------------------



  FREE ENERGIE OF THE ION-ELECTRON SYSTEM (eV)
  ---------------------------------------------------
  free  energy   TOTEN  =      -230.54498196 eV

  energy  without entropy=     -230.52469333  energy(sigma->0) =     -230.53821909
 
 d Force = 0.7537734E-01[ 0.113E-01, 0.139E+00]  d Energy = 0.7295829E-01 0.242E-02
 d Force = 0.9694365E+01[ 0.938E+01, 0.100E+02]  d Ewald  = 0.9692260E+01 0.210E-02


--------------------------------------------------------------------------------------------------------


    POTLOK:  cpu time    0.1446: real time    0.4397


--------------------------------------------------------------------------------------------------------


 stress matrix after NEB project (eV)
    -34.97105      0.33341      0.56185
      0.33341    -36.85575     -1.10822
      0.56185     -1.10822     -5.33423
  FORCES: max atom, RMS     1.500872    0.398999
  FORCE total and by dimension    2.491749    1.384738
  Stress total and by dimension   51.118339   36.855748
 Quasi-Newton relaxation of ions (Broydens 2nd method)
  g(Force)  = 0.120E+00   g(Stress)= 0.000E+00

 retain information from N=  3 steps
 eigenvalues of (default step * inverse Hessian matrix)
  average eigenvalue of G=   1.6374
 eigenvalue spectrum of G is  1.1985  2.6511  1.0627
  RESET_HESSIAN           0


--------------------------------------------------------------------------------------------------------


    WAVPRE:  cpu time    0.0883: real time    0.4282
    FEWALD:  cpu time    0.0024: real time    0.0024

 real space projection operators:
  total allocation   :      13555.28 KBytes
  max/ min on nodes  :       6786.38       6768.91

    ORTHCH:  cpu time    0.7034: real time    0.7153
     LOOP+:  cpu time   62.7628: real time   64.4887


--------------------------------------- Iteration      5(   1)  ---------------------------------------


