 running on    8 total cores
 distrk:  each k-point on    8 cores,    1 groups
 distr:  one band on    2 cores,    4 groups
 using from now: INCAR     
 vasp.5.4.4 16052018 (build Apr 24 2014 20:13:14) complex standard
 Contain Constrained Minimization Technique (TS), Periodic NBO, VASPsol, libbeef, VASP2WANNIER90, Constrained Cell Relaxation
 POSCAR found type information on POSCAR  C  O  Pt
 POSCAR found :  3 types and      39 ions
 scaLAPACK will be used
 LDA part: xc-table for Pade appr. of Perdew
 POSCAR found type information on POSCAR  C  O  Pt
 POSCAR found :  3 types and      39 ions
 POSCAR, INCAR and KPOINTS ok, starting setup
 FFT: planning ...
 WAVECAR not read
 entering main loop
       N       E                     dE             d eps       ncg     rms          rms(c)
DAV:   1     0.242247210437E+04    0.24225E+04   -0.15951E+05  1824   0.129E+03
DAV:   2    -0.604645403732E+02   -0.24829E+04   -0.23056E+04  2104   0.286E+02
DAV:   3    -0.239410703672E+03   -0.17895E+03   -0.16245E+03  2168   0.691E+01
DAV:   4    -0.247319087528E+03   -0.79084E+01   -0.75779E+01  2352   0.138E+01
DAV:   5    -0.247542059671E+03   -0.22297E+00   -0.22066E+00  2328   0.238E+00    0.272E+01
RMM:   6    -0.244189338901E+03    0.33527E+01   -0.55030E+01  1831   0.148E+01    0.264E+01
RMM:   7    -0.238030381422E+03    0.61590E+01   -0.30393E+01  1830   0.869E+00    0.192E+01
RMM:   8    -0.233269116073E+03    0.47613E+01   -0.78079E+00  1831   0.488E+00    0.143E+01
RMM:   9    -0.233847552421E+03   -0.57844E+00   -0.20662E+00  1830   0.223E+00    0.153E+01
RMM:  10    -0.230263009018E+03    0.35845E+01   -0.13881E+00  1831   0.188E+00    0.438E+00
RMM:  11    -0.229951653083E+03    0.31136E+00   -0.41462E-01  1831   0.104E+00    0.289E+00
RMM:  12    -0.229870285319E+03    0.81368E-01   -0.17749E-01  1831   0.684E-01    0.247E+00
RMM:  13    -0.229834452497E+03    0.35833E-01   -0.15175E-01  1831   0.641E-01    0.181E+00
RMM:  14    -0.229794335289E+03    0.40117E-01   -0.73019E-02  1831   0.459E-01    0.896E-01
RMM:  15    -0.229783598366E+03    0.10737E-01   -0.24202E-02  1831   0.261E-01    0.486E-01
RMM:  16    -0.229781950646E+03    0.16477E-02   -0.72744E-03  1830   0.145E-01    0.353E-01
RMM:  17    -0.229780047335E+03    0.19033E-02   -0.23934E-03  1817   0.849E-02    0.124E-01
RMM:  18    -0.229780022414E+03    0.24922E-04   -0.65919E-04  1660   0.435E-02
   1 F= -.22978002E+03 E0= -.22977126E+03  d E =-.229780E+03
 BRION: g(F)=  0.780E+00 g(S)=  0.000E+00
 bond charge predicted
       N       E                     dE             d eps       ncg     rms          rms(c)
DAV:   1    -0.230171044957E+03   -0.39100E+00   -0.77487E+01  1844   0.167E+01    0.173E+00
RMM:   2    -0.230693939104E+03   -0.52289E+00   -0.21948E+00  1832   0.273E+00    0.614E+00
RMM:   3    -0.230389322618E+03    0.30462E+00   -0.21304E-01  1836   0.777E-01    0.223E+00
RMM:   4    -0.230327818744E+03    0.61504E-01   -0.63229E-02  1842   0.415E-01    0.125E+00
RMM:   5    -0.230302620663E+03    0.25198E-01   -0.22242E-02  1833   0.246E-01    0.665E-01
RMM:   6    -0.230298538911E+03    0.40818E-02   -0.12221E-02  1831   0.192E-01    0.424E-01
RMM:   7    -0.230300753570E+03   -0.22147E-02   -0.12911E-02  1829   0.196E-01    0.518E-01
RMM:   8    -0.230296604908E+03    0.41487E-02   -0.48301E-03  1829   0.120E-01    0.139E-01
RMM:   9    -0.230296399375E+03    0.20553E-03   -0.71881E-04  1676   0.458E-02    0.777E-02
RMM:  10    -0.230296490889E+03   -0.91514E-04   -0.19367E-04  1031   0.256E-02
   2 F= -.23029649E+03 E0= -.23028998E+03  d E =-.516468E+00
 BRION: g(F)=  0.217E+00 g(S)=  0.000E+00 retain N=  1 mean eig= 1.27
 eig:   1.267
 bond charge predicted
       N       E                     dE             d eps       ncg     rms          rms(c)
DAV:   1    -0.230417840665E+03   -0.12144E+00   -0.29483E+01  1832   0.102E+01    0.754E-01
RMM:   2    -0.230497810367E+03   -0.79970E-01   -0.69493E-01  1842   0.159E+00    0.113E+00
RMM:   3    -0.230491420718E+03    0.63896E-02   -0.39190E-02  1855   0.344E-01    0.107E+00
RMM:   4    -0.230477132669E+03    0.14288E-01   -0.10552E-02  1841   0.172E-01    0.577E-01
RMM:   5    -0.230473838956E+03    0.32937E-02   -0.52667E-03  1837   0.119E-01    0.398E-01
RMM:   6    -0.230473525970E+03    0.31299E-03   -0.71630E-03  1831   0.138E-01    0.309E-01
RMM:   7    -0.230472405191E+03    0.11208E-02   -0.37805E-03  1831   0.106E-01    0.165E-01
RMM:   8    -0.230472056752E+03    0.34844E-03   -0.80031E-04  1781   0.494E-02    0.825E-02
RMM:   9    -0.230472023670E+03    0.33082E-04   -0.20936E-04  1036   0.265E-02
   3 F= -.23047202E+03 E0= -.23046537E+03  d E =-.175533E+00
 BRION: g(F)=  0.320E+00 g(S)=  0.000E+00 retain N=  2 mean eig= 0.86
 eig:   1.083  0.646
 bond charge predicted
       N       E                     dE             d eps       ncg     rms          rms(c)
DAV:   1    -0.230537539417E+03   -0.65483E-01   -0.53625E+00  1824   0.416E+00    0.523E-01
RMM:   2    -0.230552996227E+03   -0.15457E-01   -0.17253E-01  1842   0.741E-01    0.585E-01
RMM:   3    -0.230554640767E+03   -0.16445E-02   -0.84640E-03  1850   0.156E-01    0.730E-01
RMM:   4    -0.230547192341E+03    0.74484E-02   -0.43828E-03  1833   0.109E-01    0.307E-01
RMM:   5    -0.230547346840E+03   -0.15450E-03   -0.64289E-03  1831   0.132E-01    0.390E-01
RMM:   6    -0.230545514483E+03    0.18324E-02   -0.32426E-03  1828   0.967E-02    0.183E-01
RMM:   7    -0.230545014426E+03    0.50006E-03   -0.82497E-04  1770   0.488E-02    0.814E-02
RMM:   8    -0.230544981962E+03    0.32464E-04   -0.23895E-04  1056   0.276E-02
   4 F= -.23054498E+03 E0= -.23053822E+03  d E =-.729583E-01
 BRION: g(F)=  0.120E+00 g(S)=  0.000E+00 retain N=  3 mean eig= 1.64
 eig:   1.198  2.651  1.063
 bond charge predicted
       N       E                     dE             d eps       ncg     rms          rms(c)
[mpiexec@node09] Sending Ctrl-C to processes as requested
[mpiexec@node09] Press Ctrl-C again to force abort
