<?xml version="1.0" encoding="ISO-8859-1"?>
<modeling>
 <generator>
  <i name="program" type="string"> vasp </i>
  <i name="version" type="string">5.4.4  </i>
  <i name="subversion" type="string">16052018 (build Apr 24 2014 20:13:14) complex standard parallel Constrained Minimization Technique (TS), Periodic NBO, VASPsol, libbeef, VASP2WANNIER90, Constrained Cell Relaxation </i>
  <i name="platform" type="string">Center for Computational Chemistry </i>
  <i name="user" type="string">phu </i>
  <i name="host" type="string">node09 </i>
  <i name="date" type="string">2025 09 27 </i>
  <i name="time" type="string">23:42:33 </i>
 </generator>
 <incar>
  <i type="string" name="SYSTEM"> metal</i>
  <i type="int" name="ISTART">     0</i>
  <i type="string" name="PREC">normal</i>
  <i type="string" name="ALGO">Fast</i>
  <i type="int" name="NSIM">     4</i>
  <i type="int" name="ISPIN">     1</i>
  <i type="int" name="NELMIN">     8</i>
  <i type="int" name="IBRION">     1</i>
  <i name="EDIFFG">     -0.05000000</i>
  <i type="int" name="NSW">  5000</i>
  <i type="int" name="ISIF">     2</i>
  <i type="int" name="ISYM">     0</i>
  <i name="ENCUT">    450.00000000</i>
  <i name="POTIM">      0.20000000</i>
  <i type="string" name="LREAL">A</i>
  <i type="int" name="ISMEAR">     1</i>
  <i name="SIGMA">      0.20000000</i>
  <i type="logical" name="LWAVE"> F  </i>
  <i type="logical" name="LCHARG"> F  </i>
  <v type="int" name="KPOINT_BSE">    -1     0     0     0</v>
  <i type="int" name="VOSKOWN">     0</i>
 </incar>
 <structure name="primitive_cell" >
  <crystal>
   <varray name="basis" >
    <v>       7.29695512      -4.21289900       0.00000000 </v>
    <v>       0.00000000       8.42579800       0.00000000 </v>
    <v>       0.00000000       0.00000000      21.87963500 </v>
   </varray>
   <i name="volume">   1345.21837528 </i>
   <varray name="rec_basis" >
    <v>       0.13704346       0.00000000       0.00000000 </v>
    <v>       0.06852173       0.11868312       0.00000000 </v>
    <v>       0.00000000       0.00000000       0.04570460 </v>
   </varray>
  </crystal>
  <varray name="positions" >
   <v>      -0.29443963       0.43419593       0.47872487 </v>
   <v>      -0.32257618       0.46105181      -0.47138660 </v>
   <v>      -0.09021432       0.38166672       0.45999119 </v>
   <v>      -0.35268186       0.32373764       0.39292277 </v>
   <v>      -0.34808961      -0.33530348       0.38888375 </v>
   <v>      -0.00401384      -0.33051529       0.38492946 </v>
   <v>       0.32318857       0.32095417       0.38969796 </v>
   <v>      -0.00606592       0.31600755       0.39555929 </v>
   <v>       0.31710953      -0.00410470       0.38527489 </v>
   <v>      -0.34676703      -0.01015131       0.38400364 </v>
   <v>      -0.23802009      -0.45060755       0.28268819 </v>
   <v>      -0.01140998      -0.00820386       0.38903170 </v>
   <v>       0.43119417       0.21661164       0.28806713 </v>
   <v>      -0.23638731       0.22086145       0.28352318 </v>
   <v>       0.32154756      -0.33400528       0.38979945 </v>
   <v>       0.43054041      -0.45289351       0.27847484 </v>
   <v>       0.10039894      -0.45189087       0.27819032 </v>
   <v>      -0.23705442      -0.11596464       0.28119030 </v>
   <v>       0.09686433      -0.11897862       0.27852373 </v>
   <v>       0.42908763      -0.11811298       0.28162175 </v>
   <v>       0.09404618       0.22132067       0.28256614 </v>
   <v>      -0.45768900       0.43970300       0.17918600 </v>
   <v>      -0.12435600       0.43970300       0.17918600 </v>
   <v>      -0.45768900       0.10636900       0.17918600 </v>
   <v>      -0.12435600      -0.22696400       0.17918600 </v>
   <v>       0.20897700       0.10636900       0.17918600 </v>
   <v>      -0.12435600       0.10636900       0.17918600 </v>
   <v>      -0.45768900      -0.22696400       0.17918600 </v>
   <v>       0.20897700      -0.22696400       0.17918600 </v>
   <v>       0.20897700       0.43970300       0.17918600 </v>
   <v>      -0.34657800       0.32859100       0.07437600 </v>
   <v>      -0.34657800      -0.33807500       0.07437600 </v>
   <v>      -0.01324500      -0.33807500       0.07437600 </v>
   <v>       0.32008800       0.32859100       0.07437600 </v>
   <v>      -0.01324500       0.32859100       0.07437600 </v>
   <v>       0.32008800      -0.00474200       0.07437600 </v>
   <v>      -0.34657800      -0.00474200       0.07437600 </v>
   <v>      -0.01324500      -0.00474200       0.07437600 </v>
   <v>       0.32008800      -0.33807500       0.07437600 </v>
  </varray>
 </structure>
 <varray name="primitive_index" >
  <v type="int" >        1 </v>
  <v type="int" >        3 </v>
  <v type="int" >        2 </v>
  <v type="int" >       36 </v>
  <v type="int" >       39 </v>
  <v type="int" >       37 </v>
  <v type="int" >       33 </v>
  <v type="int" >       38 </v>
  <v type="int" >       35 </v>
  <v type="int" >       32 </v>
  <v type="int" >       30 </v>
  <v type="int" >       34 </v>
  <v type="int" >       26 </v>
  <v type="int" >       24 </v>
  <v type="int" >       31 </v>
  <v type="int" >       29 </v>
  <v type="int" >       22 </v>
  <v type="int" >       28 </v>
  <v type="int" >       27 </v>
  <v type="int" >       23 </v>
  <v type="int" >       25 </v>
  <v type="int" >       17 </v>
  <v type="int" >       18 </v>
  <v type="int" >       14 </v>
  <v type="int" >       21 </v>
  <v type="int" >       13 </v>
  <v type="int" >       15 </v>
  <v type="int" >       20 </v>
  <v type="int" >       19 </v>
  <v type="int" >       16 </v>
  <v type="int" >        6 </v>
  <v type="int" >        9 </v>
  <v type="int" >        7 </v>
  <v type="int" >        5 </v>
  <v type="int" >        4 </v>
  <v type="int" >       10 </v>
  <v type="int" >       11 </v>
  <v type="int" >       12 </v>
  <v type="int" >        8 </v>
 </varray>
 <kpoints>
  <generation param="Gamma">
   <v type="int" name="divisions">       2        2        1 </v>
   <v name="usershift">      0.00000000       0.00000000       0.00000000 </v>
   <v name="genvec1">      0.50000000       0.00000000       0.00000000 </v>
   <v name="genvec2">     -0.00000000       0.50000000       0.00000000 </v>
   <v name="genvec3">      0.00000000       0.00000000       1.00000000 </v>
   <v name="shift">      0.00000000       0.00000000       0.00000000 </v>
  </generation>
  <varray name="kpointlist" >
   <v>       0.00000000       0.00000000       0.00000000 </v>
   <v>       0.50000000       0.00000000       0.00000000 </v>
   <v>      -0.00000000       0.50000000       0.00000000 </v>
   <v>       0.50000000       0.50000000       0.00000000 </v>
  </varray>
  <varray name="weights" >
   <v>       0.25000000 </v>
   <v>       0.25000000 </v>
   <v>       0.25000000 </v>
   <v>       0.25000000 </v>
  </varray>
 </kpoints>
 <parameters>
  <separator name="general" >
   <i type="string" name="SYSTEM">metal</i>
   <i type="logical" name="LCOMPAT"> F  </i>
  </separator>
  <separator name="electronic" >
   <i type="string" name="PREC">normal</i>
   <i name="ENMAX">    450.00000000</i>
   <i name="ENAUG">    644.87300000</i>
   <i name="EDIFF">      0.00010000</i>
   <i type="int" name="IALGO">    68</i>
   <i type="int" name="IWAVPR">    11</i>
   <i type="int" name="NBANDS">   228</i>
   <i name="NELECT">    376.00000000</i>
   <i type="int" name="TURBO">     0</i>
   <i type="int" name="IRESTART">     0</i>
   <i type="int" name="NREBOOT">     0</i>
   <i type="int" name="NMIN">     0</i>
   <i name="EREF">      0.00000000</i>
   <separator name="electronic smearing" >
    <i type="int" name="ISMEAR">     1</i>
    <i name="SIGMA">      0.20000000</i>
    <i name="KSPACING">      0.50000000</i>
    <i type="logical" name="KGAMMA"> T  </i>
   </separator>
   <separator name="electronic projectors" >
    <i type="logical" name="LREAL"> T  </i>
    <v name="ROPT">     -0.00050000     -0.00050000     -0.00050000</v>
    <i type="int" name="LMAXPAW">  -100</i>
    <i type="int" name="LMAXMIX">     2</i>
    <i type="logical" name="NLSPLINE"> F  </i>
   </separator>
   <separator name="electronic startup" >
    <i type="int" name="ISTART">     0</i>
    <i type="int" name="ICHARG">     2</i>
    <i type="int" name="INIWAV">     1</i>
   </separator>
   <separator name="electronic spin" >
    <i type="int" name="ISPIN">     1</i>
    <i type="logical" name="LNONCOLLINEAR"> F  </i>
    <v name="MAGMOM">      1.00000000      1.00000000      1.00000000      1.00000000      1.00000000      1.00000000      1.00000000      1.00000000      1.00000000      1.00000000      1.00000000      1.00000000      1.00000000      1.00000000      1.00000000      1.00000000      1.00000000      1.00000000      1.00000000      1.00000000
      1.00000000      1.00000000      1.00000000      1.00000000      1.00000000      1.00000000      1.00000000      1.00000000      1.00000000      1.00000000      1.00000000      1.00000000      1.00000000      1.00000000      1.00000000      1.00000000      1.00000000      1.00000000      1.00000000</v>
    <i name="NUPDOWN">     -1.00000000</i>
    <i type="logical" name="LSORBIT"> F  </i>
    <v name="SAXIS">      0.00000000      0.00000000      1.00000000</v>
    <i type="logical" name="LSPIRAL"> F  </i>
    <v name="QSPIRAL">      0.00000000      0.00000000      0.00000000</v>
    <i type="logical" name="LZEROZ"> F  </i>
   </separator>
   <separator name="electronic exchange-correlation" >
    <i type="logical" name="LASPH"> F  </i>
    <i type="logical" name="LMETAGGA"> F  </i>
   </separator>
   <separator name="electronic convergence" >
    <i type="int" name="NELM">    60</i>
    <i type="int" name="NELMDL">    -5</i>
    <i type="int" name="NELMIN">     8</i>
    <i name="ENINI">    450.00000000</i>
    <separator name="electronic convergence detail" >
     <i type="logical" name="LDIAG"> T  </i>
     <i type="logical" name="LSUBROT"> F  </i>
     <i name="WEIMIN">      0.00100000</i>
     <i name="EBREAK">      0.00000011</i>
     <i name="DEPER">      0.30000000</i>
     <i type="int" name="NRMM">     4</i>
     <i name="TIME">      0.40000000</i>
    </separator>
   </separator>
   <separator name="electronic mixer" >
    <i name="AMIX">      0.40000000</i>
    <i name="BMIX">      1.00000000</i>
    <i name="AMIN">      0.10000000</i>
    <i name="AMIX_MAG">      1.60000000</i>
    <i name="BMIX_MAG">      1.00000000</i>
    <separator name="electronic mixer details" >
     <i type="int" name="IMIX">     4</i>
     <i type="logical" name="MIXFIRST"> F  </i>
     <i type="int" name="MAXMIX">   -45</i>
     <i name="WC">    100.00000000</i>
     <i type="int" name="INIMIX">     1</i>
     <i type="int" name="MIXPRE">     1</i>
     <i type="int" name="MREMOVE">     5</i>
    </separator>
   </separator>
   <separator name="electronic dipolcorrection" >
    <i type="logical" name="LDIPOL"> F  </i>
    <i type="logical" name="LMONO"> F  </i>
    <i type="int" name="IDIPOL">     0</i>
    <i name="EPSILON">      1.00000000</i>
    <v name="DIPOL">   -100.00000000   -100.00000000   -100.00000000</v>
    <i name="EFIELD">      0.00000000</i>
   </separator>
  </separator>
  <separator name="grids" >
   <i type="int" name="NGX">    48</i>
   <i type="int" name="NGY">    48</i>
   <i type="int" name="NGZ">   120</i>
   <i type="int" name="NGXF">    96</i>
   <i type="int" name="NGYF">    96</i>
   <i type="int" name="NGZF">   240</i>
   <i type="logical" name="ADDGRID"> F  </i>
  </separator>
  <separator name="ionic" >
   <i type="int" name="NSW">  5000</i>
   <i type="int" name="IBRION">     1</i>
   <i type="int" name="MDALGO">     0</i>
   <i type="int" name="ISIF">     2</i>
   <i name="PSTRESS">      0.00000000</i>
   <i name="EDIFFG">     -0.05000000</i>
   <i type="int" name="NFREE">     0</i>
   <i name="POTIM">      0.20000000</i>
   <i name="SMASS">     -3.00000000</i>
   <i name="SCALEE">      1.00000000</i>
  </separator>
  <separator name="ionic md" >
   <i name="TEBEG">      0.00010000</i>
   <i name="TEEND">      0.00010000</i>
   <i type="int" name="NBLOCK">     1</i>
   <i type="int" name="KBLOCK">  5000</i>
   <i type="int" name="NPACO">   256</i>
   <i name="APACO">     16.00000000</i>
  </separator>
  <separator name="symmetry" >
   <i type="int" name="ISYM">     0</i>
   <i name="SYMPREC">      0.00001000</i>
  </separator>
  <separator name="dos" >
   <i type="int" name="LORBIT">     0</i>
   <v name="RWIGS">     -1.00000000     -1.00000000     -1.00000000</v>
   <i type="int" name="NEDOS">   301</i>
   <i name="EMIN">     10.00000000</i>
   <i name="EMAX">    -10.00000000</i>
   <i name="EFERMI">      0.00000000</i>
  </separator>
  <separator name="writing" >
   <i type="int" name="NWRITE">     2</i>
   <i type="logical" name="LWAVE"> F  </i>
   <i type="logical" name="LDOWNSAMPLE"> F  </i>
   <i type="logical" name="LCHARG"> F  </i>
   <i type="logical" name="LPARD"> F  </i>
   <i type="logical" name="LVTOT"> F  </i>
   <i type="logical" name="LVHAR"> F  </i>
   <i type="logical" name="LELF"> F  </i>
   <i type="logical" name="LOPTICS"> F  </i>
   <v name="STM">      0.00000000      0.00000000      0.00000000      0.00000000      0.00000000      0.00000000      0.00000000</v>
  </separator>
  <separator name="performance" >
   <i type="int" name="NPAR">     4</i>
   <i type="int" name="NSIM">     4</i>
   <i type="int" name="NBLK">    -1</i>
   <i type="logical" name="LPLANE"> T  </i>
   <i type="logical" name="LSCALAPACK"> T  </i>
   <i type="logical" name="LSCAAWARE"> F  </i>
   <i type="logical" name="LSCALU"> F  </i>
   <i type="logical" name="LASYNC"> F  </i>
   <i type="logical" name="LORBITALREAL"> F  </i>
  </separator>
  <separator name="miscellaneous" >
   <i type="int" name="IDIOT">     3</i>
   <i type="int" name="ISPECIAL">     0</i>
   <i type="logical" name="LMUSIC"> F  </i>
   <v name="POMASS">     12.01100000     16.00000000    195.08000000</v>
   <v name="DARWINR">      0.00000000      0.00000000      0.00000000</v>
   <v name="DARWINV">      1.00000000      1.00000000      1.00000000</v>
   <i type="logical" name="LCORR"> T  </i>
  </separator>
  <i type="logical" name="GGA_COMPAT"> T  </i>
  <i type="logical" name="LBERRY"> F  </i>
  <i type="int" name="ICORELEVEL">     0</i>
  <i type="logical" name="LDAU"> F  </i>
  <i type="int" name="I_CONSTRAINED_M">     0</i>
  <separator name="electronic exchange-correlation" >
   <i type="string" name="GGA">--</i>
   <i type="int" name="VOSKOWN">     0</i>
   <i type="logical" name="LHFCALC"> F  </i>
   <i type="string" name="PRECFOCK"></i>
   <i type="logical" name="LSYMGRAD"> F  </i>
   <i type="logical" name="LHFONE"> F  </i>
   <i type="logical" name="LRHFCALC"> F  </i>
   <i type="logical" name="LTHOMAS"> F  </i>
   <i type="logical" name="LMODELHF"> F  </i>
   <i name="ENCUT4O">     -1.00000000</i>
   <i type="int" name="EXXOEP">     0</i>
   <i type="int" name="FOURORBIT">     0</i>
   <i name="AEXX">      0.00000000</i>
   <i name="HFALPHA">      0.00000000</i>
   <i name="MCALPHA">      0.00000000</i>
   <i name="ALDAX">      1.00000000</i>
   <i name="AGGAX">      1.00000000</i>
   <i name="ALDAC">      1.00000000</i>
   <i name="AGGAC">      1.00000000</i>
   <i type="int" name="NKREDX">     1</i>
   <i type="int" name="NKREDY">     1</i>
   <i type="int" name="NKREDZ">     1</i>
   <i type="logical" name="SHIFTRED"> F  </i>
   <i type="logical" name="ODDONLY"> F  </i>
   <i type="logical" name="EVENONLY"> F  </i>
   <i type="int" name="LMAXFOCK">     0</i>
   <i type="int" name="NMAXFOCKAE">     0</i>
   <i type="logical" name="LFOCKAEDFT"> F  </i>
   <i name="HFSCREEN">      0.00000000</i>
   <i name="HFSCREENC">      0.00000000</i>
   <i type="int" name="NBANDSGWLOW">     0</i>
  </separator>
  <separator name="vdW DFT" >
   <i type="logical" name="LUSE_VDW"> F  </i>
   <i name="Zab_VDW">     -0.84910000</i>
   <i name="PARAM1">      0.12340000</i>
   <i name="PARAM2">      1.00000000</i>
   <i name="PARAM3">      0.00000000</i>
  </separator>
  <separator name="model GW" >
   <i type="int" name="MODEL_GW">     0</i>
   <i name="MODEL_EPS0">     20.69566731</i>
   <i name="MODEL_ALPHA">      1.00000000</i>
  </separator>
  <separator name="linear response parameters" >
   <i type="logical" name="LEPSILON"> F  </i>
   <i type="logical" name="LRPA"> F  </i>
   <i type="logical" name="LNABLA"> F  </i>
   <i type="logical" name="LVEL"> F  </i>
   <i type="int" name="KINTER">     0</i>
   <i name="CSHIFT">      0.10000000</i>
   <i name="OMEGAMAX">     -1.00000000</i>
   <i name="DEG_THRESHOLD">      0.00200000</i>
   <i name="RTIME">     -0.10000000</i>
   <i name="WPLASMAI">      0.00000000</i>
   <v name="DFIELD">      0.00000000      0.00000000      0.00000000</v>
   <v name="WPLASMA">      0.00000000      0.00000000      0.00000000      0.00000000      0.00000000      0.00000000      0.00000000      0.00000000      0.00000000</v>
  </separator>
  <separator name="orbital magnetization" >
   <i type="logical" name="NUCIND"> F  </i>
   <v name="MAGPOS">      0.00000000      0.00000000      0.00000000</v>
   <i type="logical" name="LNICSALL"> T  </i>
   <i type="logical" name="ORBITALMAG"> F  </i>
   <i type="logical" name="LMAGBLOCH"> F  </i>
   <i type="logical" name="LCHIMAG"> F  </i>
   <i type="logical" name="LGAUGE"> T  </i>
   <i type="int" name="MAGATOM">     0</i>
   <v name="MAGDIPOL">      0.00000000      0.00000000      0.00000000</v>
   <v name="AVECCONST">      0.00000000      0.00000000      0.00000000</v>
  </separator>
  <separator name="response functions" >
   <i type="logical" name="LADDER"> F  </i>
   <i type="logical" name="LRPAFORCE"> F  </i>
   <i type="logical" name="LFXC"> F  </i>
   <i type="logical" name="LHARTREE"> T  </i>
   <i type="int" name="IBSE">     0</i>
   <v type="int" name="KPOINT">    -1     0     0     0</v>
   <i type="logical" name="LTCTE"> F  </i>
   <i type="logical" name="LTETE"> F  </i>
   <i type="logical" name="LTRIPLET"> F  </i>
   <i type="logical" name="LFXCEPS"> F  </i>
   <i type="logical" name="LFXHEG"> F  </i>
   <i type="int" name="NATURALO">     2</i>
   <i type="logical" name="L2ORDER"> F  </i>
   <i type="logical" name="LMP2LT"> F  </i>
   <i type="logical" name="LUSEW"> F  </i>
   <i name="ENCUTGW">     -2.00000000</i>
   <i name="ENCUTGWSOFT">     -2.00000000</i>
   <i name="ENCUTLF">     -1.00000000</i>
   <i type="int" name="LMAXMP2">    -1</i>
   <i name="SCISSOR">      0.00000000</i>
   <i type="int" name="NOMEGA">     0</i>
   <i type="int" name="NOMEGAR">     0</i>
   <i type="int" name="NBANDSGW">    -1</i>
   <i type="int" name="NBANDSO">    -1</i>
   <i type="int" name="NBANDSV">    -1</i>
   <i type="int" name="NELM">     1</i>
   <i type="int" name="NELMHF">     1</i>
   <i type="int" name="DIM">     3</i>
   <i type="int" name="ANTIRES">     0</i>
   <i name="OMEGAMAX">    -30.00000000</i>
   <i name="OMEGAMIN">    -30.00000000</i>
   <i name="OMEGATL">   -200.00000000</i>
   <i type="int" name="OMEGAGRID">   140</i>
   <i name="CSHIFT">     -0.10000000</i>
   <i type="logical" name="SELFENERGY"> F  </i>
   <i type="logical" name="LSPECTRAL"> F  </i>
   <i type="logical" name="LSPECTRALGW"> F  </i>
   <i type="logical" name="LSINGLES"> F  </i>
   <i type="logical" name="LFERMIGW"> F  </i>
   <i type="logical" name="ODDONLYGW"> F  </i>
   <i type="logical" name="EVENONLYGW"> F  </i>
   <i type="int" name="NKREDLFX">     1</i>
   <i type="int" name="NKREDLFY">     1</i>
   <i type="int" name="NKREDLFZ">     1</i>
   <i type="int" name="MAXMEM">  2800</i>
   <i type="int" name="TELESCOPE">     0</i>
   <i type="int" name="TAUPAR">     1</i>
   <i type="int" name="OMEGAPAR">    -1</i>
   <i name="LAMBDA">      1.00000000</i>
  </separator>
  <separator name="External order field" >
   <i name="OFIELD_KAPPA">      0.00000000</i>
   <v name="OFIELD_K">      0.00000000      0.00000000      0.00000000</v>
   <i name="OFIELD_Q6_NEAR">      0.00000000</i>
   <i name="OFIELD_Q6_FAR">      0.00000000</i>
   <i name="OFIELD_A">      0.00000000</i>
  </separator>
  <separator name="solvation model" >
   <i type="logical" name="LSOL"> F  </i>
  </separator>
 </parameters>
 <atominfo>
  <atoms>      39 </atoms>
  <types>       3 </types>
  <array name="atoms" >
   <dimension dim="1">ion</dimension>
   <field type="string">element</field>
   <field type="int">atomtype</field>
   <set>
    <rc><c>C </c><c>   1</c></rc>
    <rc><c>O </c><c>   2</c></rc>
    <rc><c>O </c><c>   2</c></rc>
    <rc><c>Pt</c><c>   3</c></rc>
    <rc><c>Pt</c><c>   3</c></rc>
    <rc><c>Pt</c><c>   3</c></rc>
    <rc><c>Pt</c><c>   3</c></rc>
    <rc><c>Pt</c><c>   3</c></rc>
    <rc><c>Pt</c><c>   3</c></rc>
    <rc><c>Pt</c><c>   3</c></rc>
    <rc><c>Pt</c><c>   3</c></rc>
    <rc><c>Pt</c><c>   3</c></rc>
    <rc><c>Pt</c><c>   3</c></rc>
    <rc><c>Pt</c><c>   3</c></rc>
    <rc><c>Pt</c><c>   3</c></rc>
    <rc><c>Pt</c><c>   3</c></rc>
    <rc><c>Pt</c><c>   3</c></rc>
    <rc><c>Pt</c><c>   3</c></rc>
    <rc><c>Pt</c><c>   3</c></rc>
    <rc><c>Pt</c><c>   3</c></rc>
    <rc><c>Pt</c><c>   3</c></rc>
    <rc><c>Pt</c><c>   3</c></rc>
    <rc><c>Pt</c><c>   3</c></rc>
    <rc><c>Pt</c><c>   3</c></rc>
    <rc><c>Pt</c><c>   3</c></rc>
    <rc><c>Pt</c><c>   3</c></rc>
    <rc><c>Pt</c><c>   3</c></rc>
    <rc><c>Pt</c><c>   3</c></rc>
    <rc><c>Pt</c><c>   3</c></rc>
    <rc><c>Pt</c><c>   3</c></rc>
    <rc><c>Pt</c><c>   3</c></rc>
    <rc><c>Pt</c><c>   3</c></rc>
    <rc><c>Pt</c><c>   3</c></rc>
    <rc><c>Pt</c><c>   3</c></rc>
    <rc><c>Pt</c><c>   3</c></rc>
    <rc><c>Pt</c><c>   3</c></rc>
    <rc><c>Pt</c><c>   3</c></rc>
    <rc><c>Pt</c><c>   3</c></rc>
    <rc><c>Pt</c><c>   3</c></rc>
   </set>
  </array>
  <array name="atomtypes" >
   <dimension dim="1">type</dimension>
   <field type="int">atomspertype</field>
   <field type="string">element</field>
   <field>mass</field>
   <field>valence</field>
   <field type="string">pseudopotential</field>
   <set>
    <rc><c>   1</c><c>C </c><c>     12.01100000</c><c>      4.00000000</c><c> PAW_PBE C 08Apr2002                    </c></rc>
    <rc><c>   2</c><c>O </c><c>     16.00000000</c><c>      6.00000000</c><c> PAW_PBE O 08Apr2002                    </c></rc>
    <rc><c>  36</c><c>Pt</c><c>    195.08000000</c><c>     10.00000000</c><c>  PAW_PBE Pt 04Feb2005                  </c></rc>
   </set>
  </array>
 </atominfo>
 <structure name="initialpos" >
  <crystal>
   <varray name="basis" >
    <v>       7.29695512      -4.21289900       0.00000000 </v>
    <v>       0.00000000       8.42579800       0.00000000 </v>
    <v>       0.00000000       0.00000000      21.87963500 </v>
   </varray>
   <i name="volume">   1345.21837528 </i>
   <varray name="rec_basis" >
    <v>       0.13704346       0.00000000       0.00000000 </v>
    <v>       0.06852173       0.11868312       0.00000000 </v>
    <v>       0.00000000       0.00000000       0.04570460 </v>
   </varray>
  </crystal>
  <varray name="positions" >
   <v>       0.70556037       0.43419593       0.47872487 </v>
   <v>       0.90978568       0.38166672       0.45999119 </v>
   <v>       0.67742382       0.46105181       0.52861340 </v>
   <v>       0.98675500       0.32859100       0.07437600 </v>
   <v>       0.32008800       0.32859100       0.07437600 </v>
   <v>       0.65342200       0.32859100       0.07437600 </v>
   <v>       0.98675500       0.66192500       0.07437600 </v>
   <v>       0.32008800       0.66192500       0.07437600 </v>
   <v>       0.65342200       0.66192500       0.07437600 </v>
   <v>       0.32008800       0.99525800       0.07437600 </v>
   <v>       0.65342200       0.99525800       0.07437600 </v>
   <v>       0.98675500       0.99525800       0.07437600 </v>
   <v>       0.20897700       0.10636900       0.17918600 </v>
   <v>       0.54231100       0.10636900       0.17918600 </v>
   <v>       0.87564400       0.10636900       0.17918600 </v>
   <v>       0.20897700       0.43970300       0.17918600 </v>
   <v>       0.54231100       0.43970300       0.17918600 </v>
   <v>       0.87564400       0.43970300       0.17918600 </v>
   <v>       0.20897700       0.77303600       0.17918600 </v>
   <v>       0.54231100       0.77303600       0.17918600 </v>
   <v>       0.87564400       0.77303600       0.17918600 </v>
   <v>       0.10039894       0.54810913       0.27819032 </v>
   <v>       0.42908763       0.88188702       0.28162175 </v>
   <v>       0.76361269       0.22086145       0.28352318 </v>
   <v>       0.09404618       0.22132067       0.28256614 </v>
   <v>       0.43119417       0.21661164       0.28806713 </v>
   <v>       0.09686433       0.88102138       0.27852373 </v>
   <v>       0.76294558       0.88403536       0.28119030 </v>
   <v>       0.43054041       0.54710649       0.27847484 </v>
   <v>       0.76197991       0.54939245       0.28268819 </v>
   <v>       0.32154756       0.66599472       0.38979945 </v>
   <v>       0.65323297       0.98984869       0.38400364 </v>
   <v>       0.32318857       0.32095417       0.38969796 </v>
   <v>       0.98859002       0.99179614       0.38903170 </v>
   <v>       0.31710953       0.99589530       0.38527489 </v>
   <v>       0.64731814       0.32373764       0.39292277 </v>
   <v>       0.99598616       0.66948471       0.38492946 </v>
   <v>       0.99393408       0.31600755       0.39555929 </v>
   <v>       0.65191039       0.66469652       0.38888375 </v>
  </varray>
  <varray name="selective"  type="logical" >
   <v type="logical" >  T  T  T </v>
   <v type="logical" >  T  T  T </v>
   <v type="logical" >  T  T  T </v>
   <v type="logical" >  F  F  F </v>
   <v type="logical" >  F  F  F </v>
   <v type="logical" >  F  F  F </v>
   <v type="logical" >  F  F  F </v>
   <v type="logical" >  F  F  F </v>
   <v type="logical" >  F  F  F </v>
   <v type="logical" >  F  F  F </v>
   <v type="logical" >  F  F  F </v>
   <v type="logical" >  F  F  F </v>
   <v type="logical" >  F  F  F </v>
   <v type="logical" >  F  F  F </v>
   <v type="logical" >  F  F  F </v>
   <v type="logical" >  F  F  F </v>
   <v type="logical" >  F  F  F </v>
   <v type="logical" >  F  F  F </v>
   <v type="logical" >  F  F  F </v>
   <v type="logical" >  F  F  F </v>
   <v type="logical" >  F  F  F </v>
   <v type="logical" >  T  T  T </v>
   <v type="logical" >  T  T  T </v>
   <v type="logical" >  T  T  T </v>
   <v type="logical" >  T  T  T </v>
   <v type="logical" >  T  T  T </v>
   <v type="logical" >  T  T  T </v>
   <v type="logical" >  T  T  T </v>
   <v type="logical" >  T  T  T </v>
   <v type="logical" >  T  T  T </v>
   <v type="logical" >  T  T  T </v>
   <v type="logical" >  T  T  T </v>
   <v type="logical" >  T  T  T </v>
   <v type="logical" >  T  T  T </v>
   <v type="logical" >  T  T  T </v>
   <v type="logical" >  T  T  T </v>
   <v type="logical" >  T  T  T </v>
   <v type="logical" >  T  T  T </v>
   <v type="logical" >  T  T  T </v>
  </varray>
  <nose>
   <v>      -3.00000000       0.00000000       0.00010000       0.00010000 </v>
  </nose>
 </structure>
 <calculation>
  <scstep>
   <time name="dav">    9.29    9.38</time>
   <time name="total">    9.51    9.74</time>
   <energy>
    <i name="alphaZ">    975.10247152 </i>
    <i name="ewald">  91422.24816593 </i>
    <i name="hartreedc">-120509.18153347 </i>
    <i name="XCdc">    189.82354173 </i>
    <i name="pawpsdc">  24789.08602224 </i>
    <i name="pawaedc"> -23775.73976456 </i>
    <i name="eentropy">      0.02813925 </i>
    <i name="bandstr">   2071.21090087 </i>
    <i name="atom">  27259.89416086 </i>
    <i name="e_fr_energy">   2422.47210437 </i>
    <i name="e_wo_entrp">   2422.44396512 </i>
    <i name="e_0_energy">   2422.46272462 </i>
   </energy>
  </scstep>
  <scstep>
   <time name="dav">    9.85    9.91</time>
   <time name="total">    9.85    9.91</time>
   <energy>
    <i name="e_fr_energy">    -60.46454037 </i>
    <i name="e_wo_entrp">    -60.45238672 </i>
    <i name="e_0_energy">    -60.46048915 </i>
   </energy>
  </scstep>
  <scstep>
   <time name="dav">   11.21   11.28</time>
   <time name="total">   11.21   11.28</time>
   <energy>
    <i name="e_fr_energy">   -239.41070367 </i>
    <i name="e_wo_entrp">   -239.39812760 </i>
    <i name="e_0_energy">   -239.40651165 </i>
   </energy>
  </scstep>
  <scstep>
   <time name="dav">   14.06   14.16</time>
   <time name="total">   14.06   14.16</time>
   <energy>
    <i name="e_fr_energy">   -247.31908753 </i>
    <i name="e_wo_entrp">   -247.31128583 </i>
    <i name="e_0_energy">   -247.31648696 </i>
   </energy>
  </scstep>
  <scstep>
   <time name="dav">   12.59   12.68</time>
   <time name="total">   13.06   13.15</time>
   <energy>
    <i name="e_fr_energy">   -247.54205967 </i>
    <i name="e_wo_entrp">   -247.53407459 </i>
    <i name="e_0_energy">   -247.53939798 </i>
   </energy>
  </scstep>
  <scstep>
   <time name="diag">    1.19    1.20</time>
   <time name="diis">    4.99    5.03</time>
   <time name="orth">    0.23    0.23</time>
   <time name="total">    7.03    7.08</time>
   <energy>
    <i name="e_fr_energy">   -244.18933890 </i>
    <i name="e_wo_entrp">   -243.99256810 </i>
    <i name="e_0_energy">   -244.12374864 </i>
   </energy>
  </scstep>
  <scstep>
   <time name="diag">    1.37    1.38</time>
   <time name="diis">    4.84    4.87</time>
   <time name="orth">    0.23    0.23</time>
   <time name="total">    7.05    7.11</time>
   <energy>
    <i name="e_fr_energy">   -238.03038142 </i>
    <i name="e_wo_entrp">   -237.88365536 </i>
    <i name="e_0_energy">   -237.98147273 </i>
   </energy>
  </scstep>
  <scstep>
   <time name="diag">    1.39    1.40</time>
   <time name="diis">    5.31    5.35</time>
   <time name="orth">    0.23    0.23</time>
   <time name="total">    7.63    7.68</time>
   <energy>
    <i name="e_fr_energy">   -233.26911607 </i>
    <i name="e_wo_entrp">   -233.22984487 </i>
    <i name="e_0_energy">   -233.25602567 </i>
   </energy>
  </scstep>
  <scstep>
   <time name="diag">    1.54    1.55</time>
   <time name="diis">    4.37    4.40</time>
   <time name="orth">    0.22    0.23</time>
   <time name="total">    6.68    6.73</time>
   <energy>
    <i name="e_fr_energy">   -233.84755242 </i>
    <i name="e_wo_entrp">   -233.82584847 </i>
    <i name="e_0_energy">   -233.84031777 </i>
   </energy>
  </scstep>
  <scstep>
   <time name="diag">    1.07    1.08</time>
   <time name="diis">    4.44    4.47</time>
   <time name="orth">    0.30    0.30</time>
   <time name="total">    6.51    6.56</time>
   <energy>
    <i name="e_fr_energy">   -230.26300902 </i>
    <i name="e_wo_entrp">   -230.22719498 </i>
    <i name="e_0_energy">   -230.25107101 </i>
   </energy>
  </scstep>
  <scstep>
   <time name="diag">    1.64    1.65</time>
   <time name="diis">    5.67    5.71</time>
   <time name="orth">    0.28    0.28</time>
   <time name="total">    8.12    8.18</time>
   <energy>
    <i name="e_fr_energy">   -229.95165308 </i>
    <i name="e_wo_entrp">   -229.92117348 </i>
    <i name="e_0_energy">   -229.94149322 </i>
   </energy>
  </scstep>
  <scstep>
   <time name="diag">    1.51    1.52</time>
   <time name="diis">    4.49    4.52</time>
   <time name="orth">    0.26    0.26</time>
   <time name="total">    6.78    6.83</time>
   <energy>
    <i name="e_fr_energy">   -229.87028532 </i>
    <i name="e_wo_entrp">   -229.82557286 </i>
    <i name="e_0_energy">   -229.85538117 </i>
   </energy>
  </scstep>
  <scstep>
   <time name="diag">    1.40    1.41</time>
   <time name="diis">    4.36    4.40</time>
   <time name="orth">    0.24    0.24</time>
   <time name="total">    6.52    6.56</time>
   <energy>
    <i name="e_fr_energy">   -229.83445250 </i>
    <i name="e_wo_entrp">   -229.80675501 </i>
    <i name="e_0_energy">   -229.82522000 </i>
   </energy>
  </scstep>
  <scstep>
   <time name="diag">    1.34    1.34</time>
   <time name="diis">    4.32    4.35</time>
   <time name="orth">    0.23    0.24</time>
   <time name="total">    6.48    6.52</time>
   <energy>
    <i name="e_fr_energy">   -229.79433529 </i>
    <i name="e_wo_entrp">   -229.76957778 </i>
    <i name="e_0_energy">   -229.78608278 </i>
   </energy>
  </scstep>
  <scstep>
   <time name="diag">    1.36    1.37</time>
   <time name="diis">    4.69    4.72</time>
   <time name="orth">    0.30    0.30</time>
   <time name="total">    6.93    6.98</time>
   <energy>
    <i name="e_fr_energy">   -229.78359837 </i>
    <i name="e_wo_entrp">   -229.75898617 </i>
    <i name="e_0_energy">   -229.77539430 </i>
   </energy>
  </scstep>
  <scstep>
   <time name="diag">    1.40    1.41</time>
   <time name="diis">    4.53    4.56</time>
   <time name="orth">    0.21    0.22</time>
   <time name="total">    6.66    6.71</time>
   <energy>
    <i name="e_fr_energy">   -229.78195065 </i>
    <i name="e_wo_entrp">   -229.75749625 </i>
    <i name="e_0_energy">   -229.77379918 </i>
   </energy>
  </scstep>
  <scstep>
   <time name="diag">    1.14    1.15</time>
   <time name="diis">    4.82    4.86</time>
   <time name="orth">    0.27    0.27</time>
   <time name="total">    6.88    6.93</time>
   <energy>
    <i name="e_fr_energy">   -229.78004734 </i>
    <i name="e_wo_entrp">   -229.75428631 </i>
    <i name="e_0_energy">   -229.77146033 </i>
   </energy>
  </scstep>
  <scstep>
   <time name="diag">    1.52    1.53</time>
   <time name="diis">    4.70    4.73</time>
   <time name="orth">    0.26    0.26</time>
   <time name="total">    6.62    6.66</time>
   <energy>
    <i name="alphaZ">    975.10247152 </i>
    <i name="ewald">  91422.24816593 </i>
    <i name="hartreedc">-120140.66716510 </i>
    <i name="XCdc">    178.43622787 </i>
    <i name="pawpsdc">  30196.04751464 </i>
    <i name="pawaedc"> -29282.61202625 </i>
    <i name="eentropy">     -0.02629237 </i>
    <i name="bandstr">   -838.20307953 </i>
    <i name="atom">  27259.89416086 </i>
    <i name="e_fr_energy">   -229.78002241 </i>
    <i name="e_wo_entrp">   -229.75373005 </i>
    <i name="e_0_energy">   -229.77125829 </i>
   </energy>
  </scstep>
  <structure>
   <crystal>
    <varray name="basis" >
     <v>       7.29695512      -4.21289900       0.00000000 </v>
     <v>       0.00000000       8.42579800       0.00000000 </v>
     <v>       0.00000000       0.00000000      21.87963500 </v>
    </varray>
    <i name="volume">   1345.21837528 </i>
    <varray name="rec_basis" >
     <v>       0.13704346       0.00000000       0.00000000 </v>
     <v>       0.06852173       0.11868312       0.00000000 </v>
     <v>       0.00000000       0.00000000       0.04570460 </v>
    </varray>
   </crystal>
   <varray name="positions" >
    <v>       0.70556037       0.43419593       0.47872487 </v>
    <v>       0.90978568       0.38166672       0.45999119 </v>
    <v>       0.67742382       0.46105181       0.52861340 </v>
    <v>       0.98675500       0.32859100       0.07437600 </v>
    <v>       0.32008800       0.32859100       0.07437600 </v>
    <v>       0.65342200       0.32859100       0.07437600 </v>
    <v>       0.98675500       0.66192500       0.07437600 </v>
    <v>       0.32008800       0.66192500       0.07437600 </v>
    <v>       0.65342200       0.66192500       0.07437600 </v>
    <v>       0.32008800       0.99525800       0.07437600 </v>
    <v>       0.65342200       0.99525800       0.07437600 </v>
    <v>       0.98675500       0.99525800       0.07437600 </v>
    <v>       0.20897700       0.10636900       0.17918600 </v>
    <v>       0.54231100       0.10636900       0.17918600 </v>
    <v>       0.87564400       0.10636900       0.17918600 </v>
    <v>       0.20897700       0.43970300       0.17918600 </v>
    <v>       0.54231100       0.43970300       0.17918600 </v>
    <v>       0.87564400       0.43970300       0.17918600 </v>
    <v>       0.20897700       0.77303600       0.17918600 </v>
    <v>       0.54231100       0.77303600       0.17918600 </v>
    <v>       0.87564400       0.77303600       0.17918600 </v>
    <v>       0.10039894       0.54810913       0.27819032 </v>
    <v>       0.42908763       0.88188702       0.28162175 </v>
    <v>       0.76361269       0.22086145       0.28352318 </v>
    <v>       0.09404618       0.22132067       0.28256614 </v>
    <v>       0.43119417       0.21661164       0.28806713 </v>
    <v>       0.09686433       0.88102138       0.27852373 </v>
    <v>       0.76294558       0.88403536       0.28119030 </v>
    <v>       0.43054041       0.54710649       0.27847484 </v>
    <v>       0.76197991       0.54939245       0.28268819 </v>
    <v>       0.32154756       0.66599472       0.38979945 </v>
    <v>       0.65323297       0.98984869       0.38400364 </v>
    <v>       0.32318857       0.32095417       0.38969796 </v>
    <v>       0.98859002       0.99179614       0.38903170 </v>
    <v>       0.31710953       0.99589530       0.38527489 </v>
    <v>       0.64731814       0.32373764       0.39292277 </v>
    <v>       0.99598616       0.66948471       0.38492946 </v>
    <v>       0.99393408       0.31600755       0.39555929 </v>
    <v>       0.65191039       0.66469652       0.38888375 </v>
   </varray>
  </structure>
  <varray name="forces" >
   <v>      -1.37698419      -0.45646674      -1.28592988 </v>
   <v>      -0.14393577       1.38395456       2.99093979 </v>
   <v>       0.62540026      -0.21717066      -0.41028685 </v>
   <v>       0.01153822      -0.07599095       0.13248985 </v>
   <v>      -0.04809068      -0.04465665       0.21018824 </v>
   <v>      -0.03543955       0.01201664       0.22972676 </v>
   <v>       0.00250310       0.05054142       0.09929172 </v>
   <v>       0.00772699       0.03362271       0.15277746 </v>
   <v>       0.06855100       0.02169811       0.11852993 </v>
   <v>       0.01759674      -0.04867179       0.10153132 </v>
   <v>       0.02668517      -0.00876229       0.10838742 </v>
   <v>       0.00406860       0.01070312      -0.02126027 </v>
   <v>       0.19148585       0.12741946      -0.09027619 </v>
   <v>      -0.05945894       0.19604113       0.03414668 </v>
   <v>       0.03288167       0.04936050      -0.27060778 </v>
   <v>      -0.07259591      -0.24637202      -0.77679877 </v>
   <v>       0.00166768      -0.36372000      -0.20211103 </v>
   <v>      -0.22909154       0.02573241      -0.29684800 </v>
   <v>       0.12748205       0.07023688      -0.80838233 </v>
   <v>       0.06514989       0.13719140      -0.51532288 </v>
   <v>      -0.11457824       0.05842802      -0.51043316 </v>
   <v>      -0.21937229       0.27120795       1.38515110 </v>
   <v>       0.08675168      -0.02080836       0.16537792 </v>
   <v>      -0.02295913      -0.13467687       0.14293319 </v>
   <v>       0.00318754      -0.36662818       0.65773575 </v>
   <v>       0.18795021       0.09761179      -1.27204532 </v>
   <v>      -0.15522601       0.26710936       0.97248138 </v>
   <v>       0.21123965      -0.17394326       0.32138374 </v>
   <v>       0.02502309       0.18122328       1.41047363 </v>
   <v>       0.16348759      -0.02677381       0.23404426 </v>
   <v>       0.08869482      -0.37485143      -0.80445137 </v>
   <v>      -0.19392245       0.06804062       0.19241061 </v>
   <v>      -0.38125909       0.91781664      -0.32001607 </v>
   <v>      -0.18065504      -0.05796135      -0.43863115 </v>
   <v>      -0.02716135      -0.75747832       0.45422877 </v>
   <v>      -0.18961385       1.03126332       1.23595460 </v>
   <v>      -0.09788304       0.07929297      -0.30309008 </v>
   <v>       1.55597809      -1.64263997      -2.53321801 </v>
   <v>       0.04317715      -0.07293966      -0.49047501 </v>
  </varray>
  <varray name="stress" >
   <v>     -39.28878307      -1.00846444      -1.69927524 </v>
   <v>      -1.00846447     -40.56847738       0.71632188 </v>
   <v>      -1.69927518       0.71632185      -1.66025489 </v>
  </varray>
  <energy>
   <i name="e_fr_energy">   -229.78002241 </i>
   <i name="e_wo_entrp">   -229.77125829 </i>
   <i name="e_0_energy">     -0.02629237 </i>
  </energy>
  <time name="totalsc">  158.29  160.43</time>
 </calculation>
 <calculation>
  <scstep>
   <time name="dav">    8.14    8.24</time>
   <time name="total">    8.65    8.77</time>
   <energy>
    <i name="alphaZ">    975.10247152 </i>
    <i name="ewald">  91431.58652744 </i>
    <i name="hartreedc">-120155.46573178 </i>
    <i name="XCdc">    178.30502178 </i>
    <i name="pawpsdc">  30194.89291620 </i>
    <i name="pawaedc"> -29281.40606384 </i>
    <i name="eentropy">     -0.00808609 </i>
    <i name="bandstr">   -833.07226107 </i>
    <i name="atom">  27259.89416086 </i>
    <i name="e_fr_energy">   -230.17104496 </i>
    <i name="e_wo_entrp">   -230.16295887 </i>
    <i name="e_0_energy">   -230.16834959 </i>
   </energy>
  </scstep>
  <scstep>
   <time name="diag">    1.07    1.08</time>
   <time name="diis">    3.51    3.54</time>
   <time name="orth">    0.20    0.20</time>
   <time name="total">    5.28    5.34</time>
   <energy>
    <i name="e_fr_energy">   -230.69393910 </i>
    <i name="e_wo_entrp">   -230.65037310 </i>
    <i name="e_0_energy">   -230.67941710 </i>
   </energy>
  </scstep>
  <scstep>
   <time name="diag">    1.46    1.47</time>
   <time name="diis">    5.12    5.16</time>
   <time name="orth">    0.29    0.29</time>
   <time name="total">    7.50    7.56</time>
   <energy>
    <i name="e_fr_energy">   -230.38932262 </i>
    <i name="e_wo_entrp">   -230.38068954 </i>
    <i name="e_0_energy">   -230.38644492 </i>
   </energy>
  </scstep>
  <scstep>
   <time name="diag">    1.25    1.26</time>
   <time name="diis">    3.79    3.81</time>
   <time name="orth">    0.22    0.22</time>
   <time name="total">    5.77    5.80</time>
   <energy>
    <i name="e_fr_energy">   -230.32781874 </i>
    <i name="e_wo_entrp">   -230.30435663 </i>
    <i name="e_0_energy">   -230.31999804 </i>
   </energy>
  </scstep>
  <scstep>
   <time name="diag">    1.02    1.02</time>
   <time name="diis">    4.38    4.42</time>
   <time name="orth">    0.25    0.25</time>
   <time name="total">    6.19    6.23</time>
   <energy>
    <i name="e_fr_energy">   -230.30262066 </i>
    <i name="e_wo_entrp">   -230.28247061 </i>
    <i name="e_0_energy">   -230.29590398 </i>
   </energy>
  </scstep>
  <scstep>
   <time name="diag">    1.20    1.21</time>
   <time name="diis">    3.51    3.54</time>
   <time name="orth">    0.33    0.33</time>
   <time name="total">    5.76    5.80</time>
   <energy>
    <i name="e_fr_energy">   -230.29853891 </i>
    <i name="e_wo_entrp">   -230.27928870 </i>
    <i name="e_0_energy">   -230.29212217 </i>
   </energy>
  </scstep>
  <scstep>
   <time name="diag">    1.59    1.60</time>
   <time name="diis">    4.32    4.35</time>
   <time name="orth">    0.23    0.23</time>
   <time name="total">    6.72    6.77</time>
   <energy>
    <i name="e_fr_energy">   -230.30075357 </i>
    <i name="e_wo_entrp">   -230.27905316 </i>
    <i name="e_0_energy">   -230.29352010 </i>
   </energy>
  </scstep>
  <scstep>
   <time name="diag">    1.47    1.48</time>
   <time name="diis">    3.90    3.93</time>
   <time name="orth">    0.25    0.25</time>
   <time name="total">    6.32    6.36</time>
   <energy>
    <i name="e_fr_energy">   -230.29660491 </i>
    <i name="e_wo_entrp">   -230.27747981 </i>
    <i name="e_0_energy">   -230.29022987 </i>
   </energy>
  </scstep>
  <scstep>
   <time name="diag">    1.36    1.37</time>
   <time name="diis">    4.10    4.13</time>
   <time name="orth">    0.25    0.26</time>
   <time name="total">    6.35    6.40</time>
   <energy>
    <i name="e_fr_energy">   -230.29639937 </i>
    <i name="e_wo_entrp">   -230.27642825 </i>
    <i name="e_0_energy">   -230.28974233 </i>
   </energy>
  </scstep>
  <scstep>
   <time name="diag">    1.29    1.30</time>
   <time name="diis">    2.40    2.42</time>
   <time name="orth">    0.23    0.23</time>
   <time name="total">    4.07    4.10</time>
   <energy>
    <i name="alphaZ">    975.10247152 </i>
    <i name="ewald">  91431.58652744 </i>
    <i name="hartreedc">-120146.33979035 </i>
    <i name="XCdc">    178.22096700 </i>
    <i name="pawpsdc">  30124.33347843 </i>
    <i name="pawaedc"> -29210.51650650 </i>
    <i name="eentropy">     -0.01953881 </i>
    <i name="bandstr">   -842.55826049 </i>
    <i name="atom">  27259.89416086 </i>
    <i name="e_fr_energy">   -230.29649089 </i>
    <i name="e_wo_entrp">   -230.27695208 </i>
    <i name="e_0_energy">   -230.28997795 </i>
   </energy>
  </scstep>
  <structure>
   <crystal>
    <varray name="basis" >
     <v>       7.29695512      -4.21289900       0.00000000 </v>
     <v>       0.00000000       8.42579800       0.00000000 </v>
     <v>       0.00000000       0.00000000      21.87963500 </v>
    </varray>
    <i name="volume">   1345.21837528 </i>
    <varray name="rec_basis" >
     <v>       0.13704346       0.00000000       0.00000000 </v>
     <v>       0.06852173       0.11868312       0.00000000 </v>
     <v>       0.00000000       0.00000000       0.04570460 </v>
    </varray>
   </crystal>
   <varray name="positions" >
    <v>       0.70191889       0.43132977       0.47759072 </v>
    <v>       0.90940504       0.38464598       0.46262909 </v>
    <v>       0.67907772       0.46138139       0.52825154 </v>
    <v>       0.98675500       0.32859100       0.07437600 </v>
    <v>       0.32008800       0.32859100       0.07437600 </v>
    <v>       0.65342200       0.32859100       0.07437600 </v>
    <v>       0.98675500       0.66192500       0.07437600 </v>
    <v>       0.32008800       0.66192500       0.07437600 </v>
    <v>       0.65342200       0.66192500       0.07437600 </v>
    <v>       0.32008800       0.99525800       0.07437600 </v>
    <v>       0.65342200       0.99525800       0.07437600 </v>
    <v>       0.98675500       0.99525800       0.07437600 </v>
    <v>       0.20897700       0.10636900       0.17918600 </v>
    <v>       0.54231100       0.10636900       0.17918600 </v>
    <v>       0.87564400       0.10636900       0.17918600 </v>
    <v>       0.20897700       0.43970300       0.17918600 </v>
    <v>       0.54231100       0.43970300       0.17918600 </v>
    <v>       0.87564400       0.43970300       0.17918600 </v>
    <v>       0.20897700       0.77303600       0.17918600 </v>
    <v>       0.54231100       0.77303600       0.17918600 </v>
    <v>       0.87564400       0.77303600       0.17918600 </v>
    <v>       0.09981880       0.54844019       0.27941197 </v>
    <v>       0.42931705       0.88195408       0.28176761 </v>
    <v>       0.76355198       0.22052265       0.28364924 </v>
    <v>       0.09405461       0.22048522       0.28314624 </v>
    <v>       0.43169121       0.21708372       0.28694523 </v>
    <v>       0.09645383       0.88142787       0.27938143 </v>
    <v>       0.76350421       0.88391631       0.28147375 </v>
    <v>       0.43060659       0.54755462       0.27971882 </v>
    <v>       0.76241226       0.54954730       0.28289461 </v>
    <v>       0.32178212       0.66525350       0.38908995 </v>
    <v>       0.65272014       0.98974810       0.38417334 </v>
    <v>       0.32218032       0.32255206       0.38941572 </v>
    <v>       0.98811227       0.99142452       0.38864485 </v>
    <v>       0.31703770       0.99412459       0.38567550 </v>
    <v>       0.64681670       0.32584876       0.39401284 </v>
    <v>       0.99572730       0.66953688       0.38466215 </v>
    <v>       0.99804892       0.31430294       0.39332508 </v>
    <v>       0.65202458       0.66458656       0.38845117 </v>
   </varray>
  </structure>
  <varray name="forces" >
   <v>      -0.98640019      -0.51280320       0.00800494 </v>
   <v>       0.42618206       0.35130155       0.52380728 </v>
   <v>       0.58788842      -0.36359879      -1.31976004 </v>
   <v>       0.01525784      -0.06835007       0.14726102 </v>
   <v>      -0.05511496      -0.04777982       0.20160544 </v>
   <v>      -0.03381385       0.00053626       0.20533648 </v>
   <v>       0.00678993       0.04863727       0.10173402 </v>
   <v>       0.00044203       0.02766207       0.14641179 </v>
   <v>       0.06054755       0.01567122       0.11740212 </v>
   <v>       0.01504164      -0.04293329       0.09877928 </v>
   <v>       0.02372470       0.00340276       0.10207555 </v>
   <v>       0.01228211       0.01543375       0.00490927 </v>
   <v>       0.13599042       0.10752583      -0.06779594 </v>
   <v>      -0.04374192       0.16597773       0.00927789 </v>
   <v>       0.04318572       0.02792957      -0.24639371 </v>
   <v>      -0.05061880      -0.19201900      -0.57001254 </v>
   <v>      -0.01404453      -0.26604993      -0.13402693 </v>
   <v>      -0.17028127       0.01737943      -0.21152471 </v>
   <v>       0.08080324       0.05669948      -0.64732062 </v>
   <v>       0.05280379       0.08593241      -0.42406917 </v>
   <v>      -0.07866317       0.06432906      -0.45959402 </v>
   <v>      -0.18307572       0.17102399       1.02638444 </v>
   <v>       0.07310661       0.02218857       0.12016628 </v>
   <v>      -0.04679461      -0.07341100       0.18564497 </v>
   <v>       0.05475904      -0.27745090       0.39473932 </v>
   <v>       0.10780050       0.03573693      -0.88715506 </v>
   <v>      -0.06899111       0.20885983       0.73112121 </v>
   <v>       0.13143717      -0.12349447       0.22504863 </v>
   <v>       0.00358379       0.14020760       1.05744018 </v>
   <v>       0.11184634      -0.05403486       0.15197373 </v>
   <v>       0.03838456      -0.33033334      -0.66285208 </v>
   <v>      -0.12048741       0.14352387       0.18903537 </v>
   <v>      -0.13399773       0.53715055      -0.31395687 </v>
   <v>      -0.12489611      -0.18667096      -0.29635883 </v>
   <v>       0.08419184      -0.47039219       0.33410333 </v>
   <v>      -0.17400576       0.71683064       0.89724830 </v>
   <v>      -0.10549565      -0.05962002      -0.11854167 </v>
   <v>       0.25541937       0.12823374      -0.22942648 </v>
   <v>       0.06895412      -0.02323228      -0.39072220 </v>
  </varray>
  <varray name="stress" >
   <v>     -41.21799772       0.43135522       0.23500460 </v>
   <v>       0.43135518     -43.16504381      -1.55122344 </v>
   <v>       0.23500474      -1.55122349      -7.04976165 </v>
  </varray>
  <energy>
   <i name="e_fr_energy">   -230.29649089 </i>
   <i name="e_wo_entrp">   -230.28997795 </i>
   <i name="e_0_energy">     -0.01953881 </i>
  </energy>
  <time name="totalsc">   74.63   75.73</time>
 </calculation>
 <calculation>
  <scstep>
   <time name="dav">   10.60   10.72</time>
   <time name="total">   11.18   11.44</time>
   <energy>
    <i name="alphaZ">    975.10247152 </i>
    <i name="ewald">  91449.30915858 </i>
    <i name="hartreedc">-120160.95037305 </i>
    <i name="XCdc">    178.37298023 </i>
    <i name="pawpsdc">  30123.81842785 </i>
    <i name="pawaedc"> -29209.99870420 </i>
    <i name="eentropy">     -0.01874904 </i>
    <i name="bandstr">   -845.94721342 </i>
    <i name="atom">  27259.89416086 </i>
    <i name="e_fr_energy">   -230.41784066 </i>
    <i name="e_wo_entrp">   -230.39909162 </i>
    <i name="e_0_energy">   -230.41159098 </i>
   </energy>
  </scstep>
  <scstep>
   <time name="diag">    1.24    1.24</time>
   <time name="diis">    4.86    4.90</time>
   <time name="orth">    0.24    0.24</time>
   <time name="total">    6.96    7.01</time>
   <energy>
    <i name="e_fr_energy">   -230.49781037 </i>
    <i name="e_wo_entrp">   -230.48062647 </i>
    <i name="e_0_energy">   -230.49208240 </i>
   </energy>
  </scstep>
  <scstep>
   <time name="diag">    1.44    1.45</time>
   <time name="diis">    5.10    5.14</time>
   <time name="orth">    0.23    0.24</time>
   <time name="total">    7.46    7.51</time>
   <energy>
    <i name="e_fr_energy">   -230.49142072 </i>
    <i name="e_wo_entrp">   -230.46305841 </i>
    <i name="e_0_energy">   -230.48196661 </i>
   </energy>
  </scstep>
  <scstep>
   <time name="diag">    1.68    1.69</time>
   <time name="diis">    4.97    5.01</time>
   <time name="orth">    0.24    0.24</time>
   <time name="total">    7.67    7.72</time>
   <energy>
    <i name="e_fr_energy">   -230.47713267 </i>
    <i name="e_wo_entrp">   -230.46031899 </i>
    <i name="e_0_energy">   -230.47152811 </i>
   </energy>
  </scstep>
  <scstep>
   <time name="diag">    1.45    1.46</time>
   <time name="diis">    4.28    4.32</time>
   <time name="orth">    0.21    0.21</time>
   <time name="total">    6.49    6.54</time>
   <energy>
    <i name="e_fr_energy">   -230.47383896 </i>
    <i name="e_wo_entrp">   -230.45274295 </i>
    <i name="e_0_energy">   -230.46680695 </i>
   </energy>
  </scstep>
  <scstep>
   <time name="diag">    1.52    1.53</time>
   <time name="diis">    4.73    4.76</time>
   <time name="orth">    0.23    0.23</time>
   <time name="total">    7.13    7.18</time>
   <energy>
    <i name="e_fr_energy">   -230.47352597 </i>
    <i name="e_wo_entrp">   -230.45394175 </i>
    <i name="e_0_energy">   -230.46699790 </i>
   </energy>
  </scstep>
  <scstep>
   <time name="diag">    1.33    1.34</time>
   <time name="diis">    4.81    4.84</time>
   <time name="orth">    0.23    0.23</time>
   <time name="total">    6.95    7.00</time>
   <energy>
    <i name="e_fr_energy">   -230.47240519 </i>
    <i name="e_wo_entrp">   -230.45247273 </i>
    <i name="e_0_energy">   -230.46576104 </i>
   </energy>
  </scstep>
  <scstep>
   <time name="diag">    1.45    1.46</time>
   <time name="diis">    5.27    5.31</time>
   <time name="orth">    0.29    0.29</time>
   <time name="total">    7.64    7.69</time>
   <energy>
    <i name="e_fr_energy">   -230.47205675 </i>
    <i name="e_wo_entrp">   -230.45278817 </i>
    <i name="e_0_energy">   -230.46563389 </i>
   </energy>
  </scstep>
  <scstep>
   <time name="diag">    1.40    1.40</time>
   <time name="diis">    2.95    2.97</time>
   <time name="orth">    0.29    0.30</time>
   <time name="total">    4.80    4.83</time>
   <energy>
    <i name="alphaZ">    975.10247152 </i>
    <i name="ewald">  91449.30915858 </i>
    <i name="hartreedc">-120165.51482030 </i>
    <i name="XCdc">    178.45095748 </i>
    <i name="pawpsdc">  30128.35388787 </i>
    <i name="pawaedc"> -29214.58885867 </i>
    <i name="eentropy">     -0.01995662 </i>
    <i name="bandstr">   -841.45902440 </i>
    <i name="atom">  27259.89416086 </i>
    <i name="e_fr_energy">   -230.47202367 </i>
    <i name="e_wo_entrp">   -230.45206705 </i>
    <i name="e_0_energy">   -230.46537146 </i>
   </energy>
  </scstep>
  <structure>
   <crystal>
    <varray name="basis" >
     <v>       7.29695512      -4.21289900       0.00000000 </v>
     <v>       0.00000000       8.42579800       0.00000000 </v>
     <v>       0.00000000       0.00000000      21.87963500 </v>
    </varray>
    <i name="volume">   1345.21837528 </i>
    <varray name="rec_basis" >
     <v>       0.13704346       0.00000000       0.00000000 </v>
     <v>       0.06852173       0.11868312       0.00000000 </v>
     <v>       0.00000000       0.00000000       0.04570460 </v>
    </varray>
   </crystal>
   <varray name="positions" >
    <v>       0.69885298       0.42841647       0.47759902 </v>
    <v>       0.91072969       0.38625393       0.46317207 </v>
    <v>       0.68090498       0.46131630       0.52688349 </v>
    <v>       0.98675500       0.32859100       0.07437600 </v>
    <v>       0.32008800       0.32859100       0.07437600 </v>
    <v>       0.65342200       0.32859100       0.07437600 </v>
    <v>       0.98675500       0.66192500       0.07437600 </v>
    <v>       0.32008800       0.66192500       0.07437600 </v>
    <v>       0.65342200       0.66192500       0.07437600 </v>
    <v>       0.32008800       0.99525800       0.07437600 </v>
    <v>       0.65342200       0.99525800       0.07437600 </v>
    <v>       0.98675500       0.99525800       0.07437600 </v>
    <v>       0.20897700       0.10636900       0.17918600 </v>
    <v>       0.54231100       0.10636900       0.17918600 </v>
    <v>       0.87564400       0.10636900       0.17918600 </v>
    <v>       0.20897700       0.43970300       0.17918600 </v>
    <v>       0.54231100       0.43970300       0.17918600 </v>
    <v>       0.87564400       0.43970300       0.17918600 </v>
    <v>       0.20897700       0.77303600       0.17918600 </v>
    <v>       0.54231100       0.77303600       0.17918600 </v>
    <v>       0.87564400       0.77303600       0.17918600 </v>
    <v>       0.09924977       0.54861603       0.28047592 </v>
    <v>       0.42954427       0.88212742       0.28189218 </v>
    <v>       0.76340653       0.22025232       0.28384168 </v>
    <v>       0.09422481       0.21982349       0.28355542 </v>
    <v>       0.43202627       0.21734744       0.28602561 </v>
    <v>       0.09623939       0.88188285       0.28013930 </v>
    <v>       0.76391274       0.88378816       0.28170703 </v>
    <v>       0.43061773       0.54793760       0.28081496 </v>
    <v>       0.76275990       0.54957567       0.28305215 </v>
    <v>       0.32190143       0.66442397       0.38840284 </v>
    <v>       0.65234564       0.98994719       0.38436929 </v>
    <v>       0.32176383       0.32378970       0.38909028 </v>
    <v>       0.98772407       0.99072795       0.38833764 </v>
    <v>       0.31729939       0.99298924       0.38602183 </v>
    <v>       0.64627586       0.32750788       0.39494292 </v>
    <v>       0.99539940       0.66921245       0.38453927 </v>
    <v>       0.99884281       0.31504506       0.39308726 </v>
    <v>       0.65223890       0.66463119       0.38804615 </v>
   </varray>
  </structure>
  <varray name="forces" >
   <v>      -0.55017012      -1.39680127      -2.64246537 </v>
   <v>       0.52437745       0.20385588       0.18497088 </v>
   <v>       0.13199733       0.65232782       1.77481790 </v>
   <v>       0.01123902      -0.06497047       0.14483388 </v>
   <v>      -0.05125070      -0.05006838       0.18635942 </v>
   <v>      -0.03582798      -0.00936466       0.19143433 </v>
   <v>       0.00775923       0.04690694       0.10673170 </v>
   <v>       0.00078155       0.02353428       0.14208227 </v>
   <v>       0.05053833       0.00885260       0.13101902 </v>
   <v>       0.02039338      -0.04152896       0.08477902 </v>
   <v>       0.02088961       0.01276260       0.10504830 </v>
   <v>       0.01561046       0.01901538       0.01465649 </v>
   <v>       0.09388276       0.09217195      -0.06251010 </v>
   <v>      -0.02899430       0.14058102      -0.01359586 </v>
   <v>       0.05500960       0.02205991      -0.20367237 </v>
   <v>      -0.04068607      -0.15080197      -0.39859392 </v>
   <v>      -0.02318602      -0.18918817      -0.08659791 </v>
   <v>      -0.12804179       0.00925197      -0.13722409 </v>
   <v>       0.04302548       0.04912384      -0.52069240 </v>
   <v>       0.03946947       0.04871474      -0.34149047 </v>
   <v>      -0.04897052       0.06567186      -0.41867899 </v>
   <v>      -0.16054734       0.08387868       0.71178370 </v>
   <v>       0.06304025       0.04580598       0.05480794 </v>
   <v>      -0.03123335      -0.05671251       0.19309848 </v>
   <v>       0.04688363      -0.16751740       0.26276398 </v>
   <v>       0.07518823      -0.00673152      -0.57956280 </v>
   <v>       0.00272340       0.15071404       0.49571470 </v>
   <v>       0.07428321      -0.06016307       0.14152146 </v>
   <v>      -0.00677063       0.11603108       0.69974601 </v>
   <v>       0.06685657      -0.07297110       0.08709246 </v>
   <v>       0.04333196      -0.25551132      -0.48930622 </v>
   <v>      -0.07727487       0.16818766       0.18804846 </v>
   <v>      -0.07652566       0.30984598      -0.29024007 </v>
   <v>      -0.08311767      -0.12195611      -0.18389536 </v>
   <v>       0.14284621      -0.27647116       0.24724865 </v>
   <v>      -0.22939517       0.49457824       0.53837061 </v>
   <v>      -0.09916604      -0.08215492      -0.00030606 </v>
   <v>       0.05604970       0.21673277      -0.00090287 </v>
   <v>       0.08498141       0.02230778      -0.31719482 </v>
  </varray>
  <varray name="stress" >
   <v>     -41.68405635       0.13623201      -0.10738678 </v>
   <v>       0.13623191     -43.46523476      -0.16980818 </v>
   <v>      -0.10738685      -0.16980830      -2.79489252 </v>
  </varray>
  <energy>
   <i name="e_fr_energy">   -230.47202367 </i>
   <i name="e_wo_entrp">   -230.46537146 </i>
   <i name="e_0_energy">     -0.01995662 </i>
  </energy>
  <time name="totalsc">   78.49   80.01</time>
 </calculation>
 <calculation>
  <scstep>
   <time name="dav">    9.16    9.29</time>
   <time name="total">    9.80   10.06</time>
   <energy>
    <i name="alphaZ">    975.10247152 </i>
    <i name="ewald">  91439.61689814 </i>
    <i name="hartreedc">-120158.77946013 </i>
    <i name="XCdc">    178.36182111 </i>
    <i name="pawpsdc">  30128.22566598 </i>
    <i name="pawaedc"> -29214.46285073 </i>
    <i name="eentropy">     -0.01965087 </i>
    <i name="bandstr">   -838.47659529 </i>
    <i name="atom">  27259.89416086 </i>
    <i name="e_fr_energy">   -230.53753942 </i>
    <i name="e_wo_entrp">   -230.51788855 </i>
    <i name="e_0_energy">   -230.53098913 </i>
   </energy>
  </scstep>
  <scstep>
   <time name="diag">    1.60    1.61</time>
   <time name="diis">    5.16    5.19</time>
   <time name="orth">    0.26    0.26</time>
   <time name="total">    7.65    7.71</time>
   <energy>
    <i name="e_fr_energy">   -230.55299623 </i>
    <i name="e_wo_entrp">   -230.53472872 </i>
    <i name="e_0_energy">   -230.54690706 </i>
   </energy>
  </scstep>
  <scstep>
   <time name="diag">    1.47    1.48</time>
   <time name="diis">    4.59    4.63</time>
   <time name="orth">    0.23    0.23</time>
   <time name="total">    6.87    6.91</time>
   <energy>
    <i name="e_fr_energy">   -230.55464077 </i>
    <i name="e_wo_entrp">   -230.52923159 </i>
    <i name="e_0_energy">   -230.54617104 </i>
   </energy>
  </scstep>
  <scstep>
   <time name="diag">    1.26    1.27</time>
   <time name="diis">    4.19    4.22</time>
   <time name="orth">    0.28    0.28</time>
   <time name="total">    6.42    6.46</time>
   <energy>
    <i name="e_fr_energy">   -230.54719234 </i>
    <i name="e_wo_entrp">   -230.52831090 </i>
    <i name="e_0_energy">   -230.54089853 </i>
   </energy>
  </scstep>
  <scstep>
   <time name="diag">    1.50    1.52</time>
   <time name="diis">    4.55    4.58</time>
   <time name="orth">    0.22    0.22</time>
   <time name="total">    6.89    6.94</time>
   <energy>
    <i name="e_fr_energy">   -230.54734684 </i>
    <i name="e_wo_entrp">   -230.52471472 </i>
    <i name="e_0_energy">   -230.53980280 </i>
   </energy>
  </scstep>
  <scstep>
   <time name="diag">    1.17    1.18</time>
   <time name="diis">    4.17    4.20</time>
   <time name="orth">    0.22    0.22</time>
   <time name="total">    6.04    6.08</time>
   <energy>
    <i name="e_fr_energy">   -230.54551448 </i>
    <i name="e_wo_entrp">   -230.52589443 </i>
    <i name="e_0_energy">   -230.53897446 </i>
   </energy>
  </scstep>
  <scstep>
   <time name="diag">    1.18    1.19</time>
   <time name="diis">    3.80    3.82</time>
   <time name="orth">    0.22    0.22</time>
   <time name="total">    5.79    5.82</time>
   <energy>
    <i name="e_fr_energy">   -230.54501443 </i>
    <i name="e_wo_entrp">   -230.52459101 </i>
    <i name="e_0_energy">   -230.53820662 </i>
   </energy>
  </scstep>
  <scstep>
   <time name="diag">    1.19    1.20</time>
   <time name="diis">    2.55    2.57</time>
   <time name="orth">    0.21    0.22</time>
   <time name="total">    4.13    4.16</time>
   <energy>
    <i name="alphaZ">    975.10247152 </i>
    <i name="ewald">  91439.61689814 </i>
    <i name="hartreedc">-120151.65386740 </i>
    <i name="XCdc">    178.27593235 </i>
    <i name="pawpsdc">  30124.12619894 </i>
    <i name="pawaedc"> -29210.39129619 </i>
    <i name="eentropy">     -0.02028863 </i>
    <i name="bandstr">   -845.49519156 </i>
    <i name="atom">  27259.89416086 </i>
    <i name="e_fr_energy">   -230.54498196 </i>
    <i name="e_wo_entrp">   -230.52469333 </i>
    <i name="e_0_energy">   -230.53821909 </i>
   </energy>
  </scstep>
  <structure>
   <crystal>
    <varray name="basis" >
     <v>       7.29695512      -4.21289900       0.00000000 </v>
     <v>       0.00000000       8.42579800       0.00000000 </v>
     <v>       0.00000000       0.00000000      21.87963500 </v>
    </varray>
    <i name="volume">   1345.21837528 </i>
    <varray name="rec_basis" >
     <v>       0.13704346       0.00000000       0.00000000 </v>
     <v>       0.06852173       0.11868312       0.00000000 </v>
     <v>       0.00000000       0.00000000       0.04570460 </v>
    </varray>
   </crystal>
   <varray name="positions" >
    <v>       0.69792171       0.42650190       0.47665665 </v>
    <v>       0.91143890       0.38690310       0.46329873 </v>
    <v>       0.68125032       0.46198436       0.52736428 </v>
    <v>       0.98675500       0.32859100       0.07437600 </v>
    <v>       0.32008800       0.32859100       0.07437600 </v>
    <v>       0.65342200       0.32859100       0.07437600 </v>
    <v>       0.98675500       0.66192500       0.07437600 </v>
    <v>       0.32008800       0.66192500       0.07437600 </v>
    <v>       0.65342200       0.66192500       0.07437600 </v>
    <v>       0.32008800       0.99525800       0.07437600 </v>
    <v>       0.65342200       0.99525800       0.07437600 </v>
    <v>       0.98675500       0.99525800       0.07437600 </v>
    <v>       0.20897700       0.10636900       0.17918600 </v>
    <v>       0.54231100       0.10636900       0.17918600 </v>
    <v>       0.87564400       0.10636900       0.17918600 </v>
    <v>       0.20897700       0.43970300       0.17918600 </v>
    <v>       0.54231100       0.43970300       0.17918600 </v>
    <v>       0.87564400       0.43970300       0.17918600 </v>
    <v>       0.20897700       0.77303600       0.17918600 </v>
    <v>       0.54231100       0.77303600       0.17918600 </v>
    <v>       0.87564400       0.77303600       0.17918600 </v>
    <v>       0.09901438       0.54862750       0.28084882 </v>
    <v>       0.42963713       0.88222297       0.28192565 </v>
    <v>       0.76335686       0.22015285       0.28393210 </v>
    <v>       0.09429400       0.21961940       0.28369492 </v>
    <v>       0.43214417       0.21741089       0.28571603 </v>
    <v>       0.09621836       0.88207483       0.28040089 </v>
    <v>       0.76403787       0.88375783       0.28178360 </v>
    <v>       0.43061172       0.54808430       0.28118716 </v>
    <v>       0.76287028       0.54954698       0.28310083 </v>
    <v>       0.32196113       0.66411768       0.38815144 </v>
    <v>       0.65222111       0.99008397       0.38445830 </v>
    <v>       0.32163541       0.32417417       0.38895032 </v>
    <v>       0.98759175       0.99049263       0.38823769 </v>
    <v>       0.31748151       0.99268263       0.38614876 </v>
    <v>       0.64596992       0.32802884       0.39523897 </v>
    <v>       0.99525664       0.66904699       0.38452544 </v>
    <v>       0.99899146       0.31535884       0.39306038 </v>
    <v>       0.65235379       0.66470233       0.38788769 </v>
   </varray>
  </structure>
  <varray name="forces" >
   <v>      -0.71749507      -0.30558211       0.83073124 </v>
   <v>       0.50243028       0.24276143       0.19921389 </v>
   <v>       0.44138234      -0.37456563      -1.38473801 </v>
   <v>       0.01354505      -0.06311257       0.14340002 </v>
   <v>      -0.05245614      -0.04849066       0.18360354 </v>
   <v>      -0.03594936      -0.01006157       0.17810729 </v>
   <v>       0.01011737       0.04881675       0.10801420 </v>
   <v>      -0.00062107       0.02282105       0.14814314 </v>
   <v>       0.04761480       0.00899641       0.13627667 </v>
   <v>       0.01695117      -0.04072091       0.08061753 </v>
   <v>       0.01888831       0.01435513       0.10086565 </v>
   <v>       0.01701792       0.01896268       0.01809828 </v>
   <v>       0.07420970       0.08877633      -0.06803578 </v>
   <v>      -0.02370706       0.13123737      -0.02088499 </v>
   <v>       0.06036035       0.01730399      -0.19195067 </v>
   <v>      -0.03820754      -0.13748384      -0.34158894 </v>
   <v>      -0.02760208      -0.16148092      -0.07304132 </v>
   <v>      -0.11333020       0.00680572      -0.11083286 </v>
   <v>       0.02829216       0.04872210      -0.47584780 </v>
   <v>       0.03598561       0.03774181      -0.31408611 </v>
   <v>      -0.03583325       0.06940508      -0.40492621 </v>
   <v>      -0.14450577       0.05820104       0.59794102 </v>
   <v>       0.05395899       0.05003436       0.03952502 </v>
   <v>      -0.02115021      -0.05322005       0.18926326 </v>
   <v>       0.04197788      -0.13427998       0.21420273 </v>
   <v>       0.06200959      -0.02096771      -0.48142083 </v>
   <v>       0.02135996       0.12158278       0.41143249 </v>
   <v>       0.05833930      -0.03743609       0.11150821 </v>
   <v>      -0.01080702       0.09583870       0.58454341 </v>
   <v>       0.05508015      -0.07539744       0.06803262 </v>
   <v>       0.04582220      -0.22065151      -0.43070130 </v>
   <v>      -0.06299690       0.16204831       0.18417033 </v>
   <v>      -0.06462084       0.23486759      -0.26698953 </v>
   <v>      -0.06667134      -0.09672366      -0.15355886 </v>
   <v>       0.14358220      -0.22118069       0.21931912 </v>
   <v>      -0.33069055       0.36325198       0.20046027 </v>
   <v>      -0.09218120      -0.07970911       0.04563822 </v>
   <v>       0.00020449       0.20348146       0.00110267 </v>
   <v>       0.08969578       0.03505239      -0.27560763 </v>
  </varray>
  <varray name="stress" >
   <v>     -41.65110054       0.39709339       0.66916942 </v>
   <v>       0.39709329     -43.89580499      -1.31991032 </v>
   <v>       0.66916944      -1.31991033      -6.35316133 </v>
  </varray>
  <energy>
   <i name="e_fr_energy">   -230.54498196 </i>
   <i name="e_wo_entrp">   -230.53821909 </i>
   <i name="e_0_energy">     -0.02028863 </i>
  </energy>
  <time name="totalsc">   62.76   64.49</time>
 </calculation>
 <calculation>
  <scstep>
