metal                                   
           1
     7.296955   -4.212899    0.000000
     0.000000    8.425798    0.000000
     0.000000    0.000000   21.879635
   C    O    Pt
   1   2  36
Direct configuration=     1
   0.70556037  0.43419593  0.47872487
   0.90978568  0.38166672  0.45999119
   0.67742382  0.46105181  0.52861340
   0.98675500  0.32859100  0.07437600
   0.32008800  0.32859100  0.07437600
   0.65342200  0.32859100  0.07437600
   0.98675500  0.66192500  0.07437600
   0.32008800  0.66192500  0.07437600
   0.65342200  0.66192500  0.07437600
   0.32008800  0.99525800  0.07437600
   0.65342200  0.99525800  0.07437600
   0.98675500  0.99525800  0.07437600
   0.20897700  0.10636900  0.17918600
   0.54231100  0.10636900  0.17918600
   0.87564400  0.10636900  0.17918600
   0.20897700  0.43970300  0.17918600
   0.54231100  0.43970300  0.17918600
   0.87564400  0.43970300  0.17918600
   0.20897700  0.77303600  0.17918600
   0.54231100  0.77303600  0.17918600
   0.87564400  0.77303600  0.17918600
   0.10039894  0.54810913  0.27819032
   0.42908763  0.88188702  0.28162175
   0.76361269  0.22086145  0.28352318
   0.09404618  0.22132067  0.28256614
   0.43119417  0.21661164  0.28806713
   0.09686433  0.88102138  0.27852373
   0.76294558  0.88403536  0.28119030
   0.43054041  0.54710649  0.27847484
   0.76197991  0.54939245  0.28268819
   0.32154756  0.66599472  0.38979945
   0.65323297  0.98984869  0.38400364
   0.32318857  0.32095417  0.38969796
   0.98859002  0.99179614  0.38903170
   0.31710953  0.99589530  0.38527489
   0.64731814  0.32373764  0.39292277
   0.99598616  0.66948471  0.38492946
   0.99393408  0.31600755  0.39555929
   0.65191039  0.66469652  0.38888375
Direct configuration=     2
   0.70191889  0.43132977  0.47759072
   0.90940504  0.38464598  0.46262909
   0.67907772  0.46138139  0.52825154
   0.98675500  0.32859100  0.07437600
   0.32008800  0.32859100  0.07437600
   0.65342200  0.32859100  0.07437600
   0.98675500  0.66192500  0.07437600
   0.32008800  0.66192500  0.07437600
   0.65342200  0.66192500  0.07437600
   0.32008800  0.99525800  0.07437600
   0.65342200  0.99525800  0.07437600
   0.98675500  0.99525800  0.07437600
   0.20897700  0.10636900  0.17918600
   0.54231100  0.10636900  0.17918600
   0.87564400  0.10636900  0.17918600
   0.20897700  0.43970300  0.17918600
   0.54231100  0.43970300  0.17918600
   0.87564400  0.43970300  0.17918600
   0.20897700  0.77303600  0.17918600
   0.54231100  0.77303600  0.17918600
   0.87564400  0.77303600  0.17918600
   0.09981880  0.54844019  0.27941197
   0.42931705  0.88195408  0.28176761
   0.76355198  0.22052265  0.28364924
   0.09405461  0.22048522  0.28314624
   0.43169121  0.21708372  0.28694523
   0.09645383  0.88142787  0.27938143
   0.76350421  0.88391631  0.28147375
   0.43060659  0.54755462  0.27971882
   0.76241226  0.54954730  0.28289461
   0.32178212  0.66525350  0.38908995
   0.65272014  0.98974810  0.38417334
   0.32218032  0.32255206  0.38941572
   0.98811227  0.99142452  0.38864485
   0.31703770  0.99412459  0.38567550
   0.64681670  0.32584876  0.39401284
   0.99572730  0.66953688  0.38466215
   0.99804892  0.31430294  0.39332508
   0.65202458  0.66458656  0.38845117
Direct configuration=     3
   0.69885298  0.42841647  0.47759902
   0.91072969  0.38625393  0.46317207
   0.68090498  0.46131630  0.52688349
   0.98675500  0.32859100  0.07437600
   0.32008800  0.32859100  0.07437600
   0.65342200  0.32859100  0.07437600
   0.98675500  0.66192500  0.07437600
   0.32008800  0.66192500  0.07437600
   0.65342200  0.66192500  0.07437600
   0.32008800  0.99525800  0.07437600
   0.65342200  0.99525800  0.07437600
   0.98675500  0.99525800  0.07437600
   0.20897700  0.10636900  0.17918600
   0.54231100  0.10636900  0.17918600
   0.87564400  0.10636900  0.17918600
   0.20897700  0.43970300  0.17918600
   0.54231100  0.43970300  0.17918600
   0.87564400  0.43970300  0.17918600
   0.20897700  0.77303600  0.17918600
   0.54231100  0.77303600  0.17918600
   0.87564400  0.77303600  0.17918600
   0.09924977  0.54861603  0.28047592
   0.42954427  0.88212742  0.28189218
   0.76340653  0.22025232  0.28384168
   0.09422481  0.21982349  0.28355542
   0.43202627  0.21734744  0.28602561
   0.09623939  0.88188285  0.28013930
   0.76391274  0.88378816  0.28170703
   0.43061773  0.54793760  0.28081496
   0.76275990  0.54957567  0.28305215
   0.32190143  0.66442397  0.38840284
   0.65234564  0.98994719  0.38436929
   0.32176383  0.32378970  0.38909028
   0.98772407  0.99072795  0.38833764
   0.31729939  0.99298924  0.38602183
   0.64627586  0.32750788  0.39494292
   0.99539940  0.66921245  0.38453927
   0.99884281  0.31504506  0.39308726
   0.65223890  0.66463119  0.38804615
Direct configuration=     4
   0.69792171  0.42650190  0.47665665
   0.91143890  0.38690310  0.46329873
   0.68125032  0.46198436  0.52736428
   0.98675500  0.32859100  0.07437600
   0.32008800  0.32859100  0.07437600
   0.65342200  0.32859100  0.07437600
   0.98675500  0.66192500  0.07437600
   0.32008800  0.66192500  0.07437600
   0.65342200  0.66192500  0.07437600
   0.32008800  0.99525800  0.07437600
   0.65342200  0.99525800  0.07437600
   0.98675500  0.99525800  0.07437600
   0.20897700  0.10636900  0.17918600
   0.54231100  0.10636900  0.17918600
   0.87564400  0.10636900  0.17918600
   0.20897700  0.43970300  0.17918600
   0.54231100  0.43970300  0.17918600
   0.87564400  0.43970300  0.17918600
   0.20897700  0.77303600  0.17918600
   0.54231100  0.77303600  0.17918600
   0.87564400  0.77303600  0.17918600
   0.09901438  0.54862750  0.28084882
   0.42963713  0.88222297  0.28192565
   0.76335686  0.22015285  0.28393210
   0.09429400  0.21961940  0.28369492
   0.43214417  0.21741089  0.28571603
   0.09621836  0.88207483  0.28040089
   0.76403787  0.88375783  0.28178360
   0.43061172  0.54808430  0.28118716
   0.76287028  0.54954698  0.28310083
   0.32196113  0.66411768  0.38815144
   0.65222111  0.99008397  0.38445830
   0.32163541  0.32417417  0.38895032
   0.98759175  0.99049263  0.38823769
   0.31748151  0.99268263  0.38614876
   0.64596992  0.32802884  0.39523897
   0.99525664  0.66904699  0.38452544
   0.99899146  0.31535884  0.39306038
   0.65235379  0.66470233  0.38788769
