       N       E                     dE             d eps       ncg     rms          rms(c)
DAV:   1     0.241849079425E+04    0.24185E+04   -0.15947E+05  1824   0.129E+03
DAV:   2    -0.639104115338E+02   -0.24824E+04   -0.23086E+04  2128   0.286E+02
DAV:   3    -0.240394378808E+03   -0.17648E+03   -0.16053E+03  2184   0.688E+01
DAV:   4    -0.247690216236E+03   -0.72958E+01   -0.70242E+01  2304   0.135E+01
DAV:   5    -0.247921496707E+03   -0.23128E+00   -0.22926E+00  2472   0.242E+00    0.271E+01
RMM:   6    -0.245145702710E+03    0.27758E+01   -0.53853E+01  1831   0.147E+01    0.278E+01
RMM:   7    -0.240104786641E+03    0.50409E+01   -0.31213E+01  1826   0.877E+00    0.190E+01
RMM:   8    -0.243762733880E+03   -0.36579E+01   -0.84714E+00  1832   0.462E+00    0.236E+01
RMM:   9    -0.231103257105E+03    0.12659E+02   -0.40364E+00  1831   0.325E+00    0.725E+00
RMM:  10    -0.230305171603E+03    0.79809E+00   -0.99477E-01  1831   0.159E+00    0.400E+00
RMM:  11    -0.230017350791E+03    0.28782E+00   -0.28897E-01  1834   0.850E-01    0.229E+00
RMM:  12    -0.229989112053E+03    0.28239E-01   -0.17844E-01  1833   0.662E-01    0.236E+00
RMM:  13    -0.229960460954E+03    0.28651E-01   -0.13320E-01  1830   0.617E-01    0.178E+00
RMM:  14    -0.229922936058E+03    0.37525E-01   -0.70242E-02  1829   0.453E-01    0.799E-01
RMM:  15    -0.229916001774E+03    0.69343E-02   -0.18928E-02  1830   0.229E-01    0.467E-01
RMM:  16    -0.229912630980E+03    0.33708E-02   -0.49238E-03  1829   0.123E-01    0.204E-01
RMM:  17    -0.229912413680E+03    0.21730E-03   -0.12419E-03  1813   0.595E-02    0.141E-01
RMM:  18    -0.229912567800E+03   -0.15412E-03   -0.58581E-04  1597   0.417E-02    0.112E-01
RMM:  19    -0.229912522478E+03    0.45322E-04   -0.27786E-04  1136   0.304E-02
   1 F= -.22991252E+03 E0= -.22990947E+03  d E =-.229913E+03
       N       E                     dE             d eps       ncg     rms          rms(c)
DAV:   1    -0.230165064793E+03   -0.25250E+00   -0.34013E+01  1856   0.106E+01    0.928E-01
RMM:   2    -0.230229642877E+03   -0.64578E-01   -0.64863E-01  1836   0.168E+00    0.105E+00
RMM:   3    -0.230243408618E+03   -0.13766E-01   -0.48808E-02  1870   0.384E-01    0.143E+00
RMM:   4    -0.230214653464E+03    0.28755E-01   -0.13762E-02  1846   0.194E-01    0.628E-01
RMM:   5    -0.230211243357E+03    0.34101E-02   -0.85080E-03  1837   0.154E-01    0.470E-01
RMM:   6    -0.230210122119E+03    0.11212E-02   -0.96382E-03  1831   0.167E-01    0.321E-01
RMM:   7    -0.230208849532E+03    0.12726E-02   -0.33332E-03  1831   0.991E-02    0.171E-01
RMM:   8    -0.230208578089E+03    0.27144E-03   -0.11133E-03  1814   0.570E-02    0.110E-01
RMM:   9    -0.230208498259E+03    0.79830E-04   -0.28173E-04  1090   0.300E-02
   2 F= -.23020850E+03 E0= -.23020489E+03  d E =-.295976E+00
       N       E                     dE             d eps       ncg     rms          rms(c)
DAV:   1    -0.230300509797E+03   -0.91932E-01   -0.10743E+01  1848   0.617E+00    0.559E-01
RMM:   2    -0.230339573354E+03   -0.39064E-01   -0.39332E-01  1838   0.998E-01    0.651E-01
RMM:   3    -0.230337459789E+03    0.21136E-02   -0.15921E-02  1846   0.204E-01    0.692E-01
RMM:   4    -0.230331628326E+03    0.58315E-02   -0.41907E-03  1847   0.104E-01    0.421E-01
RMM:   5    -0.230330143021E+03    0.14853E-02   -0.44080E-03  1830   0.105E-01    0.351E-01
RMM:   6    -0.230329866115E+03    0.27691E-03   -0.48047E-03  1830   0.111E-01    0.283E-01
RMM:   7    -0.230328515862E+03    0.13503E-02   -0.20559E-03  1818   0.761E-02    0.107E-01
RMM:   8    -0.230328400231E+03    0.11563E-03   -0.33041E-04  1111   0.331E-02    0.617E-02
RMM:   9    -0.230328377670E+03    0.22562E-04   -0.11469E-04   985   0.217E-02
   3 F= -.23032838E+03 E0= -.23032470E+03  d E =-.119879E+00
       N       E                     dE             d eps       ncg     rms          rms(c)
DAV:   1    -0.230442426012E+03   -0.11403E+00   -0.16067E+02  1824   0.233E+01    0.196E+00
RMM:   2    -0.230799577420E+03   -0.35715E+00   -0.29861E+00  1837   0.361E+00    0.276E+00
RMM:   3    -0.230807057133E+03   -0.74797E-02   -0.23270E-01  1872   0.827E-01    0.293E+00
RMM:   4    -0.230690947803E+03    0.11611E+00   -0.79471E-02  1840   0.472E-01    0.138E+00
RMM:   5    -0.230671529991E+03    0.19418E-01   -0.31154E-02  1839   0.296E-01    0.879E-01
RMM:   6    -0.230669134190E+03    0.23958E-02   -0.35258E-02  1832   0.312E-01    0.644E-01
RMM:   7    -0.230666068185E+03    0.30660E-02   -0.17845E-02  1833   0.227E-01    0.415E-01
RMM:   8    -0.230663262893E+03    0.28053E-02   -0.51642E-03  1830   0.124E-01    0.177E-01
RMM:   9    -0.230662969772E+03    0.29312E-03   -0.12197E-03  1816   0.592E-02    0.138E-01
RMM:  10    -0.230662693011E+03    0.27676E-03   -0.40060E-04  1316   0.359E-02    0.567E-02
RMM:  11    -0.230662738909E+03   -0.45898E-04   -0.21390E-04  1008   0.267E-02
   4 F= -.23066274E+03 E0= -.23065838E+03  d E =-.334361E+00
       N       E                     dE             d eps       ncg     rms          rms(c)
DAV:   1    -0.230684775417E+03   -0.22082E-01   -0.56608E+00  1824   0.416E+00    0.404E-01
RMM:   2    -0.230695828343E+03   -0.11053E-01   -0.12080E-01  1839   0.681E-01    0.412E-01
RMM:   3    -0.230697309572E+03   -0.14812E-02   -0.94817E-03  1844   0.168E-01    0.513E-01
RMM:   4    -0.230694449597E+03    0.28600E-02   -0.20638E-03  1859   0.742E-02    0.304E-01
RMM:   5    -0.230693703354E+03    0.74624E-03   -0.14179E-03  1822   0.622E-02    0.210E-01
RMM:   6    -0.230693476956E+03    0.22640E-03   -0.14308E-03  1811   0.628E-02    0.124E-01
RMM:   7    -0.230693356941E+03    0.12002E-03   -0.55730E-04  1563   0.410E-02    0.739E-02
RMM:   8    -0.230693262762E+03    0.94178E-04   -0.17608E-04  1008   0.251E-02
   5 F= -.23069326E+03 E0= -.23068904E+03  d E =-.305239E-01
