 vasp.5.4.4 16052018 (build Apr 24 2014 20:13:14) complex standard
 Contain Constrained Minimization Technique (TS), Periodic NBO, VASPsol, libbeef, VASP2WANNIER90, Constrained Cell Relaxation
 executed on Center for Computational Chemistry by phu@node06 date 2025.09.27 23:32:08
 running on    8 total cores
 distrk:  each k-point on    8 cores,    1 groups
 distr:  one band on NCORES_PER_BAND=   2 cores,    4 groups


--------------------------------------------------------------------------------------------------------


 INCAR:
 POTCAR:   PAW_PBE C 08Apr2002                    
 POTCAR:   PAW_PBE O 08Apr2002                    
 POTCAR:    PAW_PBE Pt 04Feb2005                  
 POTCAR:   PAW_PBE C 08Apr2002                    
   VRHFIN =C: s2p2                                                              
   LEXCH  = PE                                                                  
   EATOM  =   147.1560 eV,   10.8157 Ry                                         
                                                                                
   TITEL  = PAW_PBE C 08Apr2002                                                 
   LULTRA =        F    use ultrasoft PP ?                                      
   IUNSCR =        0    unscreen: 0-lin 1-nonlin 2-no                           
   RPACOR =     .000    partial core radius                                     
   POMASS =   12.011; ZVAL   =    4.000    mass and valenz                      
   RCORE  =    1.500    outmost cutoff radius                                   
   RWIGS  =    1.630; RWIGS  =     .863    wigner-seitz radius (au A)           
   ENMAX  =  400.000; ENMIN  =  300.000 eV                                      
   ICORE  =        2    local potential                                         
   LCOR   =        T    correct aug charges                                     
   LPAW   =        T    paw PP                                                  
   EAUG   =  644.873                                                            
   DEXC   =     .000                                                            
   RMAX   =    2.266    core radius for proj-oper                               
   RAUG   =    1.300    factor for augmentation sphere                          
   RDEP   =    1.501    radius for radial grids                                 
   RDEPT  =    1.300    core radius for aug-charge                              
   QCUT   =   -5.516; QGAM   =   11.032    optimization parameters              
                                                                                
   Description                                                                  
     l     E      TYP  RCUT    TYP  RCUT                                        
     0   .000     23  1.200                                                     
     0   .000     23  1.200                                                     
     1   .000     23  1.500                                                     
     1  2.500     23  1.500                                                     
     2   .000      7  1.500                                                     
  local pseudopotential read in
  atomic valenz-charges read in
  non local Contribution for L=           0  read in
    real space projection operators read in
  non local Contribution for L=           0  read in
    real space projection operators read in
  non local Contribution for L=           1  read in
    real space projection operators read in
  non local Contribution for L=           1  read in
    real space projection operators read in
    PAW grid and wavefunctions read in
 
   number of l-projection  operators is LMAX  =           4
   number of lm-projection operators is LMMAX =           8
 
 POTCAR:   PAW_PBE O 08Apr2002                    
   VRHFIN =O: s2p4                                                              
   LEXCH  = PE                                                                  
   EATOM  =   432.3788 eV,   31.7789 Ry                                         
                                                                                
   TITEL  = PAW_PBE O 08Apr2002                                                 
   LULTRA =        F    use ultrasoft PP ?                                      
   IUNSCR =        0    unscreen: 0-lin 1-nonlin 2-no                           
   RPACOR =     .000    partial core radius                                     
   POMASS =   16.000; ZVAL   =    6.000    mass and valenz                      
   RCORE  =    1.520    outmost cutoff radius                                   
   RWIGS  =    1.550; RWIGS  =     .820    wigner-seitz radius (au A)           
   ENMAX  =  400.000; ENMIN  =  300.000 eV                                      
   ICORE  =        2    local potential                                         
   LCOR   =        T    correct aug charges                                     
   LPAW   =        T    paw PP                                                  
   EAUG   =  605.392                                                            
   DEXC   =     .000                                                            
   RMAX   =    2.264    core radius for proj-oper                               
   RAUG   =    1.300    factor for augmentation sphere                          
   RDEP   =    1.550    radius for radial grids                                 
   QCUT   =   -5.520; QGAM   =   11.041    optimization parameters              
                                                                                
   Description                                                                  
     l     E      TYP  RCUT    TYP  RCUT                                        
     0   .000     23  1.200                                                     
     0  -.700     23  1.200                                                     
     1   .000     23  1.520                                                     
     1   .600     23  1.520                                                     
     2   .000      7  1.500                                                     
  local pseudopotential read in
  atomic valenz-charges read in
  non local Contribution for L=           0  read in
    real space projection operators read in
  non local Contribution for L=           0  read in
    real space projection operators read in
  non local Contribution for L=           1  read in
    real space projection operators read in
  non local Contribution for L=           1  read in
    real space projection operators read in
    PAW grid and wavefunctions read in
 
   number of l-projection  operators is LMAX  =           4
   number of lm-projection operators is LMMAX =           8
 
 POTCAR:    PAW_PBE Pt 04Feb2005                  
   VRHFIN =Pt: s1d9                                                             
   LEXCH  = PE                                                                  
   EATOM  =   729.1182 eV,   53.5887 Ry                                         
                                                                                
   TITEL  = PAW_PBE Pt 04Feb2005                                                
   LULTRA =        F    use ultrasoft PP ?                                      
   IUNSCR =        1    unscreen: 0-lin 1-nonlin 2-no                           
   RPACOR =    2.330    partial core radius                                     
   POMASS =  195.080; ZVAL   =   10.000    mass and valenz                      
   RCORE  =    2.600    outmost cutoff radius                                   
   RWIGS  =    2.750; RWIGS  =    1.455    wigner-seitz radius (au A)           
   ENMAX  =  230.283; ENMIN  =  172.712 eV                                      
   ICORE  =        3    local potential                                         
   LCOR   =        T    correct aug charges                                     
   LPAW   =        T    paw PP                                                  
   EAUG   =  358.966                                                            
   DEXC   =     .000                                                            
   RMAX   =    3.038    core radius for proj-oper                               
   RAUG   =    1.300    factor for augmentation sphere                          
   RDEP   =    2.761    radius for radial grids                                 
   QCUT   =   -4.114; QGAM   =    8.228    optimization parameters              
                                                                                
   Description                                                                  
     l     E      TYP  RCUT    TYP  RCUT                                        
     2   .000     23  2.500                                                     
     2   .000     23  2.500                                                     
     0   .000     23  2.500                                                     
     0   .000     23  2.500                                                     
     1  -.200     23  2.600                                                     
     1  1.500     23  2.600                                                     
     3   .000     23  2.500                                                     
  local pseudopotential read in
  partial core-charges read in
  atomic valenz-charges read in
  non local Contribution for L=           2  read in
    real space projection operators read in
  non local Contribution for L=           2  read in
    real space projection operators read in
  non local Contribution for L=           0  read in
    real space projection operators read in
  non local Contribution for L=           0  read in
    real space projection operators read in
  non local Contribution for L=           1  read in
    real space projection operators read in
  non local Contribution for L=           1  read in
    real space projection operators read in
    PAW grid and wavefunctions read in
 
   number of l-projection  operators is LMAX  =           6
   number of lm-projection operators is LMMAX =          18
 
 Optimization of the real space projectors (new method)

 maximal supplied QI-value         = 25.13
 optimisation between [QCUT,QGAM] = [ 10.81, 21.61] = [ 32.71,130.83] Ry 
 Optimized for a Real-space Cutoff    1.23 Angstroem

   l    n(q)    QCUT    max X(q) W(low)/X(q) W(high)/X(q)  e(spline) 
   0      8    10.807     5.582    0.53E-04    0.84E-04    0.44E-07
   0      8    10.807    69.432    0.35E-03    0.71E-03    0.24E-06
   1      7    10.807     2.780    0.44E-04    0.88E-04    0.89E-07
   1      7    10.807     4.549    0.14E-03    0.28E-03    0.13E-06
 Optimization of the real space projectors (new method)

 maximal supplied QI-value         = 24.76
 optimisation between [QCUT,QGAM] = [ 10.64, 21.54] = [ 31.73,129.89] Ry 
 Optimized for a Real-space Cutoff    1.23 Angstroem

   l    n(q)    QCUT    max X(q) W(low)/X(q) W(high)/X(q)  e(spline) 
   0      8    10.645     4.192    0.69E-04    0.93E-04    0.58E-07
   0      8    10.645     8.473    0.40E-03    0.65E-03    0.17E-06
   1      7    10.645     2.474    0.80E-04    0.12E-03    0.30E-07
   1      7    10.645     3.912    0.24E-03    0.53E-03    0.16E-06
 Optimization of the real space projectors (new method)

 maximal supplied QI-value         = 14.36
 optimisation between [QCUT,QGAM] = [ 10.77, 21.69] = [ 32.49,131.70] Ry 
 Optimized for a Real-space Cutoff    1.46 Angstroem

   l    n(q)    QCUT    max X(q) W(low)/X(q) W(high)/X(q)  e(spline) 
   2      9    10.771     3.903    0.38E-04    0.12E-03    0.82E-07
   2      9    10.771    18.372    0.13E-03    0.32E-03    0.28E-06
   0     10    10.771    13.697    0.11E-04    0.86E-05    0.85E-08
   0     10    10.771    65.529    0.40E-04    0.12E-03    0.14E-06
   1      9    10.771     7.604    0.48E-04    0.31E-04    0.38E-07
   1      9    10.771    12.136    0.35E-03    0.16E-03    0.23E-06
 PAW_PBE C 08Apr2002                    :
 energy of atom  1       EATOM= -147.1560
 kinetic energy error for atom=    0.0116 (will be added to EATOM!!)
 PAW_PBE O 08Apr2002                    :
 energy of atom  2       EATOM= -432.3788
 kinetic energy error for atom=    0.0389 (will be added to EATOM!!)
  PAW_PBE Pt 04Feb2005                  :
 energy of atom  3       EATOM= -729.1182
 kinetic energy error for atom=    0.0051 (will be added to EATOM!!)
 
 
 POSCAR: C    O    Pt                            
  positions in direct lattice
  No initial velocities read in
 exchange correlation table for  LEXCH =        8
   RHO(1)=    0.500       N(1)  =     2000
   RHO(2)=  100.500       N(2)  =     4000

 VTST: version 3.2, (02/03/18)

 CHAIN: initializing optimizer
 
 OPT: Using VASP QUASI-newton optimizer
 CHAIN: Read ICHAIN            0
 
 POSCAR: C    O    Pt                            
  positions in direct lattice
  No initial velocities read in
 


--------------------------------------------------------------------------------------------------------


 ion  position               nearest neighbor table
   1  0.707  0.439  0.479-   3 1.16   2 1.93  36 2.10
   2  0.904  0.389  0.465-   1 1.93  38 1.93  36 2.53
   3  0.679  0.466  0.529-   1 1.16
   4  0.987  0.329  0.074-  15 2.81  16 2.81  12 2.81   5 2.81  11 2.81   6 2.81  18 2.81   8 2.81
                             7 2.81
   5  0.320  0.329  0.074-  13 2.81  10 2.81   4 2.81  12 2.81  16 2.81  17 2.81   8 2.81   9 2.81
                             6 2.81
   6  0.653  0.329  0.074-  14 2.81  18 2.81  11 2.81   4 2.81  17 2.81   7 2.81  10 2.81   9 2.81
                             5 2.81
   7  0.987  0.662  0.074-  18 2.81  21 2.81  19 2.81  12 2.81   8 2.81  10 2.81   9 2.81   6 2.81
                             4 2.81
   8  0.320  0.662  0.074-  16 2.81  19 2.81  10 2.81   7 2.81  20 2.81   4 2.81  11 2.81   5 2.81
                             9 2.81
   9  0.653  0.662  0.074-  17 2.81  20 2.81  21 2.81  11 2.81  12 2.81   7 2.81   6 2.81   5 2.81
                             8 2.81
  10  0.320  0.995  0.074-  13 2.81  19 2.81   5 2.81   8 2.81  12 2.81   7 2.81  14 2.81   6 2.81
                            11 2.81
  11  0.653  0.995  0.074-  14 2.81  20 2.81  15 2.81   9 2.81   6 2.81  12 2.81   4 2.81   8 2.81
                            10 2.81
  12  0.987  0.995  0.074-  15 2.81  21 2.81  13 2.81   7 2.81   4 2.81  10 2.81   5 2.81  11 2.81
                             9 2.81
  13  0.209  0.106  0.179-  25 2.77  10 2.81   5 2.81  12 2.81  19 2.81  15 2.81  21 2.81  16 2.81
                            17 2.81  14 2.81  27 2.81  26 2.84
  14  0.542  0.106  0.179-  23 2.78  11 2.81   6 2.81  20 2.81  15 2.81  10 2.81  18 2.81  19 2.81
                            17 2.81  13 2.81  26 2.83  24 2.87
  15  0.876  0.106  0.179-  28 2.71  25 2.77   4 2.81  12 2.81  11 2.81  21 2.81  13 2.81  20 2.81
                            14 2.81  16 2.81  18 2.81  24 2.88
  16  0.209  0.440  0.179-  22 2.73  29 2.73  25 2.77   8 2.81   4 2.81  19 2.81  18 2.81   5 2.81
                            15 2.81  20 2.81  13 2.81  17 2.81
  17  0.542  0.440  0.179-  30 2.71  29 2.71   9 2.81  20 2.81  21 2.81  18 2.81   6 2.81   5 2.81
                            14 2.81  16 2.81  13 2.81  26 2.86
  18  0.876  0.440  0.179-  30 2.74  22 2.76   7 2.81   6 2.81  21 2.81  19 2.81  16 2.81  17 2.81
                             4 2.81  14 2.81  15 2.81  24 2.86
  19  0.209  0.773  0.179-  22 2.75  23 2.78   8 2.81  10 2.81   7 2.81  16 2.81  13 2.81  18 2.81
                            21 2.81  14 2.81  20 2.81  27 2.84
  20  0.542  0.773  0.179-  28 2.71  29 2.72  23 2.80  11 2.81   9 2.81  17 2.81  14 2.81  21 2.81
                            15 2.81   8 2.81  16 2.81  19 2.81
  21  0.876  0.773  0.179-  28 2.71  30 2.71   7 2.81  12 2.81   9 2.81  18 2.81  15 2.81  19 2.81
                            13 2.81  17 2.81  20 2.81  27 2.82
  22  0.101  0.550  0.280-  16 2.73  19 2.75  37 2.76  18 2.76  25 2.78  23 2.79  29 2.81  24 2.81
                            27 2.85  30 2.87  31 2.89  38 3.07
  23  0.429  0.885  0.283-  32 2.72  26 2.75  19 2.78  14 2.78  22 2.79  27 2.80  20 2.80  24 2.83
                            28 2.83  29 2.84  35 2.85  31 2.89
  24  0.764  0.220  0.288-  32 2.68  36 2.77  26 2.79  25 2.81  22 2.81  30 2.82  23 2.83  28 2.84
                            18 2.86  14 2.87  15 2.88  38 2.92
  25  0.097  0.218  0.282-  15 2.77  16 2.77  13 2.77  22 2.78  27 2.79  24 2.81  28 2.82  29 2.82
                            26 2.83  33 2.89  38 2.90  34 2.90
  26  0.430  0.213  0.286-  23 2.75  27 2.77  35 2.78  24 2.79  36 2.80  33 2.80  25 2.83  14 2.83
                            29 2.83  30 2.84  13 2.84  17 2.86
  27  0.097  0.887  0.285-  37 2.68  26 2.77  25 2.79  28 2.80  23 2.80  34 2.81  13 2.81  35 2.81
                            21 2.82  30 2.83  19 2.84  22 2.85
  28  0.764  0.883  0.278-  20 2.71  21 2.71  15 2.71  30 2.78  32 2.79  29 2.79  27 2.80  25 2.82
                            23 2.83  24 2.84  39 2.86  34 2.95
  29  0.434  0.551  0.279-  17 2.71  20 2.72  16 2.73  30 2.75  28 2.79  22 2.81  25 2.82  26 2.83
                            39 2.84  23 2.84  31 2.92  33 2.94
  30  0.762  0.552  0.279-  17 2.71  21 2.71  18 2.74  29 2.75  28 2.78  24 2.82  27 2.83  37 2.83
                            26 2.84  39 2.86  22 2.87  36 2.99
  31  0.320  0.657  0.390-  39 2.77  37 2.78  33 2.79  32 2.80  38 2.81  35 2.85  23 2.89  22 2.89
                            29 2.92
  32  0.651  0.990  0.383-  24 2.68  23 2.72  39 2.75  28 2.79  31 2.80  36 2.80  34 2.83  35 2.83
                            38 2.84
  33  0.321  0.326  0.390-  38 2.71  36 2.77  35 2.78  31 2.79  26 2.80  34 2.81  39 2.82  25 2.89
                            29 2.94
  34  0.987  0.992  0.391-  38 2.69  35 2.78  39 2.79  37 2.80  27 2.81  33 2.81  32 2.83  25 2.90
                            28 2.95
  35  0.318  0.994  0.390-  37 2.75  36 2.76  34 2.78  33 2.78  26 2.78  27 2.81  32 2.83  23 2.85
                            31 2.85
  36  0.647  0.320  0.391-   1 2.10   2 2.53  35 2.76  33 2.77  24 2.77  26 2.80  32 2.80  39 2.88
                            37 2.93  38 2.95  30 2.99
  37  0.995  0.665  0.382-  27 2.68  35 2.75  22 2.76  31 2.78  34 2.80  30 2.83  39 2.88  36 2.93
                            38 2.96
  38  0.995  0.315  0.396-   2 1.93  34 2.69  33 2.71  31 2.81  32 2.84  25 2.90  24 2.92  36 2.95
                            37 2.96  22 3.07
  39  0.652  0.664  0.387-  32 2.75  31 2.77  34 2.79  33 2.82  29 2.84  28 2.86  30 2.86  37 2.88
                            36 2.88
 

IMPORTANT INFORMATION: All symmetrisations will be switched off!
NOSYMM: (Re-)initialisation of all symmetry stuff for point group C_1.

 
 
 KPOINTS: mesh auto                               

Automatic generation of k-mesh.
Space group operators:
 irot       det(A)        alpha          n_x          n_y          n_z        tau_x        tau_y        tau_z
    1     1.000000     0.000000     1.000000     0.000000     0.000000     0.000000     0.000000     0.000000
 
 Subroutine IBZKPT returns following result:
 ===========================================
 
 Found      4 irreducible k-points:
 
 Following reciprocal coordinates:
            Coordinates               Weight
  0.000000  0.000000  0.000000      1.000000
  0.500000  0.000000  0.000000      1.000000
 -0.000000  0.500000  0.000000      1.000000
  0.500000  0.500000  0.000000      1.000000
 
 Following cartesian coordinates:
            Coordinates               Weight
  0.000000  0.000000  0.000000      1.000000
  0.068522  0.000000  0.000000      1.000000
  0.034261  0.059342  0.000000      1.000000
  0.102783  0.059342  0.000000      1.000000
 


--------------------------------------------------------------------------------------------------------




 Dimension of arrays:
   k-points           NKPTS =      4   k-points in BZ     NKDIM =      4   number of bands    NBANDS=    228
   number of dos      NEDOS =    301   number of ions     NIONS =     39
   non local maximal  LDIM  =      6   non local SUM 2l+1 LMDIM =     18
   total plane-waves  NPLWV = 276480
   max r-space proj   IRMAX =   2756   max aug-charges    IRDMAX=  12646
   dimension x,y,z NGX =    48 NGY =   48 NGZ =  120
   dimension x,y,z NGXF=    96 NGYF=   96 NGZF=  240
   support grid    NGXF=    96 NGYF=   96 NGZF=  240
   ions per type =               1   2  36
   NGX,Y,Z   is equivalent  to a cutoff of   9.47,  9.47,  9.12 a.u.
   NGXF,Y,Z  is equivalent  to a cutoff of  18.94, 18.94, 18.24 a.u.

 SYSTEM =  metal                                   
 POSCAR =  C    O    Pt                            

 Startparameter for this run:
   NWRITE =      2    write-flag & timer
   PREC   = normal    normal or accurate (medium, high low for compatibility)
   ISTART =      0    job   : 0-new  1-cont  2-samecut
   ICHARG =      2    charge: 1-file 2-atom 10-const
   ISPIN  =      1    spin polarized calculation?
   LNONCOLLINEAR =      F non collinear calculations
   LSORBIT =      F    spin-orbit coupling
   INIWAV =      1    electr: 0-lowe 1-rand  2-diag
   LASPH  =      F    aspherical Exc in radial PAW
   METAGGA=      F    non-selfconsistent MetaGGA calc.

 Electronic Relaxation 1
   ENCUT  =  450.0 eV  33.07 Ry    5.75 a.u.  14.57 14.57 37.84*2*pi/ulx,y,z
   ENINI  =  450.0     initial cutoff
   ENAUG  =  644.9 eV  augmentation charge cutoff
   NELM   =     60;   NELMIN=  8; NELMDL= -5     # of ELM steps 
   EDIFF  = 0.1E-03   stopping-criterion for ELM
   LREAL  =      T    real-space projection
   NLSPLINE    = F    spline interpolate recip. space projectors
   LCOMPAT=      F    compatible to vasp.4.4
   GGA_COMPAT  = T    GGA compatible to vasp.4.4-vasp.4.6
   LMAXPAW     = -100 max onsite density
   LMAXMIX     =    2 max onsite mixed and CHGCAR
   VOSKOWN=      0    Vosko Wilk Nusair interpolation
   ROPT   =   -0.00050  -0.00050  -0.00050
 Ionic relaxation
   EDIFFG = -.5E-01   stopping-criterion for IOM
   NSW    =   5000    number of steps for IOM
   NBLOCK =      1;   KBLOCK =   5000    inner block; outer block 
   IBRION =      1    ionic relax: 0-MD 1-quasi-New 2-CG
   NFREE  =      0    steps in history (QN), initial steepest desc. (CG)
   ISIF   =      2    stress and relaxation
   IWAVPR =     11    prediction:  0-non 1-charg 2-wave 3-comb
   ISYM   =      0    0-nonsym 1-usesym 2-fastsym
   LCORR  =      T    Harris-Foulkes like correction to forces

   POTIM  = 0.2000    time-step for ionic-motion
   TEIN   =    0.0    initial temperature
   TEBEG  =    0.0;   TEEND  =   0.0 temperature during run
   SMASS  =  -3.00    Nose mass-parameter (am)
   estimated Nose-frequenzy (Omega)   =  0.10E-29 period in steps =****** mass=  -0.162E-26a.u.
   SCALEE = 1.0000    scale energy and forces
   NPACO  =    256;   APACO  = 16.0  distance and # of slots for P.C.
   PSTRESS=    0.0 pullay stress

  Mass of Ions in am
   POMASS =  12.01 16.00195.08
  Ionic Valenz
   ZVAL   =   4.00  6.00 10.00
  Atomic Wigner-Seitz radii
   RWIGS  =  -1.00 -1.00 -1.00
  virtual crystal weights 
   VCA    =   1.00  1.00  1.00
   NELECT =     376.0000    total number of electrons
   NUPDOWN=      -1.0000    fix difference up-down

 DOS related values:
   EMIN   =  10.00;   EMAX   =-10.00  energy-range for DOS
   EFERMI =   0.00
   ISMEAR =     1;   SIGMA  =   0.20  broadening in eV -4-tet -1-fermi 0-gaus

 Electronic relaxation 2 (details)
   IALGO  =     68    algorithm
   LDIAG  =      T    sub-space diagonalisation (order eigenvalues)
   LSUBROT=      F    optimize rotation matrix (better conditioning)
   TURBO    =      0    0=normal 1=particle mesh
   IRESTART =      0    0=no restart 2=restart with 2 vectors
   NREBOOT  =      0    no. of reboots
   NMIN     =      0    reboot dimension
   EREF     =   0.00    reference energy to select bands
   IMIX   =      4    mixing-type and parameters
     AMIX     =   0.40;   BMIX     =  1.00
     AMIX_MAG =   1.60;   BMIX_MAG =  1.00
     AMIN     =   0.10
     WC   =   100.;   INIMIX=   1;  MIXPRE=   1;  MAXMIX= -45

 Intra band minimization:
   WEIMIN = 0.0010     energy-eigenvalue tresh-hold
   EBREAK =  0.11E-06  absolut break condition
   DEPER  =   0.30     relativ break condition  

   TIME   =   0.40     timestep for ELM

  volume/ion in A,a.u.               =      34.49       232.77
  Fermi-wavevector in a.u.,A,eV,Ry     =   1.070385  2.022734 15.588510  1.145723
  Thomas-Fermi vector in A             =   2.206093
 
 Write flags
   LWAVE        =      F    write WAVECAR
   LDOWNSAMPLE  =      F    k-point downsampling of WAVECAR
   LCHARG       =      F    write CHGCAR
   LVTOT        =      F    write LOCPOT, total local potential
   LVHAR        =      F    write LOCPOT, Hartree potential only
   LELF         =      F    write electronic localiz. function (ELF)
   LORBIT       =      0    0 simple, 1 ext, 2 COOP (PROOUT), +10 PAW based schemes


 Dipole corrections
   LMONO  =      F    monopole corrections only (constant potential shift)
   LDIPOL =      F    correct potential (dipole corrections)
   IDIPOL =      0    1-x, 2-y, 3-z, 4-all directions 
   EPSILON=  1.0000000 bulk dielectric constant

 Exchange correlation treatment:
   GGA     =    --    GGA type
   LEXCH   =     8    internal setting for exchange type
   VOSKOWN=      0    Vosko Wilk Nusair interpolation
   LHFCALC =     F    Hartree Fock is set to
   LHFONE  =     F    Hartree Fock one center treatment
   AEXX    =    0.0000 exact exchange contribution

 Linear response parameters
   LEPSILON=     F    determine dielectric tensor
   LRPA    =     F    only Hartree local field effects (RPA)
   LNABLA  =     F    use nabla operator in PAW spheres
   LVEL    =     F    velocity operator in full k-point grid
   LINTERFAST=   F  fast interpolation
   KINTER  =     0    interpolate to denser k-point grid
   CSHIFT  =0.1000    complex shift for real part using Kramers Kronig
   OMEGAMAX=  -1.0    maximum frequency
   DEG_THRESHOLD= 0.2000000E-02 threshold for treating states as degnerate
   RTIME   =   -0.100 relaxation time in fs
  (WPLASMAI=    0.000 imaginary part of plasma frequency in eV, 0.658/RTIME)
   DFIELD  = 0.0000000 0.0000000 0.0000000 field for delta impulse in time
 
 Orbital magnetization related:
   ORBITALMAG=     F  switch on orbital magnetization
   LCHIMAG   =     F  perturbation theory with respect to B field
   DQ        =  0.001000  dq finite difference perturbation B field
   LLRAUG    =     F  two centre corrections for induced B field



--------------------------------------------------------------------------------------------------------


 quasi-Newton-method for relaxation of ions
   using selective dynamics as specified on POSCAR
 charge density and potential will be updated during run
 non-spin polarized calculation
 RMM-DIIS sequential band-by-band and
  variant of blocked Davidson during initial phase
 perform sub-space diagonalisation
    before iterative eigenvector-optimisation
 modified Broyden-mixing scheme, WC =      100.0
 initial mixing is a Kerker type mixing with AMIX =  0.4000 and BMIX =      1.0000
 Hartree-type preconditioning will be used
 using additional bands           40
 real space projection scheme for non local part
 use partial core corrections
 calculate Harris-corrections to forces 
   (improved forces if not selfconsistent)
 use gradient corrections 
 use of overlap-Matrix (Vanderbilt PP)
 Methfessel and Paxton  Order N= 1 SIGMA  =   0.20


--------------------------------------------------------------------------------------------------------


  energy-cutoff  :      450.00
  volume of cell :     1345.22
      direct lattice vectors                 reciprocal lattice vectors
     7.296955120 -4.212899000  0.000000000     0.137043463  0.000000000  0.000000000
     0.000000000  8.425798000  0.000000000     0.068521732  0.118683121  0.000000000
     0.000000000  0.000000000 21.879635000     0.000000000  0.000000000  0.045704602

  length of vectors
     8.425798004  8.425798000 21.879635000     0.137043463  0.137043463  0.045704602


 
 k-points in units of 2pi/SCALE and weight: mesh auto                               
   0.00000000  0.00000000  0.00000000       0.250
   0.06852173  0.00000000  0.00000000       0.250
   0.03426087  0.05934156  0.00000000       0.250
   0.10278260  0.05934156  0.00000000       0.250
 
 k-points in reciprocal lattice and weights: mesh auto                               
   0.00000000  0.00000000  0.00000000       0.250
   0.50000000  0.00000000  0.00000000       0.250
  -0.00000000  0.50000000  0.00000000       0.250
   0.50000000  0.50000000  0.00000000       0.250
 
 position of ions in fractional coordinates (direct lattice) 
   0.70708765  0.43938656  0.47878891
   0.90365970  0.38883328  0.46530098
   0.67895111  0.46624245  0.52867745
   0.98675500  0.32859100  0.07437600
   0.32008800  0.32859100  0.07437600
   0.65342200  0.32859100  0.07437600
   0.98675500  0.66192500  0.07437600
   0.32008800  0.66192500  0.07437600
   0.65342200  0.66192500  0.07437600
   0.32008800  0.99525800  0.07437600
   0.65342200  0.99525800  0.07437600
   0.98675500  0.99525800  0.07437600
   0.20897700  0.10636900  0.17918600
   0.54231100  0.10636900  0.17918600
   0.87564400  0.10636900  0.17918600
   0.20897700  0.43970300  0.17918600
   0.54231100  0.43970300  0.17918600
   0.87564400  0.43970300  0.17918600
   0.20897700  0.77303600  0.17918600
   0.54231100  0.77303600  0.17918600
   0.87564400  0.77303600  0.17918600
   0.10097768  0.55035357  0.28038285
   0.42866578  0.88531223  0.28276237
   0.76439560  0.21990711  0.28754583
   0.09707149  0.21804818  0.28177932
   0.42954188  0.21260036  0.28595384
   0.09734856  0.88716238  0.28477129
   0.76376145  0.88323074  0.27839186
   0.43405966  0.55064694  0.27912923
   0.76168412  0.55227398  0.27890747
   0.31961363  0.65660800  0.39046226
   0.65068605  0.98956718  0.38273717
   0.32142153  0.32606901  0.39048296
   0.98729301  0.99239752  0.39100383
   0.31758800  0.99426389  0.39017043
   0.64674047  0.31955224  0.39128656
   0.99457583  0.66493971  0.38249462
   0.99481957  0.31537458  0.39643162
   0.65245692  0.66433016  0.38667409
 
 position of ions in cartesian coordinates  (Angst):
   5.15958686  0.72329357 10.47572666
   6.59396424 -0.53079638 10.18061564
   4.95427575  1.06811224 11.56726953
   7.20030695 -1.38845776  1.62731973
   2.33566777  1.42014298  1.62731973
   4.76799101  0.01584050  1.62731973
   7.20030695  1.42014719  1.62731973
   2.33566777  4.22874793  1.62731973
   4.76799101  2.82444545  1.62731973
   2.33566777  7.03734445  1.62731973
   4.76799101  5.63304198  1.62731973
   7.20030695  4.22874371  1.62731973
   1.52489579  0.01584471  3.92052428
   3.95721903 -1.38845776  3.92052428
   6.38953497 -2.79275602  3.92052428
   1.52489579  2.82444966  3.92052428
   3.95721903  1.42014719  3.92052428
   6.38953497  0.01584893  3.92052428
   1.52489579  5.63304619  3.92052428
   3.95721903  4.22874371  3.92052428
   6.38953497  2.82444545  3.92052428
   0.73682960  4.21175928  6.13467446
   3.12795493  5.65353637  6.18673745
   5.57776039 -1.36742861  6.29139775
   0.70832629  1.42827757  6.16522863
   3.13434780 -0.01828888  6.25656572
   0.71034810  7.06493138  6.23069192
   5.57313299  4.22427396  6.09111237
   3.16731386  2.81099039  6.10724574
   5.55797487  1.44445070  6.10239365
   2.33220635  4.18594643  8.54317169
   4.74802688  5.59661857  8.37414968
   2.34539848  1.39327518  8.54362457
   7.20423280  4.20237532  8.55502098
   2.31742542  7.03950052  8.53678669
   4.71923620 -0.03216970  8.56120707
   7.25737517  1.41260016  8.36884263
   7.25915378 -1.53379192  8.67377926
   4.76094886  2.84877664  8.46028805
 


--------------------------------------------------------------------------------------------------------


 k-point  1 :   0.0000 0.0000 0.0000  plane waves:   29241
 k-point  2 :   0.5000 0.0000 0.0000  plane waves:   29108
 k-point  3 :  -0.0000 0.5000 0.0000  plane waves:   29108
 k-point  4 :   0.5000 0.5000 0.0000  plane waves:   29108

 maximum and minimum number of plane-waves per node :     14624    14548

 maximum number of plane-waves:     29241
 maximum index in each direction: 
   IXMAX=   14   IYMAX=   14   IZMAX=   37
   IXMIN=  -15   IYMIN=  -15   IZMIN=  -37


 real space projection operators:
  total allocation   :      13558.98 KBytes
  max/ min on nodes  :       6787.67       6771.31


 parallel 3D FFT for wavefunctions:
    minimum data exchange during FFTs selected (reduces bandwidth)
 parallel 3D FFT for charge:
    minimum data exchange during FFTs selected (reduces bandwidth)


 total amount of memory used by VASP MPI-rank0   131956. kBytes
=======================================================================

   base      :      30000. kBytes
   nonlr-proj:      10148. kBytes
   fftplans  :      13556. kBytes
   grid      :      23353. kBytes
   one-center:        311. kBytes
   wavefun   :      54588. kBytes
 
     INWAV:  cpu time    0.0000: real time    0.0000
 Broyden mixing: mesh for mixing (old mesh)
   NGX = 29   NGY = 29   NGZ = 75
  (NGX  = 96   NGY  = 96   NGZ  =240)
  gives a total of  63075 points

 initial charge density was supplied:
 charge density of overlapping atoms calculated
 number of electron     376.0000000 magnetization 
 keeping initial charge density in first step


--------------------------------------------------------------------------------------------------------


 Maximum index for non-local projection operator         1320
 Maximum index for augmentation-charges         1558 (set IRDMAX)


--------------------------------------------------------------------------------------------------------


 First call to EWALD:  gamma=   0.161
 Maximum number of real-space cells 4x 4x 2
 Maximum number of reciprocal cells 2x 2x 5

    FEWALD:  cpu time    0.0023: real time    0.0024


--------------------------------------- Iteration      1(   1)  ---------------------------------------


    POTLOK:  cpu time    0.1424: real time    0.1916
    SETDIJ:  cpu time    0.0114: real time    0.0115
     EDDAV:  cpu time    8.2492: real time    8.3069
       DOS:  cpu time    0.0010: real time    0.0010
    --------------------------------------------
      LOOP:  cpu time    8.4040: real time    8.5110

 eigenvalue-minimisations  :  1824
 total energy-change (2. order) : 0.2418491E+04  (-0.1594689E+05)
 number of electron     376.0000000 magnetization 
 augmentation part      376.0000000 magnetization 

 Free energy of the ion-electron system (eV)
  ---------------------------------------------------
  alpha Z        PSCENC =       975.10247152
  Ewald energy   TEWEN  =     91067.79549663
  -Hartree energ DENC   =   -120160.54470230
  -exchange      EXHF   =         0.00000000
  -V(xc)+E(xc)   XCENC  =       189.36096944
  PAW double counting   =     24789.08602224   -23775.73976456
  entropy T*S    EENTRO =         0.01975917
  eigenvalues    EBANDS =      2073.51638125
  atomic energy  EATOM  =     27259.89416086
  Solvation  Ediel_sol  =         0.00000000
  ---------------------------------------------------
  free energy    TOTEN  =      2418.49079425 eV

  energy without entropy =     2418.47103508  energy(sigma->0) =     2418.48420786


--------------------------------------------------------------------------------------------------------




--------------------------------------- Iteration      1(   2)  ---------------------------------------


     EDDAV:  cpu time    9.0181: real time    9.0802
       DOS:  cpu time    0.0010: real time    0.0010
    --------------------------------------------
      LOOP:  cpu time    9.0191: real time    9.0812

 eigenvalue-minimisations  :  2128
 total energy-change (2. order) :-0.2482401E+04  (-0.2308600E+04)
 number of electron     376.0000000 magnetization 
 augmentation part      376.0000000 magnetization 

 Free energy of the ion-electron system (eV)
  ---------------------------------------------------
  alpha Z        PSCENC =       975.10247152
  Ewald energy   TEWEN  =     91067.79549663
  -Hartree energ DENC   =   -120160.54470230
  -exchange      EXHF   =         0.00000000
  -V(xc)+E(xc)   XCENC  =       189.36096944
  PAW double counting   =     24789.08602224   -23775.73976456
  entropy T*S    EENTRO =        -0.02624001
  eigenvalues    EBANDS =      -408.83882534
  atomic energy  EATOM  =     27259.89416086
  Solvation  Ediel_sol  =         0.00000000
  ---------------------------------------------------
  free energy    TOTEN  =       -63.91041153 eV

  energy without entropy =      -63.88417152  energy(sigma->0) =      -63.90166486


--------------------------------------------------------------------------------------------------------




--------------------------------------- Iteration      1(   3)  ---------------------------------------


     EDDAV:  cpu time    9.1683: real time    9.2311
       DOS:  cpu time    0.0009: real time    0.0009
    --------------------------------------------
      LOOP:  cpu time    9.1692: real time    9.2320

 eigenvalue-minimisations  :  2184
 total energy-change (2. order) :-0.1764840E+03  (-0.1605297E+03)
 number of electron     376.0000000 magnetization 
 augmentation part      376.0000000 magnetization 

 Free energy of the ion-electron system (eV)
  ---------------------------------------------------
  alpha Z        PSCENC =       975.10247152
  Ewald energy   TEWEN  =     91067.79549663
  -Hartree energ DENC   =   -120160.54470230
  -exchange      EXHF   =         0.00000000
  -V(xc)+E(xc)   XCENC  =       189.36096944
  PAW double counting   =     24789.08602224   -23775.73976456
  entropy T*S    EENTRO =        -0.01653544
  eigenvalues    EBANDS =      -585.33249720
  atomic energy  EATOM  =     27259.89416086
  Solvation  Ediel_sol  =         0.00000000
  ---------------------------------------------------
  free energy    TOTEN  =      -240.39437881 eV

  energy without entropy =     -240.37784337  energy(sigma->0) =     -240.38886700


--------------------------------------------------------------------------------------------------------




--------------------------------------- Iteration      1(   4)  ---------------------------------------


     EDDAV:  cpu time    9.8217: real time    9.8889
       DOS:  cpu time    0.0010: real time    0.0010
    --------------------------------------------
      LOOP:  cpu time    9.8227: real time    9.8900

 eigenvalue-minimisations  :  2304
 total energy-change (2. order) :-0.7295837E+01  (-0.7024200E+01)
 number of electron     376.0000000 magnetization 
 augmentation part      376.0000000 magnetization 

 Free energy of the ion-electron system (eV)
  ---------------------------------------------------
  alpha Z        PSCENC =       975.10247152
  Ewald energy   TEWEN  =     91067.79549663
  -Hartree energ DENC   =   -120160.54470230
  -exchange      EXHF   =         0.00000000
  -V(xc)+E(xc)   XCENC  =       189.36096944
  PAW double counting   =     24789.08602224   -23775.73976456
  entropy T*S    EENTRO =        -0.01607170
  eigenvalues    EBANDS =      -592.62879836
  atomic energy  EATOM  =     27259.89416086
  Solvation  Ediel_sol  =         0.00000000
  ---------------------------------------------------
  free energy    TOTEN  =      -247.69021624 eV

  energy without entropy =     -247.67414453  energy(sigma->0) =     -247.68485900


--------------------------------------------------------------------------------------------------------




--------------------------------------- Iteration      1(   5)  ---------------------------------------


     EDDAV:  cpu time   10.6842: real time   10.7572
       DOS:  cpu time    0.0010: real time    0.0010
    CHARGE:  cpu time    0.3976: real time    0.4005
    MIXING:  cpu time    0.0072: real time    0.0072
    --------------------------------------------
      LOOP:  cpu time   11.0901: real time   11.1660

 eigenvalue-minimisations  :  2472
 total energy-change (2. order) :-0.2312805E+00  (-0.2292604E+00)
 number of electron     376.0000063 magnetization 
 augmentation part      105.8426668 magnetization 

 Broyden mixing:
  rms(total) = 0.27091E+01    rms(broyden)= 0.27087E+01
  rms(prec ) = 0.30189E+01
  weight for this iteration     100.00

 Free energy of the ion-electron system (eV)
  ---------------------------------------------------
  alpha Z        PSCENC =       975.10247152
  Ewald energy   TEWEN  =     91067.79549663
  -Hartree energ DENC   =   -120160.54470230
  -exchange      EXHF   =         0.00000000
  -V(xc)+E(xc)   XCENC  =       189.36096944
  PAW double counting   =     24789.08602224   -23775.73976456
  entropy T*S    EENTRO =        -0.01625059
  eigenvalues    EBANDS =      -592.85989994
  atomic energy  EATOM  =     27259.89416086
  Solvation  Ediel_sol  =         0.00000000
  ---------------------------------------------------
  free energy    TOTEN  =      -247.92149671 eV

  energy without entropy =     -247.90524612  energy(sigma->0) =     -247.91607984


--------------------------------------------------------------------------------------------------------




--------------------------------------- Iteration      1(   6)  ---------------------------------------


    POTLOK:  cpu time    0.1341: real time    0.1349
    SETDIJ:  cpu time    0.0095: real time    0.0095
    EDDIAG:  cpu time    1.3664: real time    1.3760
  RMM-DIIS:  cpu time    4.5368: real time    4.5687
    ORTHCH:  cpu time    0.2320: real time    0.2333
       DOS:  cpu time    0.0011: real time    0.0011
    CHARGE:  cpu time    0.4298: real time    0.4328
    MIXING:  cpu time    0.0062: real time    0.0062
    --------------------------------------------
      LOOP:  cpu time    6.7157: real time    6.7626

 eigenvalue-minimisations  :  1831
 total energy-change (2. order) : 0.2775794E+01  (-0.5385346E+01)
 number of electron     376.0000062 magnetization 
 augmentation part      112.8166655 magnetization 

 Broyden mixing:
  rms(total) = 0.27757E+01    rms(broyden)= 0.27748E+01
  rms(prec ) = 0.37492E+01
  weight for this iteration     100.00

 eigenvalues of (default mixing * dielectric matrix)
  average eigenvalue GAMMA=   0.5085
  0.5085

 Free energy of the ion-electron system (eV)
  ---------------------------------------------------
  alpha Z        PSCENC =       975.10247152
  Ewald energy   TEWEN  =     91067.79549663
  -Hartree energ DENC   =   -119697.11263936
  -exchange      EXHF   =         0.00000000
  -V(xc)+E(xc)   XCENC  =       182.15483734
  PAW double counting   =     26708.73936141   -25748.79593750
  entropy T*S    EENTRO =        -0.22704317
  eigenvalues    EBANDS =      -992.69641043
  atomic energy  EATOM  =     27259.89416086
  Solvation  Ediel_sol  =         0.00000000
  ---------------------------------------------------
  free energy    TOTEN  =      -245.14570271 eV

  energy without entropy =     -244.91865954  energy(sigma->0) =     -245.07002165


--------------------------------------------------------------------------------------------------------




--------------------------------------- Iteration      1(   7)  ---------------------------------------


    POTLOK:  cpu time    0.1266: real time    0.1273
    SETDIJ:  cpu time    0.0099: real time    0.0100
    EDDIAG:  cpu time    1.3011: real time    1.3099
  RMM-DIIS:  cpu time    4.9635: real time    4.9975
    ORTHCH:  cpu time    0.2261: real time    0.2275
       DOS:  cpu time    0.0010: real time    0.0010
    CHARGE:  cpu time    0.4280: real time    0.4308
    MIXING:  cpu time    0.0046: real time    0.0046
    --------------------------------------------
      LOOP:  cpu time    7.0608: real time    7.1086

 eigenvalue-minimisations  :  1826
 total energy-change (2. order) : 0.5040916E+01  (-0.3121268E+01)
 number of electron     376.0000073 magnetization 
 augmentation part      111.4610998 magnetization 

 Broyden mixing:
  rms(total) = 0.18995E+01    rms(broyden)= 0.18986E+01
  rms(prec ) = 0.29356E+01
  weight for this iteration     100.00

 eigenvalues of (default mixing * dielectric matrix)
  average eigenvalue GAMMA=   0.6364
  1.0131  0.2596

 Free energy of the ion-electron system (eV)
  ---------------------------------------------------
  alpha Z        PSCENC =       975.10247152
  Ewald energy   TEWEN  =     91067.79549663
  -Hartree energ DENC   =   -119887.93151370
  -exchange      EXHF   =         0.00000000
  -V(xc)+E(xc)   XCENC  =       179.82981153
  PAW double counting   =     27367.77644702   -26415.50945776
  entropy T*S    EENTRO =        -0.11341711
  eigenvalues    EBANDS =      -786.94878563
  atomic energy  EATOM  =     27259.89416086
  Solvation  Ediel_sol  =         0.00000000
  ---------------------------------------------------
  free energy    TOTEN  =      -240.10478664 eV

  energy without entropy =     -239.99136954  energy(sigma->0) =     -240.06698094


--------------------------------------------------------------------------------------------------------




--------------------------------------- Iteration      1(   8)  ---------------------------------------


    POTLOK:  cpu time    0.1354: real time    0.1362
    SETDIJ:  cpu time    0.0099: real time    0.0100
    EDDIAG:  cpu time    1.3851: real time    1.3944
  RMM-DIIS:  cpu time    4.9599: real time    4.9960
    ORTHCH:  cpu time    0.2293: real time    0.2308
       DOS:  cpu time    0.0011: real time    0.0011
    CHARGE:  cpu time    0.4099: real time    0.4129
    MIXING:  cpu time    0.0044: real time    0.0044
    --------------------------------------------
      LOOP:  cpu time    7.1348: real time    7.1857

 eigenvalue-minimisations  :  1832
 total energy-change (2. order) :-0.3657947E+01  (-0.8471390E+00)
 number of electron     376.0000073 magnetization 
 augmentation part      112.3065043 magnetization 

 Broyden mixing:
  rms(total) = 0.23616E+01    rms(broyden)= 0.23614E+01
  rms(prec ) = 0.43390E+01
  weight for this iteration     100.00

 eigenvalues of (default mixing * dielectric matrix)
  average eigenvalue GAMMA=   0.5543
  1.2141  0.2947  0.1541

 Free energy of the ion-electron system (eV)
  ---------------------------------------------------
  alpha Z        PSCENC =       975.10247152
  Ewald energy   TEWEN  =     91067.79549663
  -Hartree energ DENC   =   -119830.33889746
  -exchange      EXHF   =         0.00000000
  -V(xc)+E(xc)   XCENC  =       178.74535313
  PAW double counting   =     28157.46448262   -27217.58207631
  entropy T*S    EENTRO =        -0.01247790
  eigenvalues    EBANDS =      -834.83124698
  atomic energy  EATOM  =     27259.89416086
  Solvation  Ediel_sol  =         0.00000000
  ---------------------------------------------------
  free energy    TOTEN  =      -243.76273388 eV

  energy without entropy =     -243.75025598  energy(sigma->0) =     -243.75857458


--------------------------------------------------------------------------------------------------------




--------------------------------------- Iteration      1(   9)  ---------------------------------------


    POTLOK:  cpu time    0.1263: real time    0.1271
    SETDIJ:  cpu time    0.0103: real time    0.0104
    EDDIAG:  cpu time    1.3921: real time    1.4014
  RMM-DIIS:  cpu time    5.4544: real time    5.4902
    ORTHCH:  cpu time    0.2292: real time    0.2307
       DOS:  cpu time    0.0010: real time    0.0010
    CHARGE:  cpu time    0.4320: real time    0.4346
    MIXING:  cpu time    0.0041: real time    0.0042
    --------------------------------------------
      LOOP:  cpu time    7.6495: real time    7.6995

 eigenvalue-minimisations  :  1831
 total energy-change (2. order) : 0.1265948E+02  (-0.4036448E+00)
 number of electron     376.0000069 magnetization 
 augmentation part      112.6985487 magnetization 

 Broyden mixing:
  rms(total) = 0.72499E+00    rms(broyden)= 0.72485E+00
  rms(prec ) = 0.10660E+01
  weight for this iteration     100.00

 eigenvalues of (default mixing * dielectric matrix)
  average eigenvalue GAMMA=   0.5466
  1.3261  0.3887  0.3443  0.1274

 Free energy of the ion-electron system (eV)
  ---------------------------------------------------
  alpha Z        PSCENC =       975.10247152
  Ewald energy   TEWEN  =     91067.79549663
  -Hartree energ DENC   =   -119785.68574725
  -exchange      EXHF   =         0.00000000
  -V(xc)+E(xc)   XCENC  =       178.24030348
  PAW double counting   =     28707.26904429   -27775.83987167
  entropy T*S    EENTRO =        -0.00399015
  eigenvalues    EBANDS =      -857.87512482
  atomic energy  EATOM  =     27259.89416086
  Solvation  Ediel_sol  =         0.00000000
  ---------------------------------------------------
  free energy    TOTEN  =      -231.10325710 eV

  energy without entropy =     -231.09926695  energy(sigma->0) =     -231.10192705


--------------------------------------------------------------------------------------------------------




--------------------------------------- Iteration      1(  10)  ---------------------------------------


    POTLOK:  cpu time    0.1280: real time    0.1287
    SETDIJ:  cpu time    0.0098: real time    0.0099
    EDDIAG:  cpu time    1.5307: real time    1.5405
  RMM-DIIS:  cpu time    5.3002: real time    5.3351
    ORTHCH:  cpu time    0.2175: real time    0.2188
       DOS:  cpu time    0.0011: real time    0.0011
    CHARGE:  cpu time    0.3779: real time    0.3805
    MIXING:  cpu time    0.0052: real time    0.0052
    --------------------------------------------
      LOOP:  cpu time    7.5704: real time    7.6198

 eigenvalue-minimisations  :  1831
 total energy-change (2. order) : 0.7980855E+00  (-0.9947719E-01)
 number of electron     376.0000069 magnetization 
 augmentation part      112.8281581 magnetization 

 Broyden mixing:
  rms(total) = 0.40041E+00    rms(broyden)= 0.40013E+00
  rms(prec ) = 0.51123E+00
  weight for this iteration     100.00

 eigenvalues of (default mixing * dielectric matrix)
  average eigenvalue GAMMA=   0.5453
  1.3952  0.5349  0.4048  0.2648  0.1269

 Free energy of the ion-electron system (eV)
  ---------------------------------------------------
  alpha Z        PSCENC =       975.10247152
  Ewald energy   TEWEN  =     91067.79549663
  -Hartree energ DENC   =   -119792.69960732
  -exchange      EXHF   =         0.00000000
  -V(xc)+E(xc)   XCENC  =       178.14880344
  PAW double counting   =     29048.43179937   -28121.77056821
  entropy T*S    EENTRO =        -0.01817802
  eigenvalues    EBANDS =      -845.18954988
  atomic energy  EATOM  =     27259.89416086
  Solvation  Ediel_sol  =         0.00000000
  ---------------------------------------------------
  free energy    TOTEN  =      -230.30517160 eV

  energy without entropy =     -230.28699359  energy(sigma->0) =     -230.29911226


--------------------------------------------------------------------------------------------------------




--------------------------------------- Iteration      1(  11)  ---------------------------------------


    POTLOK:  cpu time    0.1256: real time    0.1264
    SETDIJ:  cpu time    0.0107: real time    0.0107
    EDDIAG:  cpu time    1.2119: real time    1.2200
  RMM-DIIS:  cpu time    4.3313: real time    4.3615
    ORTHCH:  cpu time    0.2149: real time    0.2161
       DOS:  cpu time    0.0011: real time    0.0011
    CHARGE:  cpu time    0.3777: real time    0.3802
    MIXING:  cpu time    0.0048: real time    0.0049
    --------------------------------------------
      LOOP:  cpu time    6.2780: real time    6.3210

 eigenvalue-minimisations  :  1834
 total energy-change (2. order) : 0.2878208E+00  (-0.2889720E-01)
 number of electron     376.0000068 magnetization 
 augmentation part      112.9067151 magnetization 

 Broyden mixing:
  rms(total) = 0.22880E+00    rms(broyden)= 0.22878E+00
  rms(prec ) = 0.27728E+00
  weight for this iteration     100.00

 eigenvalues of (default mixing * dielectric matrix)
  average eigenvalue GAMMA=   0.6288
  1.5844  0.8419  0.5610  0.3875  0.2713  0.1266

 Free energy of the ion-electron system (eV)
  ---------------------------------------------------
  alpha Z        PSCENC =       975.10247152
  Ewald energy   TEWEN  =     91067.79549663
  -Hartree energ DENC   =   -119778.57737825
  -exchange      EXHF   =         0.00000000
  -V(xc)+E(xc)   XCENC  =       178.08137970
  PAW double counting   =     29297.84593770   -28374.36320380
  entropy T*S    EENTRO =        -0.00555243
  eigenvalues    EBANDS =      -855.79066272
  atomic energy  EATOM  =     27259.89416086
  Solvation  Ediel_sol  =         0.00000000
  ---------------------------------------------------
  free energy    TOTEN  =      -230.01735079 eV

  energy without entropy =     -230.01179836  energy(sigma->0) =     -230.01549998


--------------------------------------------------------------------------------------------------------




--------------------------------------- Iteration      1(  12)  ---------------------------------------


    POTLOK:  cpu time    0.1223: real time    0.1230
    SETDIJ:  cpu time    0.0100: real time    0.0101
    EDDIAG:  cpu time    1.3743: real time    1.3831
  RMM-DIIS:  cpu time    4.7690: real time    4.8017
    ORTHCH:  cpu time    0.2101: real time    0.2114
       DOS:  cpu time    0.0010: real time    0.0010
    CHARGE:  cpu time    0.3375: real time    0.3395
    MIXING:  cpu time    0.0052: real time    0.0052
    --------------------------------------------
      LOOP:  cpu time    6.8295: real time    6.8750

 eigenvalue-minimisations  :  1833
 total energy-change (2. order) : 0.2823874E-01  (-0.1784437E-01)
 number of electron     376.0000067 magnetization 
 augmentation part      112.9850878 magnetization 

 Broyden mixing:
  rms(total) = 0.23617E+00    rms(broyden)= 0.23608E+00
  rms(prec ) = 0.28227E+00
  weight for this iteration     100.00

 eigenvalues of (default mixing * dielectric matrix)
  average eigenvalue GAMMA=   0.7241
  2.0679  1.1467  0.7176  0.4609  0.1265  0.2746  0.2746

 Free energy of the ion-electron system (eV)
  ---------------------------------------------------
  alpha Z        PSCENC =       975.10247152
  Ewald energy   TEWEN  =     91067.79549663
  -Hartree energ DENC   =   -119773.35565442
  -exchange      EXHF   =         0.00000000
  -V(xc)+E(xc)   XCENC  =       178.02472498
  PAW double counting   =     29621.10560734   -28701.66178962
  entropy T*S    EENTRO =        -0.01702492
  eigenvalues    EBANDS =      -856.87710444
  atomic energy  EATOM  =     27259.89416086
  Solvation  Ediel_sol  =         0.00000000
  ---------------------------------------------------
  free energy    TOTEN  =      -229.98911205 eV

  energy without entropy =     -229.97208713  energy(sigma->0) =     -229.98343708


--------------------------------------------------------------------------------------------------------




--------------------------------------- Iteration      1(  13)  ---------------------------------------


    POTLOK:  cpu time    0.1310: real time    0.1318
    SETDIJ:  cpu time    0.0099: real time    0.0099
    EDDIAG:  cpu time    1.1990: real time    1.2072
  RMM-DIIS:  cpu time    4.4760: real time    4.5070
    ORTHCH:  cpu time    0.2262: real time    0.2275
       DOS:  cpu time    0.0011: real time    0.0011
    CHARGE:  cpu time    0.3868: real time    0.3894
    MIXING:  cpu time    0.0053: real time    0.0054
    --------------------------------------------
      LOOP:  cpu time    6.4353: real time    6.4794

 eigenvalue-minimisations  :  1830
 total energy-change (2. order) : 0.2865110E-01  (-0.1331962E-01)
 number of electron     376.0000067 magnetization 
 augmentation part      112.9914216 magnetization 

 Broyden mixing:
  rms(total) = 0.17755E+00    rms(broyden)= 0.17755E+00
  rms(prec ) = 0.22358E+00
  weight for this iteration     100.00

 eigenvalues of (default mixing * dielectric matrix)
  average eigenvalue GAMMA=   0.7304
  2.3318  1.2221  0.7955  0.4943  0.1265  0.3345  0.2918  0.2464

 Free energy of the ion-electron system (eV)
  ---------------------------------------------------
  alpha Z        PSCENC =       975.10247152
  Ewald energy   TEWEN  =     91067.79549663
  -Hartree energ DENC   =   -119774.41308759
  -exchange      EXHF   =         0.00000000
  -V(xc)+E(xc)   XCENC  =       177.92641684
  PAW double counting   =     29906.19251064   -28990.15717288
  entropy T*S    EENTRO =        -0.01643167
  eigenvalues    EBANDS =      -852.28482531
  atomic energy  EATOM  =     27259.89416086
  Solvation  Ediel_sol  =         0.00000000
  ---------------------------------------------------
  free energy    TOTEN  =      -229.96046095 eV

  energy without entropy =     -229.94402928  energy(sigma->0) =     -229.95498373


--------------------------------------------------------------------------------------------------------




--------------------------------------- Iteration      1(  14)  ---------------------------------------


    POTLOK:  cpu time    0.1322: real time    0.1330
    SETDIJ:  cpu time    0.0109: real time    0.0109
    EDDIAG:  cpu time    1.2792: real time    1.2877
  RMM-DIIS:  cpu time    4.5635: real time    4.5961
    ORTHCH:  cpu time    0.2262: real time    0.2276
       DOS:  cpu time    0.0011: real time    0.0011
    CHARGE:  cpu time    0.3816: real time    0.3843
    MIXING:  cpu time    0.0058: real time    0.0059
    --------------------------------------------
      LOOP:  cpu time    6.6006: real time    6.6465

 eigenvalue-minimisations  :  1829
 total energy-change (2. order) : 0.3752490E-01  (-0.7024183E-02)
 number of electron     376.0000067 magnetization 
 augmentation part      112.9688058 magnetization 

 Broyden mixing:
  rms(total) = 0.79914E-01    rms(broyden)= 0.79847E-01
  rms(prec ) = 0.10422E+00
  weight for this iteration     100.00

 eigenvalues of (default mixing * dielectric matrix)
  average eigenvalue GAMMA=   0.7246
  2.3678  1.2099  0.9199  0.6386  0.4579  0.1265  0.2970  0.2709  0.2332

 Free energy of the ion-electron system (eV)
  ---------------------------------------------------
  alpha Z        PSCENC =       975.10247152
  Ewald energy   TEWEN  =     91067.79549663
  -Hartree energ DENC   =   -119775.69220839
  -exchange      EXHF   =         0.00000000
  -V(xc)+E(xc)   XCENC  =       177.87964706
  PAW double counting   =     30022.68441088   -29107.96263383
  entropy T*S    EENTRO =        -0.00182945
  eigenvalues    EBANDS =      -849.62245134
  atomic energy  EATOM  =     27259.89416086
  Solvation  Ediel_sol  =         0.00000000
  ---------------------------------------------------
  free energy    TOTEN  =      -229.92293606 eV

  energy without entropy =     -229.92110661  energy(sigma->0) =     -229.92232624


--------------------------------------------------------------------------------------------------------




--------------------------------------- Iteration      1(  15)  ---------------------------------------


    POTLOK:  cpu time    0.1327: real time    0.1335
    SETDIJ:  cpu time    0.0099: real time    0.0100
    EDDIAG:  cpu time    1.2875: real time    1.2962
  RMM-DIIS:  cpu time    4.5402: real time    4.5733
    ORTHCH:  cpu time    0.2160: real time    0.2173
       DOS:  cpu time    0.0011: real time    0.0011
    CHARGE:  cpu time    0.3798: real time    0.3825
    MIXING:  cpu time    0.0062: real time    0.0062
    --------------------------------------------
      LOOP:  cpu time    6.5734: real time    6.6201

 eigenvalue-minimisations  :  1830
 total energy-change (2. order) : 0.6934284E-02  (-0.1892817E-02)
 number of electron     376.0000067 magnetization 
 augmentation part      112.9662235 magnetization 

 Broyden mixing:
  rms(total) = 0.46743E-01    rms(broyden)= 0.46738E-01
  rms(prec ) = 0.57083E-01
  weight for this iteration     100.00

 eigenvalues of (default mixing * dielectric matrix)
  average eigenvalue GAMMA=   0.7144
  2.4484  1.2430  0.9489  0.7757  0.4667  0.1265  0.3482  0.2865  0.2738  0.2262

 Free energy of the ion-electron system (eV)
  ---------------------------------------------------
  alpha Z        PSCENC =       975.10247152
  Ewald energy   TEWEN  =     91067.79549663
  -Hartree energ DENC   =   -119778.30983972
  -exchange      EXHF   =         0.00000000
  -V(xc)+E(xc)   XCENC  =       177.88646438
  PAW double counting   =     30049.06061050   -29134.59448008
  entropy T*S    EENTRO =        -0.00875193
  eigenvalues    EBANDS =      -846.74213394
  atomic energy  EATOM  =     27259.89416086
  Solvation  Ediel_sol  =         0.00000000
  ---------------------------------------------------
  free energy    TOTEN  =      -229.91600177 eV

  energy without entropy =     -229.90724985  energy(sigma->0) =     -229.91308447


--------------------------------------------------------------------------------------------------------




--------------------------------------- Iteration      1(  16)  ---------------------------------------


    POTLOK:  cpu time    0.1313: real time    0.1321
    SETDIJ:  cpu time    0.0099: real time    0.0100
    EDDIAG:  cpu time    1.2679: real time    1.2765
  RMM-DIIS:  cpu time    4.3443: real time    4.3745
    ORTHCH:  cpu time    0.2194: real time    0.2208
       DOS:  cpu time    0.0011: real time    0.0011
    CHARGE:  cpu time    0.3730: real time    0.3754
    MIXING:  cpu time    0.0061: real time    0.0061
    --------------------------------------------
      LOOP:  cpu time    6.3530: real time    6.3965

 eigenvalue-minimisations  :  1829
 total energy-change (2. order) : 0.3370794E-02  (-0.4923849E-03)
 number of electron     376.0000067 magnetization 
 augmentation part      112.9629339 magnetization 

 Broyden mixing:
  rms(total) = 0.20417E-01    rms(broyden)= 0.20415E-01
  rms(prec ) = 0.25111E-01
  weight for this iteration     100.00

 eigenvalues of (default mixing * dielectric matrix)
  average eigenvalue GAMMA=   0.7027
  2.4799  1.2527  0.8525  0.8525  0.5981  0.4701  0.1265  0.3301  0.2726  0.2726
  0.2226

 Free energy of the ion-electron system (eV)
  ---------------------------------------------------
  alpha Z        PSCENC =       975.10247152
  Ewald energy   TEWEN  =     91067.79549663
  -Hartree energ DENC   =   -119779.19458631
  -exchange      EXHF   =         0.00000000
  -V(xc)+E(xc)   XCENC  =       177.89082248
  PAW double counting   =     30068.87034720   -29154.58253335
  entropy T*S    EENTRO =        -0.00840974
  eigenvalues    EBANDS =      -845.68040028
  atomic energy  EATOM  =     27259.89416086
  Solvation  Ediel_sol  =         0.00000000
  ---------------------------------------------------
  free energy    TOTEN  =      -229.91263098 eV

  energy without entropy =     -229.90422124  energy(sigma->0) =     -229.90982773


--------------------------------------------------------------------------------------------------------




--------------------------------------- Iteration      1(  17)  ---------------------------------------


    POTLOK:  cpu time    0.1249: real time    0.1257
    SETDIJ:  cpu time    0.0103: real time    0.0104
    EDDIAG:  cpu time    1.2019: real time    1.2100
  RMM-DIIS:  cpu time    4.4027: real time    4.4345
    ORTHCH:  cpu time    0.2172: real time    0.2186
       DOS:  cpu time    0.0011: real time    0.0011
    CHARGE:  cpu time    0.3704: real time    0.3730
    MIXING:  cpu time    0.0064: real time    0.0064
    --------------------------------------------
      LOOP:  cpu time    6.3349: real time    6.3796

 eigenvalue-minimisations  :  1813
 total energy-change (2. order) : 0.2173002E-03  (-0.1241911E-03)
 number of electron     376.0000067 magnetization 
 augmentation part      112.9639680 magnetization 

 Broyden mixing:
  rms(total) = 0.14101E-01    rms(broyden)= 0.14100E-01
  rms(prec ) = 0.17005E-01
  weight for this iteration     100.00

 eigenvalues of (default mixing * dielectric matrix)
  average eigenvalue GAMMA=   0.7485
  2.5250  1.2669  1.2015  1.2015  0.7915  0.4730  0.1265  0.3520  0.2992  0.2690
  0.2548  0.2212

 Free energy of the ion-electron system (eV)
  ---------------------------------------------------
  alpha Z        PSCENC =       975.10247152
  Ewald energy   TEWEN  =     91067.79549663
  -Hartree energ DENC   =   -119779.72619660
  -exchange      EXHF   =         0.00000000
  -V(xc)+E(xc)   XCENC  =       177.89591106
  PAW double counting   =     30072.15713653   -29157.87746511
  entropy T*S    EENTRO =        -0.00833951
  eigenvalues    EBANDS =      -845.14558907
  atomic energy  EATOM  =     27259.89416086
  Solvation  Ediel_sol  =         0.00000000
  ---------------------------------------------------
  free energy    TOTEN  =      -229.91241368 eV

  energy without entropy =     -229.90407417  energy(sigma->0) =     -229.90963384


--------------------------------------------------------------------------------------------------------




--------------------------------------- Iteration      1(  18)  ---------------------------------------


    POTLOK:  cpu time    0.1257: real time    0.1264
    SETDIJ:  cpu time    0.0097: real time    0.0098
    EDDIAG:  cpu time    1.1681: real time    1.1756
  RMM-DIIS:  cpu time    3.7765: real time    3.8026
    ORTHCH:  cpu time    0.2096: real time    0.2111
       DOS:  cpu time    0.0011: real time    0.0011
    CHARGE:  cpu time    0.3738: real time    0.3764
    MIXING:  cpu time    0.0059: real time    0.0059
    --------------------------------------------
      LOOP:  cpu time    5.6704: real time    5.7089

 eigenvalue-minimisations  :  1597
 total energy-change (2. order) :-0.1541207E-03  (-0.5858088E-04)
 number of electron     376.0000067 magnetization 
 augmentation part      112.9641440 magnetization 

 Broyden mixing:
  rms(total) = 0.11180E-01    rms(broyden)= 0.11178E-01
  rms(prec ) = 0.13892E-01
  weight for this iteration     100.00

 eigenvalues of (default mixing * dielectric matrix)
  average eigenvalue GAMMA=   0.7500
  2.5627  1.7361  1.2488  1.0260  0.8138  0.4799  0.1265  0.3773  0.3642  0.2767
  0.2767  0.2413  0.2205

 Free energy of the ion-electron system (eV)
  ---------------------------------------------------
  alpha Z        PSCENC =       975.10247152
  Ewald energy   TEWEN  =     91067.79549663
  -Hartree energ DENC   =   -119781.03158316
  -exchange      EXHF   =         0.00000000
  -V(xc)+E(xc)   XCENC  =       177.90588455
  PAW double counting   =     30072.91724005   -29158.58464463
  entropy T*S    EENTRO =        -0.00908451
  eigenvalues    EBANDS =      -843.90250911
  atomic energy  EATOM  =     27259.89416086
  Solvation  Ediel_sol  =         0.00000000
  ---------------------------------------------------
  free energy    TOTEN  =      -229.91256780 eV

  energy without entropy =     -229.90348329  energy(sigma->0) =     -229.90953963


--------------------------------------------------------------------------------------------------------




--------------------------------------- Iteration      1(  19)  ---------------------------------------


    POTLOK:  cpu time    0.1183: real time    0.1190
    SETDIJ:  cpu time    0.0099: real time    0.0100
    EDDIAG:  cpu time    1.2818: real time    1.2900
  RMM-DIIS:  cpu time    2.9694: real time    2.9901
    ORTHCH:  cpu time    0.2225: real time    0.2239
       DOS:  cpu time    0.0011: real time    0.0011
    --------------------------------------------
      LOOP:  cpu time    4.6031: real time    4.6340

 eigenvalue-minimisations  :  1136
 total energy-change (2. order) : 0.4532244E-04  (-0.2778576E-04)
 number of electron     376.0000067 magnetization 
 augmentation part      112.9641440 magnetization 

 Free energy of the ion-electron system (eV)
  ---------------------------------------------------
  alpha Z        PSCENC =       975.10247152
  Ewald energy   TEWEN  =     91067.79549663
  -Hartree energ DENC   =   -119781.84107992
  -exchange      EXHF   =         0.00000000
  -V(xc)+E(xc)   XCENC  =       177.91048480
  PAW double counting   =     30072.86672745   -29158.50292322
  entropy T*S    EENTRO =        -0.00914676
  eigenvalues    EBANDS =      -843.12871385
  atomic energy  EATOM  =     27259.89416086
  Solvation  Ediel_sol  =         0.00000000
  ---------------------------------------------------
  free energy    TOTEN  =      -229.91252248 eV

  energy without entropy =     -229.90337572  energy(sigma->0) =     -229.90947356


--------------------------------------------------------------------------------------------------------




 average (electrostatic) potential at core
  the test charge radii are     0.6991  0.7215  1.2059
  (the norm of the test charge is              1.0000)
       1 -56.2798       2 -74.8442       3 -76.3563       4 -72.3365       5 -72.3229
       6 -72.3161       7 -72.2936       8 -72.3266       9 -72.3014      10 -72.2981
      11 -72.3303      12 -72.2985      13 -72.8888      14 -72.9209      15 -72.9749
      16 -73.0532      17 -73.0300      18 -72.9832      19 -72.9738      20 -73.0257
      21 -73.0131      22 -72.9183      23 -72.9471      24 -72.8643      25 -72.9390
      26 -72.9685      27 -73.0395      28 -73.0128      29 -72.9509      30 -72.9620
      31 -72.2059      32 -72.4722      33 -72.3665      34 -72.3092      35 -72.2973
      36 -73.0833      37 -72.5074      38 -73.1639      39 -72.3244
 
 
 
 E-fermi :   1.1098     XC(G=0):  -6.6357     alpha+bet : -6.8913


 k-point     1 :       0.0000    0.0000    0.0000
  band No.  band energies     occupation 
      1     -22.1944      2.00000
      2     -17.0995      2.00000
      3      -8.3226      2.00000
      4      -8.0988      2.00000
      5      -6.7707      2.00000
      6      -5.9317      2.00000
      7      -5.8607      2.00000
      8      -5.7205      2.00000
      9      -5.7013      2.00000
     10      -5.6762      2.00000
     11      -5.6396      2.00000
     12      -5.6252      2.00000
     13      -5.6131      2.00000
     14      -5.5771      2.00000
     15      -5.3759      2.00000
     16      -5.1502      2.00000
     17      -5.0835      2.00000
     18      -5.0733      2.00000
     19      -5.0444      2.00000
     20      -5.0267      2.00000
     21      -5.0025      2.00000
     22      -4.9774      2.00000
     23      -4.6332      2.00000
     24      -4.5769      2.00000
     25      -4.5509      2.00000
     26      -4.5331      2.00000
     27      -4.5238      2.00000
     28      -4.5068      2.00000
     29      -4.3918      2.00000
     30      -4.3460      2.00000
     31      -4.3236      2.00000
     32      -4.3093      2.00000
     33      -4.2868      2.00000
     34      -4.2174      2.00000
     35      -4.1414      2.00000
     36      -4.1224      2.00000
     37      -4.1124      2.00000
     38      -4.0949      2.00000
     39      -4.0908      2.00000
     40      -4.0816      2.00000
     41      -4.0579      2.00000
     42      -4.0379      2.00000
     43      -4.0095      2.00000
     44      -3.9901      2.00000
     45      -3.9604      2.00000
     46      -3.9118      2.00000
     47      -3.5510      2.00000
     48      -3.4670      2.00000
     49      -3.4287      2.00000
     50      -3.4134      2.00000
     51      -3.3942      2.00000
     52      -3.3821      2.00000
     53      -3.3479      2.00000
     54      -3.3324      2.00000
     55      -3.2986      2.00000
     56      -3.2902      2.00000
     57      -3.2337      2.00000
     58      -3.2109      2.00000
     59      -3.1493      2.00000
     60      -3.0344      2.00000
     61      -2.9846      2.00000
     62      -2.9309      2.00000
     63      -2.8623      2.00000
     64      -2.6091      2.00000
     65      -2.5860      2.00000
     66      -2.5654      2.00000
     67      -2.5166      2.00000
     68      -2.4763      2.00000
     69      -2.4713      2.00000
     70      -2.4555      2.00000
     71      -2.4498      2.00000
     72      -2.4049      2.00000
     73      -2.4034      2.00000
     74      -2.3948      2.00000
     75      -2.3670      2.00000
     76      -2.3557      2.00000
     77      -2.3409      2.00000
     78      -2.3224      2.00000
     79      -2.3100      2.00000
     80      -2.3021      2.00000
     81      -2.2867      2.00000
     82      -2.2744      2.00000
     83      -2.2596      2.00000
     84      -2.2437      2.00000
     85      -2.1634      2.00000
     86      -2.1486      2.00000
     87      -2.1213      2.00000
     88      -2.1088      2.00000
     89      -2.0810      2.00000
     90      -2.0301      2.00000
     91      -2.0203      2.00000
     92      -1.9869      2.00000
     93      -1.9731      2.00000
     94      -1.9443      2.00000
     95      -1.9397      2.00000
     96      -1.9130      2.00000
     97      -1.8436      2.00000
     98      -1.8046      2.00000
     99      -1.7646      2.00000
    100      -1.7223      2.00000
    101      -1.6227      2.00000
    102      -1.6128      2.00000
    103      -1.6055      2.00000
    104      -1.5754      2.00000
    105      -1.5403      2.00000
    106      -1.5336      2.00000
    107      -1.5297      2.00000
    108      -1.4998      2.00000
    109      -1.4859      2.00000
    110      -1.4814      2.00000
    111      -1.4711      2.00000
    112      -1.4185      2.00000
    113      -1.4058      2.00000
    114      -1.2974      2.00000
    115      -1.2114      2.00000
    116      -1.0792      2.00000
    117      -1.0555      2.00000
    118      -1.0279      2.00000
    119      -0.9968      2.00000
    120      -0.9552      2.00000
    121      -0.9018      2.00000
    122      -0.8730      2.00000
    123      -0.8279      2.00000
    124      -0.8153      2.00000
    125      -0.8085      2.00000
    126      -0.7615      2.00000
    127      -0.7299      2.00000
    128      -0.7020      2.00000
    129      -0.6764      2.00000
    130      -0.6684      2.00000
    131      -0.6504      2.00000
    132      -0.6174      2.00000
    133      -0.5829      2.00000
    134      -0.5539      2.00000
    135      -0.4916      2.00000
    136      -0.4394      2.00000
    137      -0.4089      2.00000
    138      -0.3887      2.00000
    139      -0.3647      2.00000
    140      -0.3422      2.00000
    141      -0.2213      2.00000
    142      -0.2093      2.00000
    143      -0.1839      2.00000
    144      -0.1497      2.00000
    145      -0.1377      2.00000
    146      -0.1233      2.00000
    147      -0.0481      2.00000
    148      -0.0178      2.00000
    149       0.0167      2.00000
    150       0.0380      2.00000
    151       0.0919      2.00000
    152       0.0974      2.00000
    153       0.1471      2.00000
    154       0.1601      2.00000
    155       0.1825      2.00000
    156       0.2032      2.00000
    157       0.2538      2.00000
    158       0.2886      2.00000
    159       0.2956      2.00000
    160       0.3017      2.00000
    161       0.3172      2.00000
    162       0.3246      2.00000
    163       0.3405      2.00000
    164       0.3505      2.00000
    165       0.3656      2.00000
    166       0.3873      2.00000
    167       0.4267      2.00002
    168       0.4455      2.00003
    169       0.4832      2.00009
    170       0.5085      2.00018
    171       0.5222      2.00026
    172       0.5371      2.00039
    173       0.6042      2.00204
    174       0.6265      2.00334
    175       0.6308      2.00365
    176       0.6546      2.00593
    177       0.6598      2.00657
    178       0.6934      2.01214
    179       0.7094      2.01588
    180       0.7205      2.01892
    181       0.7605      2.03310
    182       0.7819      2.04250
    183       0.8039      2.05264
    184       0.8199      2.05967
    185       0.8266      2.06231
    186       0.8286      2.06308
    187       0.8414      2.06732
    188       0.8462      2.06856
    189       0.8644      2.07091
    190       0.8696      2.07074
    191       0.8751      2.07006
    192       0.8914      2.06447
    193       0.8962      2.06167
    194       0.9187      2.03986
    195       0.9581      1.95736
    196       1.1027      1.06002
    197       1.1147      0.95915
    198       1.1895      0.38133
    199       1.2132      0.24177
    200       1.2362      0.13233
    201       1.2553      0.06205
    202       1.2655      0.03149
    203       1.2825     -0.00905
    204       1.4134     -0.05369
    205       1.4817     -0.02453
    206       1.9696     -0.00000
    207       2.0249     -0.00000
    208       2.0576     -0.00000
    209       2.0738     -0.00000
    210       2.2176     -0.00000
    211       2.4310     -0.00000
    212       3.5689     -0.00000
    213       3.9623     -0.00000
    214       4.3441     -0.00000
    215       4.3994     -0.00000
    216       4.4348     -0.00000
    217       4.5568     -0.00000
    218       4.8179     -0.00000
    219       5.3504     -0.00000
    220       5.7293     -0.00000
    221       5.8717     -0.00000
    222       5.8856     -0.00000
    223       5.9161     -0.00000
    224       5.9580     -0.00000
    225       6.0052     -0.00000
    226       6.1444     -0.00000
    227       6.5524     -0.00000
    228       6.7597      0.00000

 k-point     2 :       0.5000    0.0000    0.0000
  band No.  band energies     occupation 
      1     -22.1943      2.00000
      2     -17.0992      2.00000
      3      -8.2852      2.00000
      4      -7.2688      2.00000
      5      -7.2484      2.00000
      6      -6.0817      2.00000
      7      -5.9646      2.00000
      8      -5.8858      2.00000
      9      -5.8117      2.00000
     10      -5.7173      2.00000
     11      -5.4754      2.00000
     12      -5.4280      2.00000
     13      -5.2699      2.00000
     14      -5.1986      2.00000
     15      -4.9424      2.00000
     16      -4.9063      2.00000
     17      -4.8879      2.00000
     18      -4.8812      2.00000
     19      -4.8466      2.00000
     20      -4.8377      2.00000
     21      -4.8273      2.00000
     22      -4.8047      2.00000
     23      -4.7815      2.00000
     24      -4.7682      2.00000
     25      -4.7004      2.00000
     26      -4.6962      2.00000
     27      -4.6805      2.00000
     28      -4.6426      2.00000
     29      -4.6143      2.00000
     30      -4.4776      2.00000
     31      -4.3688      2.00000
     32      -4.3609      2.00000
     33      -4.3381      2.00000
     34      -4.2962      2.00000
     35      -4.2783      2.00000
     36      -4.1282      2.00000
     37      -4.0439      2.00000
     38      -3.9895      2.00000
     39      -3.9531      2.00000
     40      -3.9466      2.00000
     41      -3.9241      2.00000
     42      -3.9084      2.00000
     43      -3.8680      2.00000
     44      -3.7885      2.00000
     45      -3.6825      2.00000
     46      -3.6549      2.00000
     47      -3.6212      2.00000
     48      -3.5944      2.00000
     49      -3.5473      2.00000
     50      -3.5409      2.00000
     51      -3.4342      2.00000
     52      -3.4016      2.00000
     53      -3.3418      2.00000
     54      -3.3135      2.00000
     55      -3.3035      2.00000
     56      -3.2669      2.00000
     57      -3.2446      2.00000
     58      -3.2076      2.00000
     59      -3.1822      2.00000
     60      -3.1306      2.00000
     61      -3.0693      2.00000
     62      -3.0398      2.00000
     63      -3.0223      2.00000
     64      -2.9874      2.00000
     65      -2.9348      2.00000
     66      -2.9045      2.00000
     67      -2.8727      2.00000
     68      -2.8664      2.00000
     69      -2.8494      2.00000
     70      -2.7647      2.00000
[...]
     83      -2.2904      2.00000
     84      -2.2813      2.00000
     85      -2.2474      2.00000
     86      -2.2147      2.00000
     87      -2.1942      2.00000
     88      -2.1850      2.00000
     89      -2.1737      2.00000
     90      -2.1604      2.00000
     91      -2.1352      2.00000
     92      -2.0896      2.00000
     93      -2.0711      2.00000
     94      -2.0120      2.00000
     95      -1.9850      2.00000
     96      -1.9581      2.00000
     97      -1.9110      2.00000
     98      -1.8920      2.00000
     99      -1.8727      2.00000
    100      -1.8289      2.00000
    101      -1.7760      2.00000
    102      -1.7683      2.00000
    103      -1.7471      2.00000
    104      -1.7301      2.00000
    105      -1.7155      2.00000
    106      -1.6852      2.00000
    107      -1.6573      2.00000
    108      -1.6421      2.00000
    109      -1.6237      2.00000
    110      -1.5597      2.00000
    111      -1.5188      2.00000
    112      -1.4647      2.00000
    113      -1.4553      2.00000
    114      -1.3957      2.00000
    115      -1.3155      2.00000
    116      -1.2846      2.00000
    117      -1.2189      2.00000
    118      -1.1838      2.00000
    119      -1.1523      2.00000
    120      -1.1143      2.00000
    121      -1.0678      2.00000
    122      -1.0651      2.00000
    123      -1.0380      2.00000
    124      -1.0247      2.00000
    125      -0.9938      2.00000
    126      -0.9813      2.00000
    127      -0.9591      2.00000
    128      -0.9392      2.00000
    129      -0.9178      2.00000
    130      -0.8927      2.00000
    131      -0.8580      2.00000
    132      -0.8282      2.00000
    133      -0.7816      2.00000
    134      -0.7502      2.00000
    135      -0.7341      2.00000
    136      -0.7153      2.00000
    137      -0.6982      2.00000
    138      -0.6705      2.00000
    139      -0.6080      2.00000
    140      -0.5701      2.00000
    141      -0.5072      2.00000
    142      -0.4810      2.00000
    143      -0.4097      2.00000
    144      -0.3023      2.00000
    145      -0.2830      2.00000
    146      -0.2064      2.00000
    147      -0.1928      2.00000
    148      -0.1313      2.00000
    149      -0.1175      2.00000
    150      -0.0687      2.00000
    151      -0.0298      2.00000
    152       0.0319      2.00000
    153       0.0374      2.00000
    154       0.0574      2.00000
    155       0.0832      2.00000
    156       0.0859      2.00000
    157       0.1039      2.00000
    158       0.1560      2.00000
    159       0.1864      2.00000
    160       0.1992      2.00000
    161       0.2373      2.00000
    162       0.2739      2.00000
    163       0.3128      2.00000
    164       0.3425      2.00000
    165       0.3616      2.00000
    166       0.3829      2.00001
    167       0.4891      2.00023
    168       0.5542      2.00123
    169       0.5829      2.00238
    170       0.6135      2.00457
    171       0.6315      2.00655
    172       0.6549      2.01013
    173       0.6881      2.01770
    174       0.7738      2.05170
    175       0.7778      2.05354
    176       0.7995      2.06270
    177       0.8370      2.07092
    178       0.8591      2.06650
    179       0.8981      2.02881
    180       0.9095      2.00815
    181       0.9286      1.96144
    182       0.9913      1.68572
    183       1.0209      1.48930
    184       1.0674      1.12074
    185       1.0796      1.01786
    186       1.0949      0.88889
    187       1.1207      0.67716
    188       1.1371      0.55073
    189       1.1454      0.49076
    190       1.1602      0.38947
    191       1.2965     -0.06239
    192       1.3206     -0.07062
    193       1.3465     -0.06830
    194       1.3824     -0.05503
    195       1.4198     -0.03795
    196       1.4657     -0.02053
    197       1.5891     -0.00196
    198       1.7174     -0.00007
    199       1.8057     -0.00000
    200       1.9879     -0.00000
    201       2.2169     -0.00000
    202       2.3224     -0.00000
    203       2.7493     -0.00000
    204       2.9308     -0.00000
    205       2.9452     -0.00000
    206       2.9806     -0.00000
    207       2.9973     -0.00000
    208       3.2141     -0.00000
    209       3.3797     -0.00000
    210       3.5084     -0.00000
    211       3.5554     -0.00000
    212       3.6026     -0.00000
    213       3.7178     -0.00000
    214       3.8169     -0.00000
    215       3.9582     -0.00000
    216       4.1518     -0.00000
    217       4.2176     -0.00000
    218       4.3875     -0.00000
    219       4.4118     -0.00000
    220       4.5787     -0.00000
    221       4.6726     -0.00000
    222       4.8382     -0.00000
    223       5.1511     -0.00000
    224       5.5257     -0.00000
    225       6.0925     -0.00000
    226       6.5084     -0.00000
    227       6.5595      0.00000
    228       6.5726      0.00000


--------------------------------------------------------------------------------------------------------


 soft charge-density along one line, spin component           1
         0         1         2         3         4         5         6         7         8         9
 total charge-density along one line
 
 pseudopotential strength for first ion, spin component:           1
 10.092   0.015   0.004   0.009   0.001  -0.004  -0.008  -0.000
  0.015  -0.002  -0.000  -0.000  -0.000  -0.000  -0.000   0.000
  0.004  -0.000  -4.245  -0.007   0.001  -0.010  -0.002   0.000
  0.009  -0.000  -0.007  -4.258   0.003  -0.002  -0.015   0.000
  0.001  -0.000   0.001   0.003  -4.242   0.000   0.000  -0.009
 -0.004  -0.000  -0.010  -0.002   0.000  -0.770  -0.000   0.000
 -0.008  -0.000  -0.002  -0.015   0.000  -0.000  -0.770   0.000
 -0.000   0.000   0.000   0.000  -0.009   0.000   0.000  -0.770
 total augmentation occupancy for first ion, spin component:           1
  1.624  -0.841   0.021   0.002  -0.064   0.036   0.080  -0.021
 -0.841   1.174  -0.216  -0.517   0.067  -0.087  -0.216   0.024
  0.021  -0.216   0.852   0.192   0.007   0.116   0.056  -0.006
  0.002  -0.517   0.192   1.298   0.009   0.056   0.240  -0.007
 -0.064   0.067   0.007   0.009   0.790  -0.006  -0.008   0.098
  0.036  -0.087   0.116   0.056  -0.006   0.021   0.022  -0.003
  0.080  -0.216   0.056   0.240  -0.008   0.022   0.067  -0.005
 -0.021   0.024  -0.006  -0.007   0.098  -0.003  -0.005   0.014


------------------------ aborting loop because EDIFF is reached ----------------------------------------


    CHARGE:  cpu time    0.3981: real time    0.4007
    FORLOC:  cpu time    0.0429: real time    0.0432
    FORNL :  cpu time    2.1043: real time    2.1188
    STRESS:  cpu time    6.6049: real time    6.6504
    FORCOR:  cpu time    0.1521: real time    0.1532
    FORHAR:  cpu time    0.0675: real time    0.0680
    MIXING:  cpu time    0.0045: real time    0.0045
    OFIELD:  cpu time    0.0000: real time    0.0000

  FORCE on cell =-STRESS in cart. coord.  units (eV):
  Direction    XX          YY          ZZ          XY          YZ          ZX
  --------------------------------------------------------------------------------------
  Alpha Z   975.10247   975.10247   975.10247
  Ewald  110912.96708110888.65539************  -219.26925   264.37702   -79.96031
  Hartree117664.07452117620.52870************  -143.40675   114.69693   -48.82533
  E(xc)   -1665.68491 -1665.51002 -1673.19490    -0.49854     0.79809    -0.21422
  Local  ************************239210.73490   351.87210  -354.26872   123.29267
  n-local   123.25827   122.20180    89.15447    -1.09218     0.54947     0.31754
  augment  1894.71200  1893.51568  1933.31948     2.66982    -4.33102     0.75464
  Kinetic  5521.42960  5513.57488  5601.81376    10.49538   -22.95796     6.00019
  Fock        0.00000     0.00000     0.00000     0.00000     0.00000     0.00000
  -------------------------------------------------------------------------------------
  Total     -37.01146   -39.21752    -4.98036     0.77059    -1.13619     1.36518
  in kB     -44.08126   -46.70871    -5.93170     0.91778    -1.35322     1.62595
  external pressure =      -32.24 kB  Pullay stress =        0.00 kB


 VOLUME and BASIS-vectors are now :
 -----------------------------------------------------------------------------
  energy-cutoff  :      450.00
  volume of cell :     1345.22
      direct lattice vectors                 reciprocal lattice vectors
     7.296955120 -4.212899000  0.000000000     0.137043463  0.000000000  0.000000000
     0.000000000  8.425798000  0.000000000     0.068521732  0.118683121  0.000000000
     0.000000000  0.000000000 21.879635000     0.000000000  0.000000000  0.045704602

  length of vectors
     8.425798004  8.425798000 21.879635000     0.137043463  0.137043463  0.045704602


 FORCES acting on ions
    electron-ion (+dipol)            ewald-force                    non-local-force                 convergence-correction
 -----------------------------------------------------------------------------------------------
   0.225E+02 0.172E+02 -.883E+03   -.239E+02 -.215E+02 0.873E+03   0.148E+01 0.332E+01 0.105E+02   0.959E-03 -.177E-02 0.215E-01
   -.879E+02 0.491E+02 -.158E+04   0.915E+02 -.462E+02 0.160E+04   -.314E+01 -.260E+01 -.222E+02   0.144E-01 -.189E-01 -.598E-02
   0.549E+02 -.114E+03 -.154E+04   -.615E+02 0.137E+03 0.159E+04   0.678E+01 -.227E+02 -.565E+02   -.598E-02 -.930E-02 0.885E-02
   0.349E+00 0.503E+00 0.234E+04   -.342E+00 -.542E+00 -.234E+04   0.242E-01 -.375E-01 -.120E+01   -.221E-01 0.304E-01 -.393E-01
   0.435E+00 0.790E+00 0.234E+04   -.425E+00 -.727E+00 -.234E+04   -.205E-01 -.243E-01 -.113E+01   -.175E-01 -.789E-01 -.570E-01
   0.403E+00 0.859E+00 0.234E+04   -.453E+00 -.835E+00 -.234E+04   0.190E-01 -.782E-02 -.114E+01   -.416E-02 -.273E-01 -.310E-01
   -.283E+00 0.146E+00 0.234E+04   0.271E+00 -.109E+00 -.234E+04   -.139E-03 0.175E-01 -.118E+01   0.333E-01 0.868E-02 -.394E-01
   0.184E+00 -.193E+00 0.234E+04   -.116E+00 0.121E+00 -.234E+04   0.426E-02 0.283E-01 -.125E+01   -.633E-01 0.667E-01 -.642E-01
   0.137E+00 0.863E-01 0.234E+04   -.174E+00 -.550E-01 -.234E+04   0.150E-01 0.200E-01 -.122E+01   0.473E-01 -.455E-01 -.696E-01
   -.287E+00 -.738E+00 0.234E+04   0.378E+00 0.603E+00 -.234E+04   -.615E-01 0.872E-01 -.106E+01   -.255E-01 0.125E-01 -.340E-01
   -.163E+00 -.909E+00 0.234E+04   0.185E+00 0.894E+00 -.234E+04   -.700E-02 -.273E-01 -.125E+01   -.129E-01 0.729E-01 -.461E-01
   -.707E+00 -.639E+00 0.234E+04   0.675E+00 0.651E+00 -.234E+04   -.180E-01 0.227E-01 -.102E+01   0.646E-01 -.391E-01 -.477E-01
   -.254E+01 -.308E+01 0.852E+03   0.240E+01 0.308E+01 -.852E+03   0.109E+00 0.953E-01 -.348E+00   0.239E-01 -.510E-01 -.498E-01
   -.263E+01 -.212E+01 0.853E+03   0.252E+01 0.210E+01 -.853E+03   0.160E+00 0.572E-01 -.685E-01   -.134E-01 0.411E-01 -.276E-01
   -.116E+01 -.634E+01 0.855E+03   0.122E+01 0.617E+01 -.855E+03   0.214E-01 0.190E+00 -.297E+00   0.120E-01 0.492E-01 -.126E-01
   0.250E+01 0.550E+01 0.861E+03   -.246E+01 -.554E+01 -.861E+03   -.129E-01 -.343E-01 -.412E+00   -.585E-01 0.171E-02 -.314E-02
   0.535E+01 0.651E+01 0.861E+03   -.540E+01 -.643E+01 -.861E+03   -.526E-01 -.616E-01 -.373E+00   0.884E-02 -.968E-01 -.162E-01
   0.207E+01 0.659E+01 0.861E+03   -.210E+01 -.663E+01 -.860E+03   0.135E-01 -.147E-01 -.366E+00   -.103E-01 -.872E-02 -.245E-01
   -.347E+00 -.289E+01 0.861E+03   0.474E+00 0.300E+01 -.861E+03   -.138E+00 -.478E-01 -.365E+00   -.235E-01 0.494E-01 -.512E-01
   0.130E+01 -.364E+01 0.862E+03   -.127E+01 0.364E+01 -.862E+03   -.352E-01 0.398E-02 -.443E+00   -.149E-01 0.556E-01 -.448E-02
   -.420E+01 -.631E+00 0.865E+03   0.420E+01 0.850E+00 -.864E+03   0.568E-01 -.869E-01 -.466E+00   0.758E-01 -.405E-01 -.511E-01
   0.139E+01 0.516E+01 -.632E+03   -.145E+01 -.523E+01 0.631E+03   -.395E-01 0.712E-01 0.591E+00   -.105E-01 -.223E-01 0.596E-01
   -.222E+01 -.303E+01 -.636E+03   0.223E+01 0.313E+01 0.635E+03   0.108E+00 -.124E+00 0.373E+00   -.266E-01 0.147E-01 0.419E-01
   -.110E+01 0.324E+01 -.668E+03   0.815E+00 -.289E+01 0.668E+03   0.174E+00 -.437E+00 -.284E-01   0.338E-01 0.194E-01 -.139E-01
   0.278E+00 0.811E+01 -.654E+03   -.685E+00 -.747E+01 0.654E+03   0.316E+00 -.611E+00 -.293E+00   0.715E-02 0.364E-01 0.889E-01
   0.604E+01 0.383E+01 -.651E+03   -.545E+01 -.396E+01 0.651E+03   -.516E+00 0.149E+00 -.118E+00   -.776E-02 0.177E-02 0.467E-02
   -.783E+01 -.100E+02 -.635E+03   0.773E+01 0.998E+01 0.635E+03   0.790E-01 -.241E-01 0.153E+00   0.324E-01 -.828E-02 0.123E-01
   -.341E+01 -.772E+01 -.619E+03   0.346E+01 0.776E+01 0.618E+03   -.634E-01 -.482E-01 0.655E+00   0.169E-01 0.360E-01 0.819E-01
   0.376E+01 -.110E+01 -.629E+03   -.376E+01 0.105E+01 0.629E+03   0.223E-01 0.746E-01 0.500E+00   -.562E-01 -.138E-01 0.127E+00
   0.163E+01 0.509E+01 -.616E+03   -.171E+01 -.530E+01 0.616E+03   0.104E+00 0.210E+00 0.506E+00   0.140E-01 -.572E-01 0.381E-01
   -.265E+02 -.163E+02 -.216E+04   0.269E+02 0.165E+02 0.216E+04   -.368E+00 -.418E-01 0.120E+01   -.176E-01 -.406E-01 0.119E-01
   0.159E+02 0.213E+02 -.212E+04   -.163E+02 -.219E+02 0.212E+04   0.455E+00 0.757E+00 0.165E+01   0.364E-02 -.196E-01 0.377E-01
   0.272E+02 -.377E+01 -.214E+04   -.276E+02 0.374E+01 0.214E+04   0.305E+00 -.637E-01 0.104E+01   -.326E-01 0.459E-01 0.255E-01
   -.103E+01 0.847E+01 -.218E+04   0.985E+00 -.864E+01 0.218E+04   0.400E-01 0.749E-01 0.913E+00   0.155E-01 0.500E-01 0.359E-01
   0.116E+02 0.183E+02 -.218E+04   -.117E+02 -.185E+02 0.218E+04   0.153E+00 0.171E+00 0.976E+00   -.722E-02 -.590E-02 0.487E-01
   0.718E+02 0.620E+02 -.198E+04   -.747E+02 -.600E+02 0.198E+04   0.247E+01 -.188E+01 -.344E+01   0.270E-01 0.278E-01 0.888E-01
   -.479E+02 -.479E+02 -.204E+04   0.493E+02 0.502E+02 0.204E+04   -.138E+01 -.213E+01 0.266E+01   0.505E-02 -.386E-01 0.258E-01
   -.533E+02 0.885E+02 -.207E+04   0.538E+02 -.893E+02 0.207E+04   -.730E+00 0.997E+00 -.820E+00   0.535E-01 -.821E-02 0.195E-01
   0.759E+01 -.603E+02 -.210E+04   -.755E+01 0.614E+02 0.209E+04   0.575E-01 -.101E+01 0.133E+01   -.359E-01 -.101E-01 0.405E-01
 -----------------------------------------------------------------------------------------------
   -.634E+01 0.258E+02 0.738E+02   -.648E-13 -.149E-12 0.000E+00   0.638E+01 -.257E+02 -.739E+02   0.236E-01 -.222E-01 0.130E+00
 
 
 POSITION                                       TOTAL-FORCE (eV/Angst)
 -----------------------------------------------------------------------------------
      5.11209      0.62050     10.41920         0.055107     -0.956349     -0.061511
      6.63301     -0.49768     10.21121         0.449208      0.315796      0.111650
      4.98955      1.05643     11.49456         0.131232      0.010493     -0.228106
      7.20031     -1.38846      1.62732         0.007349     -0.049649      0.175358
      2.33567      1.42014      1.62732        -0.029697     -0.043477      0.160516
      4.76799      0.01584      1.62732        -0.037409     -0.013247      0.152736
      7.20031      1.42015      1.62732         0.018673      0.060198      0.113287
      2.33567      4.22875      1.62732         0.007715      0.019155      0.132472
      4.76799      2.82445      1.62732         0.023001      0.002902      0.112800
      2.33567      7.03734      1.62732         0.002394     -0.038765      0.074453
      4.76799      5.63304      1.62732         0.000255      0.027244      0.105024
      7.20031      4.22874      1.62732         0.013165     -0.006690      0.053061
      1.52490      0.01584      3.92052        -0.012050      0.031858      0.007468
      3.95722     -1.38846      3.92052         0.029796      0.081974      0.037571
      6.38953     -2.79276      3.92052         0.094270      0.064744     -0.088107
      1.52490      2.82445      3.92052        -0.030377     -0.080009     -0.109127
      3.95722      1.42015      3.92052        -0.095712     -0.082963     -0.097992
      6.38953      0.01585      3.92052        -0.028934     -0.065992     -0.019086
      1.52490      5.63305      3.92052        -0.035969      0.109783     -0.192564
      3.95722      4.22874      3.92052        -0.021806      0.060779     -0.231895
      6.38953      2.82445      3.92052         0.128365      0.088463     -0.339766
      0.72111      4.20868      6.18151        -0.118581     -0.020848      0.165516
      3.12747      5.63716      6.18727         0.086882     -0.017246     -0.042836
      5.58194     -1.36172      6.24535        -0.083346     -0.062517     -0.039984
      0.69810      1.44492      6.22748        -0.086536      0.063766      0.179117
      3.14912      0.00337      6.23229         0.061347      0.014271     -0.112809
      0.70991      7.05063      6.19814         0.014174     -0.096797     -0.140771
      5.58358      4.23444      6.15828         0.002961      0.022476      0.155176
      3.14259      2.81290      6.17960        -0.027665      0.005543      0.129909
      5.57191      1.41358      6.16646         0.030224     -0.069532      0.202409
      2.34539      4.19743      8.48768         0.044471      0.115804     -0.217467
      4.74161      5.58837      8.41740         0.024462      0.194126      0.254353
      2.33674      1.39429      8.50476        -0.091145     -0.054738     -0.153988
      7.19693      4.19356      8.52222         0.008754     -0.041360     -0.138796
      2.32200      7.01136      8.52544         0.062758     -0.088103     -0.159285
      4.68943      0.05863      8.63735        -0.428012      0.187738     -0.170981
      7.24790      1.42108      8.40113         0.000110      0.058789      0.300686
      7.26552     -1.52142      8.65905        -0.232367      0.183286     -0.022427
      4.77341      2.84459      8.43977         0.062931      0.069094     -0.056061
 -----------------------------------------------------------------------------------
    total drift:                                0.068078      0.114178      0.019620
  FORCES: max atom, RMS     0.959908    0.240075
  Number: max atom                 1
  FORCE total and by dimension    1.499268    0.956349


--------------------------------------------------------------------------------------------------------



  FREE ENERGIE OF THE ION-ELECTRON SYSTEM (eV)
  ---------------------------------------------------
  free  energy   TOTEN  =      -230.69326276 eV

  energy  without entropy=     -230.68058843  energy(sigma->0) =     -230.68903798
 
 d Force = 0.3080671E-01[ 0.736E-02, 0.543E-01]  d Energy = 0.3052385E-01 0.283E-03
 d Force =-0.1665777E+02[-0.169E+02,-0.164E+02]  d Ewald  =-0.1665935E+02 0.158E-02


--------------------------------------------------------------------------------------------------------


    POTLOK:  cpu time    0.1304: real time    0.1688


--------------------------------------------------------------------------------------------------------


 stress matrix after NEB project (eV)
    -37.01146      0.77059      1.36518
      0.77059    -39.21752     -1.13619
      1.36518     -1.13619     -4.98036
  FORCES: max atom, RMS     0.959908    0.240075
  FORCE total and by dimension    1.499268    0.956349
  Stress total and by dimension   54.223269   39.217518
 Quasi-Newton relaxation of ions (Broydens 2nd method)
  g(Force)  = 0.434E-01   g(Stress)= 0.000E+00

 retain information from N=  4 steps
 eigenvalues of (default step * inverse Hessian matrix)
  average eigenvalue of G=   2.6366
 eigenvalue spectrum of G is  1.4368  3.3611  3.3611  2.3874
  RESET_HESSIAN           0


--------------------------------------------------------------------------------------------------------


    WAVPRE:  cpu time    0.0621: real time    0.4635
    FEWALD:  cpu time    0.0010: real time    0.0010

 real space projection operators:
  total allocation   :      13552.84 KBytes
  max/ min on nodes  :       6784.61       6768.23

    ORTHCH:  cpu time    0.8780: real time    0.8841
     LOOP+:  cpu time   62.3805: real time   63.4655
