<?xml version="1.0" encoding="ISO-8859-1"?>
<modeling>
 <generator>
  <i name="program" type="string"> vasp </i>
  <i name="version" type="string">5.4.4  </i>
  <i name="subversion" type="string">16052018 (build Apr 24 2014 20:13:14) complex standard parallel Constrained Minimization Technique (TS), Periodic NBO, VASPsol, libbeef, VASP2WANNIER90, Constrained Cell Relaxation </i>
  <i name="platform" type="string">Center for Computational Chemistry </i>
  <i name="user" type="string">phu </i>
  <i name="host" type="string">node06 </i>
  <i name="date" type="string">2025 09 27 </i>
  <i name="time" type="string">23:32:08 </i>
 </generator>
 <incar>
  <i type="string" name="SYSTEM"> metal</i>
  <i type="int" name="ISTART">     0</i>
  <i type="string" name="PREC">normal</i>
  <i type="string" name="ALGO">Fast</i>
  <i type="int" name="NSIM">     4</i>
  <i type="int" name="ISPIN">     1</i>
  <i type="int" name="NELMIN">     8</i>
  <i type="int" name="IBRION">     1</i>
  <i name="EDIFFG">     -0.05000000</i>
  <i type="int" name="NSW">  5000</i>
  <i type="int" name="ISIF">     2</i>
  <i type="int" name="ISYM">     0</i>
  <i name="ENCUT">    450.00000000</i>
  <i name="POTIM">      0.20000000</i>
  <i type="string" name="LREAL">A</i>
  <i type="int" name="ISMEAR">     1</i>
  <i name="SIGMA">      0.20000000</i>
  <i type="logical" name="LWAVE"> F  </i>
  <i type="logical" name="LCHARG"> F  </i>
  <v type="int" name="KPOINT_BSE">    -1     0     0     0</v>
  <i type="int" name="VOSKOWN">     0</i>
 </incar>
 <structure name="primitive_cell" >
  <crystal>
   <varray name="basis" >
    <v>       7.29695512      -4.21289900       0.00000000 </v>
    <v>       0.00000000       8.42579800       0.00000000 </v>
    <v>       0.00000000       0.00000000      21.87963500 </v>
   </varray>
   <i name="volume">   1345.21837528 </i>
   <varray name="rec_basis" >
    <v>       0.13704346       0.00000000       0.00000000 </v>
    <v>       0.06852173       0.11868312       0.00000000 </v>
    <v>       0.00000000       0.00000000       0.04570460 </v>
   </varray>
  </crystal>
  <varray name="positions" >
   <v>      -0.29291235       0.43938656       0.47878891 </v>
   <v>      -0.32104889       0.46624245      -0.47132255 </v>
   <v>      -0.09634030       0.38883328       0.46530098 </v>
   <v>      -0.35325953       0.31955224       0.39128656 </v>
   <v>      -0.34754308      -0.33566984       0.38667409 </v>
   <v>      -0.00542417      -0.33506029       0.38249462 </v>
   <v>       0.32142153       0.32606901       0.39048296 </v>
   <v>      -0.00518043       0.31537458       0.39643162 </v>
   <v>       0.31758800      -0.00573611       0.39017043 </v>
   <v>      -0.34931395      -0.01043282       0.38273717 </v>
   <v>      -0.23831588      -0.44772602       0.27890747 </v>
   <v>      -0.01270699      -0.00760248       0.39100383 </v>
   <v>      -0.23560440       0.21990711       0.28754583 </v>
   <v>       0.42954188       0.21260036       0.28595384 </v>
   <v>       0.31961363      -0.34339200       0.39046226 </v>
   <v>       0.43405966      -0.44935306       0.27912923 </v>
   <v>       0.10097768      -0.44964643       0.28038285 </v>
   <v>       0.09734856      -0.11283762       0.28477129 </v>
   <v>      -0.23623855      -0.11676926       0.27839186 </v>
   <v>       0.42866578      -0.11468777       0.28276237 </v>
   <v>       0.09707149       0.21804818       0.28177932 </v>
   <v>      -0.45768900       0.43970300       0.17918600 </v>
   <v>      -0.12435600       0.43970300       0.17918600 </v>
   <v>      -0.45768900       0.10636900       0.17918600 </v>
   <v>      -0.12435600      -0.22696400       0.17918600 </v>
   <v>       0.20897700       0.10636900       0.17918600 </v>
   <v>      -0.45768900      -0.22696400       0.17918600 </v>
   <v>      -0.12435600       0.10636900       0.17918600 </v>
   <v>       0.20897700      -0.22696400       0.17918600 </v>
   <v>       0.20897700       0.43970300       0.17918600 </v>
   <v>      -0.34657800       0.32859100       0.07437600 </v>
   <v>      -0.34657800      -0.33807500       0.07437600 </v>
   <v>      -0.01324500      -0.33807500       0.07437600 </v>
   <v>       0.32008800       0.32859100       0.07437600 </v>
   <v>      -0.01324500       0.32859100       0.07437600 </v>
   <v>       0.32008800      -0.00474200       0.07437600 </v>
   <v>      -0.34657800      -0.00474200       0.07437600 </v>
   <v>      -0.01324500      -0.00474200       0.07437600 </v>
   <v>       0.32008800      -0.33807500       0.07437600 </v>
  </varray>
 </structure>
 <varray name="primitive_index" >
  <v type="int" >        1 </v>
  <v type="int" >        3 </v>
  <v type="int" >        2 </v>
  <v type="int" >       36 </v>
  <v type="int" >       39 </v>
  <v type="int" >       37 </v>
  <v type="int" >       33 </v>
  <v type="int" >       38 </v>
  <v type="int" >       35 </v>
  <v type="int" >       32 </v>
  <v type="int" >       30 </v>
  <v type="int" >       34 </v>
  <v type="int" >       24 </v>
  <v type="int" >       26 </v>
  <v type="int" >       31 </v>
  <v type="int" >       29 </v>
  <v type="int" >       22 </v>
  <v type="int" >       27 </v>
  <v type="int" >       28 </v>
  <v type="int" >       23 </v>
  <v type="int" >       25 </v>
  <v type="int" >       17 </v>
  <v type="int" >       18 </v>
  <v type="int" >       14 </v>
  <v type="int" >       21 </v>
  <v type="int" >       13 </v>
  <v type="int" >       20 </v>
  <v type="int" >       15 </v>
  <v type="int" >       19 </v>
  <v type="int" >       16 </v>
  <v type="int" >        6 </v>
  <v type="int" >        9 </v>
  <v type="int" >        7 </v>
  <v type="int" >        5 </v>
  <v type="int" >        4 </v>
  <v type="int" >       10 </v>
  <v type="int" >       11 </v>
  <v type="int" >       12 </v>
  <v type="int" >        8 </v>
 </varray>
 <kpoints>
  <generation param="Gamma">
   <v type="int" name="divisions">       2        2        1 </v>
   <v name="usershift">      0.00000000       0.00000000       0.00000000 </v>
   <v name="genvec1">      0.50000000       0.00000000       0.00000000 </v>
   <v name="genvec2">     -0.00000000       0.50000000       0.00000000 </v>
   <v name="genvec3">      0.00000000       0.00000000       1.00000000 </v>
   <v name="shift">      0.00000000       0.00000000       0.00000000 </v>
  </generation>
  <varray name="kpointlist" >
   <v>       0.00000000       0.00000000       0.00000000 </v>
   <v>       0.50000000       0.00000000       0.00000000 </v>
   <v>      -0.00000000       0.50000000       0.00000000 </v>
   <v>       0.50000000       0.50000000       0.00000000 </v>
  </varray>
  <varray name="weights" >
   <v>       0.25000000 </v>
   <v>       0.25000000 </v>
   <v>       0.25000000 </v>
   <v>       0.25000000 </v>
  </varray>
 </kpoints>
 <parameters>
  <separator name="general" >
   <i type="string" name="SYSTEM">metal</i>
   <i type="logical" name="LCOMPAT"> F  </i>
  </separator>
  <separator name="electronic" >
   <i type="string" name="PREC">normal</i>
   <i name="ENMAX">    450.00000000</i>
   <i name="ENAUG">    644.87300000</i>
   <i name="EDIFF">      0.00010000</i>
   <i type="int" name="IALGO">    68</i>
   <i type="int" name="IWAVPR">    11</i>
   <i type="int" name="NBANDS">   228</i>
   <i name="NELECT">    376.00000000</i>
   <i type="int" name="TURBO">     0</i>
   <i type="int" name="IRESTART">     0</i>
   <i type="int" name="NREBOOT">     0</i>
   <i type="int" name="NMIN">     0</i>
   <i name="EREF">      0.00000000</i>
   <separator name="electronic smearing" >
    <i type="int" name="ISMEAR">     1</i>
    <i name="SIGMA">      0.20000000</i>
    <i name="KSPACING">      0.50000000</i>
    <i type="logical" name="KGAMMA"> T  </i>
   </separator>
   <separator name="electronic projectors" >
    <i type="logical" name="LREAL"> T  </i>
    <v name="ROPT">     -0.00050000     -0.00050000     -0.00050000</v>
    <i type="int" name="LMAXPAW">  -100</i>
    <i type="int" name="LMAXMIX">     2</i>
    <i type="logical" name="NLSPLINE"> F  </i>
   </separator>
   <separator name="electronic startup" >
    <i type="int" name="ISTART">     0</i>
    <i type="int" name="ICHARG">     2</i>
    <i type="int" name="INIWAV">     1</i>
   </separator>
   <separator name="electronic spin" >
    <i type="int" name="ISPIN">     1</i>
    <i type="logical" name="LNONCOLLINEAR"> F  </i>
    <v name="MAGMOM">      1.00000000      1.00000000      1.00000000      1.00000000      1.00000000      1.00000000      1.00000000      1.00000000      1.00000000      1.00000000      1.00000000      1.00000000      1.00000000      1.00000000      1.00000000      1.00000000      1.00000000      1.00000000      1.00000000      1.00000000
      1.00000000      1.00000000      1.00000000      1.00000000      1.00000000      1.00000000      1.00000000      1.00000000      1.00000000      1.00000000      1.00000000      1.00000000      1.00000000      1.00000000      1.00000000      1.00000000      1.00000000      1.00000000      1.00000000</v>
    <i name="NUPDOWN">     -1.00000000</i>
    <i type="logical" name="LSORBIT"> F  </i>
    <v name="SAXIS">      0.00000000      0.00000000      1.00000000</v>
    <i type="logical" name="LSPIRAL"> F  </i>
    <v name="QSPIRAL">      0.00000000      0.00000000      0.00000000</v>
    <i type="logical" name="LZEROZ"> F  </i>
   </separator>
   <separator name="electronic exchange-correlation" >
    <i type="logical" name="LASPH"> F  </i>
    <i type="logical" name="LMETAGGA"> F  </i>
   </separator>
   <separator name="electronic convergence" >
    <i type="int" name="NELM">    60</i>
    <i type="int" name="NELMDL">    -5</i>
    <i type="int" name="NELMIN">     8</i>
    <i name="ENINI">    450.00000000</i>
    <separator name="electronic convergence detail" >
     <i type="logical" name="LDIAG"> T  </i>
     <i type="logical" name="LSUBROT"> F  </i>
     <i name="WEIMIN">      0.00100000</i>
     <i name="EBREAK">      0.00000011</i>
     <i name="DEPER">      0.30000000</i>
     <i type="int" name="NRMM">     4</i>
     <i name="TIME">      0.40000000</i>
    </separator>
   </separator>
   <separator name="electronic mixer" >
    <i name="AMIX">      0.40000000</i>
    <i name="BMIX">      1.00000000</i>
    <i name="AMIN">      0.10000000</i>
    <i name="AMIX_MAG">      1.60000000</i>
    <i name="BMIX_MAG">      1.00000000</i>
    <separator name="electronic mixer details" >
     <i type="int" name="IMIX">     4</i>
     <i type="logical" name="MIXFIRST"> F  </i>
     <i type="int" name="MAXMIX">   -45</i>
     <i name="WC">    100.00000000</i>
     <i type="int" name="INIMIX">     1</i>
     <i type="int" name="MIXPRE">     1</i>
     <i type="int" name="MREMOVE">     5</i>
    </separator>
   </separator>
   <separator name="electronic dipolcorrection" >
    <i type="logical" name="LDIPOL"> F  </i>
    <i type="logical" name="LMONO"> F  </i>
    <i type="int" name="IDIPOL">     0</i>
    <i name="EPSILON">      1.00000000</i>
    <v name="DIPOL">   -100.00000000   -100.00000000   -100.00000000</v>
    <i name="EFIELD">      0.00000000</i>
   </separator>
  </separator>
  <separator name="grids" >
   <i type="int" name="NGX">    48</i>
   <i type="int" name="NGY">    48</i>
   <i type="int" name="NGZ">   120</i>
   <i type="int" name="NGXF">    96</i>
   <i type="int" name="NGYF">    96</i>
   <i type="int" name="NGZF">   240</i>
   <i type="logical" name="ADDGRID"> F  </i>
  </separator>
  <separator name="ionic" >
   <i type="int" name="NSW">  5000</i>
   <i type="int" name="IBRION">     1</i>
   <i type="int" name="MDALGO">     0</i>
   <i type="int" name="ISIF">     2</i>
   <i name="PSTRESS">      0.00000000</i>
   <i name="EDIFFG">     -0.05000000</i>
   <i type="int" name="NFREE">     0</i>
   <i name="POTIM">      0.20000000</i>
   <i name="SMASS">     -3.00000000</i>
   <i name="SCALEE">      1.00000000</i>
  </separator>
  <separator name="ionic md" >
   <i name="TEBEG">      0.00010000</i>
   <i name="TEEND">      0.00010000</i>
   <i type="int" name="NBLOCK">     1</i>
   <i type="int" name="KBLOCK">  5000</i>
   <i type="int" name="NPACO">   256</i>
   <i name="APACO">     16.00000000</i>
  </separator>
  <separator name="symmetry" >
   <i type="int" name="ISYM">     0</i>
   <i name="SYMPREC">      0.00001000</i>
  </separator>
  <separator name="dos" >
   <i type="int" name="LORBIT">     0</i>
   <v name="RWIGS">     -1.00000000     -1.00000000     -1.00000000</v>
   <i type="int" name="NEDOS">   301</i>
   <i name="EMIN">     10.00000000</i>
   <i name="EMAX">    -10.00000000</i>
   <i name="EFERMI">      0.00000000</i>
  </separator>
  <separator name="writing" >
   <i type="int" name="NWRITE">     2</i>
   <i type="logical" name="LWAVE"> F  </i>
   <i type="logical" name="LDOWNSAMPLE"> F  </i>
   <i type="logical" name="LCHARG"> F  </i>
   <i type="logical" name="LPARD"> F  </i>
   <i type="logical" name="LVTOT"> F  </i>
   <i type="logical" name="LVHAR"> F  </i>
   <i type="logical" name="LELF"> F  </i>
   <i type="logical" name="LOPTICS"> F  </i>
   <v name="STM">      0.00000000      0.00000000      0.00000000      0.00000000      0.00000000      0.00000000      0.00000000</v>
  </separator>
  <separator name="performance" >
   <i type="int" name="NPAR">     4</i>
   <i type="int" name="NSIM">     4</i>
   <i type="int" name="NBLK">    -1</i>
   <i type="logical" name="LPLANE"> T  </i>
   <i type="logical" name="LSCALAPACK"> T  </i>
   <i type="logical" name="LSCAAWARE"> F  </i>
   <i type="logical" name="LSCALU"> F  </i>
   <i type="logical" name="LASYNC"> F  </i>
   <i type="logical" name="LORBITALREAL"> F  </i>
  </separator>
  <separator name="miscellaneous" >
   <i type="int" name="IDIOT">     3</i>
   <i type="int" name="ISPECIAL">     0</i>
   <i type="logical" name="LMUSIC"> F  </i>
   <v name="POMASS">     12.01100000     16.00000000    195.08000000</v>
   <v name="DARWINR">      0.00000000      0.00000000      0.00000000</v>
   <v name="DARWINV">      1.00000000      1.00000000      1.00000000</v>
   <i type="logical" name="LCORR"> T  </i>
  </separator>
  <i type="logical" name="GGA_COMPAT"> T  </i>
  <i type="logical" name="LBERRY"> F  </i>
  <i type="int" name="ICORELEVEL">     0</i>
  <i type="logical" name="LDAU"> F  </i>
  <i type="int" name="I_CONSTRAINED_M">     0</i>
  <separator name="electronic exchange-correlation" >
   <i type="string" name="GGA">--</i>
   <i type="int" name="VOSKOWN">     0</i>
   <i type="logical" name="LHFCALC"> F  </i>
   <i type="string" name="PRECFOCK"></i>
   <i type="logical" name="LSYMGRAD"> F  </i>
   <i type="logical" name="LHFONE"> F  </i>
   <i type="logical" name="LRHFCALC"> F  </i>
   <i type="logical" name="LTHOMAS"> F  </i>
   <i type="logical" name="LMODELHF"> F  </i>
   <i name="ENCUT4O">     -1.00000000</i>
   <i type="int" name="EXXOEP">     0</i>
   <i type="int" name="FOURORBIT">     0</i>
   <i name="AEXX">      0.00000000</i>
   <i name="HFALPHA">      0.00000000</i>
   <i name="MCALPHA">      0.00000000</i>
   <i name="ALDAX">      1.00000000</i>
   <i name="AGGAX">      1.00000000</i>
   <i name="ALDAC">      1.00000000</i>
   <i name="AGGAC">      1.00000000</i>
   <i type="int" name="NKREDX">     1</i>
   <i type="int" name="NKREDY">     1</i>
   <i type="int" name="NKREDZ">     1</i>
   <i type="logical" name="SHIFTRED"> F  </i>
   <i type="logical" name="ODDONLY"> F  </i>
   <i type="logical" name="EVENONLY"> F  </i>
   <i type="int" name="LMAXFOCK">     0</i>
   <i type="int" name="NMAXFOCKAE">     0</i>
   <i type="logical" name="LFOCKAEDFT"> F  </i>
   <i name="HFSCREEN">      0.00000000</i>
   <i name="HFSCREENC">      0.00000000</i>
   <i type="int" name="NBANDSGWLOW">     0</i>
  </separator>
  <separator name="vdW DFT" >
   <i type="logical" name="LUSE_VDW"> F  </i>
   <i name="Zab_VDW">     -0.84910000</i>
   <i name="PARAM1">      0.12340000</i>
   <i name="PARAM2">      1.00000000</i>
   <i name="PARAM3">      0.00000000</i>
  </separator>
  <separator name="model GW" >
   <i type="int" name="MODEL_GW">     0</i>
   <i name="MODEL_EPS0">     20.69566731</i>
   <i name="MODEL_ALPHA">      1.00000000</i>
  </separator>
  <separator name="linear response parameters" >
   <i type="logical" name="LEPSILON"> F  </i>
   <i type="logical" name="LRPA"> F  </i>
   <i type="logical" name="LNABLA"> F  </i>
   <i type="logical" name="LVEL"> F  </i>
   <i type="int" name="KINTER">     0</i>
   <i name="CSHIFT">      0.10000000</i>
   <i name="OMEGAMAX">     -1.00000000</i>
   <i name="DEG_THRESHOLD">      0.00200000</i>
   <i name="RTIME">     -0.10000000</i>
   <i name="WPLASMAI">      0.00000000</i>
   <v name="DFIELD">      0.00000000      0.00000000      0.00000000</v>
   <v name="WPLASMA">      0.00000000      0.00000000      0.00000000      0.00000000      0.00000000      0.00000000      0.00000000      0.00000000      0.00000000</v>
  </separator>
  <separator name="orbital magnetization" >
   <i type="logical" name="NUCIND"> F  </i>
   <v name="MAGPOS">      0.00000000      0.00000000      0.00000000</v>
   <i type="logical" name="LNICSALL"> T  </i>
   <i type="logical" name="ORBITALMAG"> F  </i>
   <i type="logical" name="LMAGBLOCH"> F  </i>
   <i type="logical" name="LCHIMAG"> F  </i>
   <i type="logical" name="LGAUGE"> T  </i>
   <i type="int" name="MAGATOM">     0</i>
   <v name="MAGDIPOL">      0.00000000      0.00000000      0.00000000</v>
   <v name="AVECCONST">      0.00000000      0.00000000      0.00000000</v>
  </separator>
  <separator name="response functions" >
   <i type="logical" name="LADDER"> F  </i>
   <i type="logical" name="LRPAFORCE"> F  </i>
   <i type="logical" name="LFXC"> F  </i>
   <i type="logical" name="LHARTREE"> T  </i>
   <i type="int" name="IBSE">     0</i>
   <v type="int" name="KPOINT">    -1     0     0     0</v>
   <i type="logical" name="LTCTE"> F  </i>
   <i type="logical" name="LTETE"> F  </i>
   <i type="logical" name="LTRIPLET"> F  </i>
   <i type="logical" name="LFXCEPS"> F  </i>
   <i type="logical" name="LFXHEG"> F  </i>
   <i type="int" name="NATURALO">     2</i>
   <i type="logical" name="L2ORDER"> F  </i>
   <i type="logical" name="LMP2LT"> F  </i>
   <i type="logical" name="LUSEW"> F  </i>
   <i name="ENCUTGW">     -2.00000000</i>
   <i name="ENCUTGWSOFT">     -2.00000000</i>
   <i name="ENCUTLF">     -1.00000000</i>
   <i type="int" name="LMAXMP2">    -1</i>
   <i name="SCISSOR">      0.00000000</i>
   <i type="int" name="NOMEGA">     0</i>
   <i type="int" name="NOMEGAR">     0</i>
   <i type="int" name="NBANDSGW">    -1</i>
   <i type="int" name="NBANDSO">    -1</i>
   <i type="int" name="NBANDSV">    -1</i>
   <i type="int" name="NELM">     1</i>
   <i type="int" name="NELMHF">     1</i>
   <i type="int" name="DIM">     3</i>
   <i type="int" name="ANTIRES">     0</i>
   <i name="OMEGAMAX">    -30.00000000</i>
   <i name="OMEGAMIN">    -30.00000000</i>
   <i name="OMEGATL">   -200.00000000</i>
   <i type="int" name="OMEGAGRID">   140</i>
   <i name="CSHIFT">     -0.10000000</i>
   <i type="logical" name="SELFENERGY"> F  </i>
   <i type="logical" name="LSPECTRAL"> F  </i>
   <i type="logical" name="LSPECTRALGW"> F  </i>
   <i type="logical" name="LSINGLES"> F  </i>
   <i type="logical" name="LFERMIGW"> F  </i>
   <i type="logical" name="ODDONLYGW"> F  </i>
   <i type="logical" name="EVENONLYGW"> F  </i>
   <i type="int" name="NKREDLFX">     1</i>
   <i type="int" name="NKREDLFY">     1</i>
   <i type="int" name="NKREDLFZ">     1</i>
   <i type="int" name="MAXMEM">  2800</i>
   <i type="int" name="TELESCOPE">     0</i>
   <i type="int" name="TAUPAR">     1</i>
   <i type="int" name="OMEGAPAR">    -1</i>
   <i name="LAMBDA">      1.00000000</i>
  </separator>
  <separator name="External order field" >
   <i name="OFIELD_KAPPA">      0.00000000</i>
   <v name="OFIELD_K">      0.00000000      0.00000000      0.00000000</v>
   <i name="OFIELD_Q6_NEAR">      0.00000000</i>
   <i name="OFIELD_Q6_FAR">      0.00000000</i>
   <i name="OFIELD_A">      0.00000000</i>
  </separator>
  <separator name="solvation model" >
   <i type="logical" name="LSOL"> F  </i>
  </separator>
 </parameters>
 <atominfo>
  <atoms>      39 </atoms>
  <types>       3 </types>
  <array name="atoms" >
   <dimension dim="1">ion</dimension>
   <field type="string">element</field>
   <field type="int">atomtype</field>
   <set>
    <rc><c>C </c><c>   1</c></rc>
    <rc><c>O </c><c>   2</c></rc>
    <rc><c>O </c><c>   2</c></rc>
    <rc><c>Pt</c><c>   3</c></rc>
    <rc><c>Pt</c><c>   3</c></rc>
    <rc><c>Pt</c><c>   3</c></rc>
    <rc><c>Pt</c><c>   3</c></rc>
    <rc><c>Pt</c><c>   3</c></rc>
    <rc><c>Pt</c><c>   3</c></rc>
    <rc><c>Pt</c><c>   3</c></rc>
    <rc><c>Pt</c><c>   3</c></rc>
    <rc><c>Pt</c><c>   3</c></rc>
    <rc><c>Pt</c><c>   3</c></rc>
    <rc><c>Pt</c><c>   3</c></rc>
    <rc><c>Pt</c><c>   3</c></rc>
    <rc><c>Pt</c><c>   3</c></rc>
    <rc><c>Pt</c><c>   3</c></rc>
    <rc><c>Pt</c><c>   3</c></rc>
    <rc><c>Pt</c><c>   3</c></rc>
    <rc><c>Pt</c><c>   3</c></rc>
    <rc><c>Pt</c><c>   3</c></rc>
    <rc><c>Pt</c><c>   3</c></rc>
    <rc><c>Pt</c><c>   3</c></rc>
    <rc><c>Pt</c><c>   3</c></rc>
    <rc><c>Pt</c><c>   3</c></rc>
    <rc><c>Pt</c><c>   3</c></rc>
    <rc><c>Pt</c><c>   3</c></rc>
    <rc><c>Pt</c><c>   3</c></rc>
    <rc><c>Pt</c><c>   3</c></rc>
    <rc><c>Pt</c><c>   3</c></rc>
    <rc><c>Pt</c><c>   3</c></rc>
    <rc><c>Pt</c><c>   3</c></rc>
    <rc><c>Pt</c><c>   3</c></rc>
    <rc><c>Pt</c><c>   3</c></rc>
    <rc><c>Pt</c><c>   3</c></rc>
    <rc><c>Pt</c><c>   3</c></rc>
    <rc><c>Pt</c><c>   3</c></rc>
    <rc><c>Pt</c><c>   3</c></rc>
    <rc><c>Pt</c><c>   3</c></rc>
   </set>
  </array>
  <array name="atomtypes" >
   <dimension dim="1">type</dimension>
   <field type="int">atomspertype</field>
   <field type="string">element</field>
   <field>mass</field>
   <field>valence</field>
   <field type="string">pseudopotential</field>
   <set>
    <rc><c>   1</c><c>C </c><c>     12.01100000</c><c>      4.00000000</c><c> PAW_PBE C 08Apr2002                    </c></rc>
    <rc><c>   2</c><c>O </c><c>     16.00000000</c><c>      6.00000000</c><c> PAW_PBE O 08Apr2002                    </c></rc>
    <rc><c>  36</c><c>Pt</c><c>    195.08000000</c><c>     10.00000000</c><c>  PAW_PBE Pt 04Feb2005                  </c></rc>
   </set>
  </array>
 </atominfo>
 <structure name="initialpos" >
  <crystal>
   <varray name="basis" >
    <v>       7.29695512      -4.21289900       0.00000000 </v>
    <v>       0.00000000       8.42579800       0.00000000 </v>
    <v>       0.00000000       0.00000000      21.87963500 </v>
   </varray>
   <i name="volume">   1345.21837528 </i>
   <varray name="rec_basis" >
    <v>       0.13704346       0.00000000       0.00000000 </v>
    <v>       0.06852173       0.11868312       0.00000000 </v>
    <v>       0.00000000       0.00000000       0.04570460 </v>
   </varray>
  </crystal>
  <varray name="positions" >
   <v>       0.70708765       0.43938656       0.47878891 </v>
   <v>       0.90365970       0.38883328       0.46530098 </v>
   <v>       0.67895111       0.46624245       0.52867745 </v>
   <v>       0.98675500       0.32859100       0.07437600 </v>
   <v>       0.32008800       0.32859100       0.07437600 </v>
   <v>       0.65342200       0.32859100       0.07437600 </v>
   <v>       0.98675500       0.66192500       0.07437600 </v>
   <v>       0.32008800       0.66192500       0.07437600 </v>
   <v>       0.65342200       0.66192500       0.07437600 </v>
   <v>       0.32008800       0.99525800       0.07437600 </v>
   <v>       0.65342200       0.99525800       0.07437600 </v>
   <v>       0.98675500       0.99525800       0.07437600 </v>
   <v>       0.20897700       0.10636900       0.17918600 </v>
   <v>       0.54231100       0.10636900       0.17918600 </v>
   <v>       0.87564400       0.10636900       0.17918600 </v>
   <v>       0.20897700       0.43970300       0.17918600 </v>
   <v>       0.54231100       0.43970300       0.17918600 </v>
   <v>       0.87564400       0.43970300       0.17918600 </v>
   <v>       0.20897700       0.77303600       0.17918600 </v>
   <v>       0.54231100       0.77303600       0.17918600 </v>
   <v>       0.87564400       0.77303600       0.17918600 </v>
   <v>       0.10097768       0.55035357       0.28038285 </v>
   <v>       0.42866578       0.88531223       0.28276237 </v>
   <v>       0.76439560       0.21990711       0.28754583 </v>
   <v>       0.09707149       0.21804818       0.28177932 </v>
   <v>       0.42954188       0.21260036       0.28595384 </v>
   <v>       0.09734856       0.88716238       0.28477129 </v>
   <v>       0.76376145       0.88323074       0.27839186 </v>
   <v>       0.43405966       0.55064694       0.27912923 </v>
   <v>       0.76168412       0.55227398       0.27890747 </v>
   <v>       0.31961363       0.65660800       0.39046226 </v>
   <v>       0.65068605       0.98956718       0.38273717 </v>
   <v>       0.32142153       0.32606901       0.39048296 </v>
   <v>       0.98729301       0.99239752       0.39100383 </v>
   <v>       0.31758800       0.99426389       0.39017043 </v>
   <v>       0.64674047       0.31955224       0.39128656 </v>
   <v>       0.99457583       0.66493971       0.38249462 </v>
   <v>       0.99481957       0.31537458       0.39643162 </v>
   <v>       0.65245692       0.66433016       0.38667409 </v>
  </varray>
  <varray name="selective"  type="logical" >
   <v type="logical" >  T  T  T </v>
   <v type="logical" >  T  T  T </v>
   <v type="logical" >  T  T  T </v>
   <v type="logical" >  F  F  F </v>
   <v type="logical" >  F  F  F </v>
   <v type="logical" >  F  F  F </v>
   <v type="logical" >  F  F  F </v>
   <v type="logical" >  F  F  F </v>
   <v type="logical" >  F  F  F </v>
   <v type="logical" >  F  F  F </v>
   <v type="logical" >  F  F  F </v>
   <v type="logical" >  F  F  F </v>
   <v type="logical" >  F  F  F </v>
   <v type="logical" >  F  F  F </v>
   <v type="logical" >  F  F  F </v>
   <v type="logical" >  F  F  F </v>
   <v type="logical" >  F  F  F </v>
   <v type="logical" >  F  F  F </v>
   <v type="logical" >  F  F  F </v>
   <v type="logical" >  F  F  F </v>
   <v type="logical" >  F  F  F </v>
   <v type="logical" >  T  T  T </v>
   <v type="logical" >  T  T  T </v>
   <v type="logical" >  T  T  T </v>
   <v type="logical" >  T  T  T </v>
   <v type="logical" >  T  T  T </v>
   <v type="logical" >  T  T  T </v>
   <v type="logical" >  T  T  T </v>
   <v type="logical" >  T  T  T </v>
   <v type="logical" >  T  T  T </v>
   <v type="logical" >  T  T  T </v>
   <v type="logical" >  T  T  T </v>
   <v type="logical" >  T  T  T </v>
   <v type="logical" >  T  T  T </v>
   <v type="logical" >  T  T  T </v>
   <v type="logical" >  T  T  T </v>
   <v type="logical" >  T  T  T </v>
   <v type="logical" >  T  T  T </v>
   <v type="logical" >  T  T  T </v>
  </varray>
  <nose>
   <v>      -3.00000000       0.00000000       0.00010000       0.00010000 </v>
  </nose>
 </structure>
 <calculation>
  <scstep>
   <time name="dav">    8.25    8.31</time>
   <time name="total">    8.40    8.51</time>
   <energy>
    <i name="alphaZ">    975.10247152 </i>
    <i name="ewald">  91067.79549663 </i>
    <i name="hartreedc">-120160.54470230 </i>
    <i name="XCdc">    189.36096944 </i>
    <i name="pawpsdc">  24789.08602224 </i>
    <i name="pawaedc"> -23775.73976456 </i>
    <i name="eentropy">      0.01975917 </i>
    <i name="bandstr">   2073.51638125 </i>
    <i name="atom">  27259.89416086 </i>
    <i name="e_fr_energy">   2418.49079425 </i>
    <i name="e_wo_entrp">   2418.47103508 </i>
    <i name="e_0_energy">   2418.48420786 </i>
   </energy>
  </scstep>
  <scstep>
   <time name="dav">    9.02    9.08</time>
   <time name="total">    9.02    9.08</time>
   <energy>
    <i name="e_fr_energy">    -63.91041153 </i>
    <i name="e_wo_entrp">    -63.88417152 </i>
    <i name="e_0_energy">    -63.90166486 </i>
   </energy>
  </scstep>
  <scstep>
   <time name="dav">    9.17    9.23</time>
   <time name="total">    9.17    9.23</time>
   <energy>
    <i name="e_fr_energy">   -240.39437881 </i>
    <i name="e_wo_entrp">   -240.37784337 </i>
    <i name="e_0_energy">   -240.38886700 </i>
   </energy>
  </scstep>
  <scstep>
   <time name="dav">    9.82    9.89</time>
   <time name="total">    9.82    9.89</time>
   <energy>
    <i name="e_fr_energy">   -247.69021624 </i>
    <i name="e_wo_entrp">   -247.67414453 </i>
    <i name="e_0_energy">   -247.68485900 </i>
   </energy>
  </scstep>
  <scstep>
   <time name="dav">   10.68   10.76</time>
   <time name="total">   11.09   11.17</time>
   <energy>
    <i name="e_fr_energy">   -247.92149671 </i>
    <i name="e_wo_entrp">   -247.90524612 </i>
    <i name="e_0_energy">   -247.91607984 </i>
   </energy>
  </scstep>
  <scstep>
   <time name="diag">    1.37    1.38</time>
   <time name="diis">    4.54    4.57</time>
   <time name="orth">    0.23    0.23</time>
   <time name="total">    6.72    6.76</time>
   <energy>
    <i name="e_fr_energy">   -245.14570271 </i>
    <i name="e_wo_entrp">   -244.91865954 </i>
    <i name="e_0_energy">   -245.07002165 </i>
   </energy>
  </scstep>
  <scstep>
   <time name="diag">    1.30    1.31</time>
   <time name="diis">    4.96    5.00</time>
   <time name="orth">    0.23    0.23</time>
   <time name="total">    7.06    7.11</time>
   <energy>
    <i name="e_fr_energy">   -240.10478664 </i>
    <i name="e_wo_entrp">   -239.99136954 </i>
    <i name="e_0_energy">   -240.06698094 </i>
   </energy>
  </scstep>
  <scstep>
   <time name="diag">    1.39    1.39</time>
   <time name="diis">    4.96    5.00</time>
   <time name="orth">    0.23    0.23</time>
   <time name="total">    7.13    7.19</time>
   <energy>
    <i name="e_fr_energy">   -243.76273388 </i>
    <i name="e_wo_entrp">   -243.75025598 </i>
    <i name="e_0_energy">   -243.75857458 </i>
   </energy>
  </scstep>
  <scstep>
   <time name="diag">    1.39    1.40</time>
   <time name="diis">    5.45    5.49</time>
   <time name="orth">    0.23    0.23</time>
   <time name="total">    7.65    7.70</time>
   <energy>
    <i name="e_fr_energy">   -231.10325710 </i>
    <i name="e_wo_entrp">   -231.09926695 </i>
    <i name="e_0_energy">   -231.10192705 </i>
   </energy>
  </scstep>
  <scstep>
   <time name="diag">    1.53    1.54</time>
   <time name="diis">    5.30    5.34</time>
   <time name="orth">    0.22    0.22</time>
   <time name="total">    7.57    7.62</time>
   <energy>
    <i name="e_fr_energy">   -230.30517160 </i>
    <i name="e_wo_entrp">   -230.28699359 </i>
    <i name="e_0_energy">   -230.29911226 </i>
   </energy>
  </scstep>
  <scstep>
   <time name="diag">    1.21    1.22</time>
   <time name="diis">    4.33    4.36</time>
   <time name="orth">    0.21    0.22</time>
   <time name="total">    6.28    6.32</time>
   <energy>
    <i name="e_fr_energy">   -230.01735079 </i>
    <i name="e_wo_entrp">   -230.01179836 </i>
    <i name="e_0_energy">   -230.01549998 </i>
   </energy>
  </scstep>
  <scstep>
   <time name="diag">    1.37    1.38</time>
   <time name="diis">    4.77    4.80</time>
   <time name="orth">    0.21    0.21</time>
   <time name="total">    6.83    6.87</time>
   <energy>
    <i name="e_fr_energy">   -229.98911205 </i>
    <i name="e_wo_entrp">   -229.97208713 </i>
    <i name="e_0_energy">   -229.98343708 </i>
   </energy>
  </scstep>
  <scstep>
   <time name="diag">    1.20    1.21</time>
   <time name="diis">    4.48    4.51</time>
   <time name="orth">    0.23    0.23</time>
   <time name="total">    6.44    6.48</time>
   <energy>
    <i name="e_fr_energy">   -229.96046095 </i>
    <i name="e_wo_entrp">   -229.94402928 </i>
    <i name="e_0_energy">   -229.95498373 </i>
   </energy>
  </scstep>
  <scstep>
   <time name="diag">    1.28    1.29</time>
   <time name="diis">    4.56    4.60</time>
   <time name="orth">    0.23    0.23</time>
   <time name="total">    6.60    6.65</time>
   <energy>
    <i name="e_fr_energy">   -229.92293606 </i>
    <i name="e_wo_entrp">   -229.92110661 </i>
    <i name="e_0_energy">   -229.92232624 </i>
   </energy>
  </scstep>
  <scstep>
   <time name="diag">    1.29    1.30</time>
   <time name="diis">    4.54    4.57</time>
   <time name="orth">    0.22    0.22</time>
   <time name="total">    6.57    6.62</time>
   <energy>
    <i name="e_fr_energy">   -229.91600177 </i>
    <i name="e_wo_entrp">   -229.90724985 </i>
    <i name="e_0_energy">   -229.91308447 </i>
   </energy>
  </scstep>
  <scstep>
   <time name="diag">    1.27    1.28</time>
   <time name="diis">    4.34    4.37</time>
   <time name="orth">    0.22    0.22</time>
   <time name="total">    6.35    6.40</time>
   <energy>
    <i name="e_fr_energy">   -229.91263098 </i>
    <i name="e_wo_entrp">   -229.90422124 </i>
    <i name="e_0_energy">   -229.90982773 </i>
   </energy>
  </scstep>
  <scstep>
   <time name="diag">    1.20    1.21</time>
   <time name="diis">    4.40    4.43</time>
   <time name="orth">    0.22    0.22</time>
   <time name="total">    6.33    6.38</time>
   <energy>
    <i name="e_fr_energy">   -229.91241368 </i>
    <i name="e_wo_entrp">   -229.90407417 </i>
    <i name="e_0_energy">   -229.90963384 </i>
   </energy>
  </scstep>
  <scstep>
   <time name="diag">    1.17    1.18</time>
   <time name="diis">    3.78    3.80</time>
   <time name="orth">    0.21    0.21</time>
   <time name="total">    5.67    5.71</time>
   <energy>
    <i name="e_fr_energy">   -229.91256780 </i>
    <i name="e_wo_entrp">   -229.90348329 </i>
    <i name="e_0_energy">   -229.90953963 </i>
   </energy>
  </scstep>
  <scstep>
   <time name="diag">    1.28    1.29</time>
   <time name="diis">    2.97    2.99</time>
   <time name="orth">    0.22    0.22</time>
   <time name="total">    4.60    4.63</time>
   <energy>
    <i name="alphaZ">    975.10247152 </i>
    <i name="ewald">  91067.79549663 </i>
    <i name="hartreedc">-119781.84107992 </i>
    <i name="XCdc">    177.91048480 </i>
    <i name="pawpsdc">  30072.86672745 </i>
    <i name="pawaedc"> -29158.50292322 </i>
    <i name="eentropy">     -0.00914676 </i>
    <i name="bandstr">   -843.12871385 </i>
    <i name="atom">  27259.89416086 </i>
    <i name="e_fr_energy">   -229.91252248 </i>
    <i name="e_wo_entrp">   -229.90337572 </i>
    <i name="e_0_energy">   -229.90947356 </i>
   </energy>
  </scstep>
  <structure>
   <crystal>
    <varray name="basis" >
     <v>       7.29695512      -4.21289900       0.00000000 </v>
     <v>       0.00000000       8.42579800       0.00000000 </v>
     <v>       0.00000000       0.00000000      21.87963500 </v>
    </varray>
    <i name="volume">   1345.21837528 </i>
    <varray name="rec_basis" >
     <v>       0.13704346       0.00000000       0.00000000 </v>
     <v>       0.06852173       0.11868312       0.00000000 </v>
     <v>       0.00000000       0.00000000       0.04570460 </v>
    </varray>
   </crystal>
   <varray name="positions" >
    <v>       0.70708765       0.43938656       0.47878891 </v>
    <v>       0.90365970       0.38883328       0.46530098 </v>
    <v>       0.67895111       0.46624245       0.52867745 </v>
    <v>       0.98675500       0.32859100       0.07437600 </v>
    <v>       0.32008800       0.32859100       0.07437600 </v>
    <v>       0.65342200       0.32859100       0.07437600 </v>
    <v>       0.98675500       0.66192500       0.07437600 </v>
    <v>       0.32008800       0.66192500       0.07437600 </v>
    <v>       0.65342200       0.66192500       0.07437600 </v>
    <v>       0.32008800       0.99525800       0.07437600 </v>
    <v>       0.65342200       0.99525800       0.07437600 </v>
    <v>       0.98675500       0.99525800       0.07437600 </v>
    <v>       0.20897700       0.10636900       0.17918600 </v>
    <v>       0.54231100       0.10636900       0.17918600 </v>
    <v>       0.87564400       0.10636900       0.17918600 </v>
    <v>       0.20897700       0.43970300       0.17918600 </v>
    <v>       0.54231100       0.43970300       0.17918600 </v>
    <v>       0.87564400       0.43970300       0.17918600 </v>
    <v>       0.20897700       0.77303600       0.17918600 </v>
    <v>       0.54231100       0.77303600       0.17918600 </v>
    <v>       0.87564400       0.77303600       0.17918600 </v>
    <v>       0.10097768       0.55035357       0.28038285 </v>
    <v>       0.42866578       0.88531223       0.28276237 </v>
    <v>       0.76439560       0.21990711       0.28754583 </v>
    <v>       0.09707149       0.21804818       0.28177932 </v>
    <v>       0.42954188       0.21260036       0.28595384 </v>
    <v>       0.09734856       0.88716238       0.28477129 </v>
    <v>       0.76376145       0.88323074       0.27839186 </v>
    <v>       0.43405966       0.55064694       0.27912923 </v>
    <v>       0.76168412       0.55227398       0.27890747 </v>
    <v>       0.31961363       0.65660800       0.39046226 </v>
    <v>       0.65068605       0.98956718       0.38273717 </v>
    <v>       0.32142153       0.32606901       0.39048296 </v>
    <v>       0.98729301       0.99239752       0.39100383 </v>
    <v>       0.31758800       0.99426389       0.39017043 </v>
    <v>       0.64674047       0.31955224       0.39128656 </v>
    <v>       0.99457583       0.66493971       0.38249462 </v>
    <v>       0.99481957       0.31537458       0.39643162 </v>
    <v>       0.65245692       0.66433016       0.38667409 </v>
   </varray>
  </structure>
  <varray name="forces" >
   <v>      -0.71541889      -1.27582308      -1.73375540 </v>
   <v>       0.35094641       0.40407921       0.56195290 </v>
   <v>       0.39820667       0.00507615      -0.24568619 </v>
   <v>      -0.00145580      -0.06022695       0.21911650 </v>
   <v>      -0.00775007      -0.03078018       0.16281533 </v>
   <v>      -0.03868956       0.00614586       0.19189830 </v>
   <v>       0.01324262       0.07679574       0.09410293 </v>
   <v>       0.03098532       0.00236071       0.13673834 </v>
   <v>       0.01750150       0.01354553       0.03685717 </v>
   <v>      -0.02885745      -0.04117920       0.10641106 </v>
   <v>       0.01786909       0.00339077       0.14333188 </v>
   <v>       0.01842978      -0.04562321       0.03028093 </v>
   <v>       0.08622308      -0.11662947       0.00218165 </v>
   <v>       0.07586654       0.11201928       0.08669898 </v>
   <v>       0.02566985       0.24148824      -0.25332212 </v>
   <v>      -0.05843091      -0.07847505      -0.46569535 </v>
   <v>      -0.18380298      -0.31983035      -0.46891720 </v>
   <v>      -0.08281391      -0.18364281      -0.10973445 </v>
   <v>      -0.00618512       0.24646603      -0.23213913 </v>
   <v>      -0.13292051       0.25143262      -0.65651928 </v>
   <v>       0.34750790       0.06820669      -0.64609433 </v>
   <v>      -0.17987390      -0.03714084       0.69789360 </v>
   <v>      -0.09865535      -0.31541110       0.03621227 </v>
   <v>       0.20034312       0.14206919      -0.87102290 </v>
   <v>      -0.10406631       0.24993499       0.94745360 </v>
   <v>       0.18087483       0.39906745      -0.38760956 </v>
   <v>      -0.04481443      -0.18152200      -0.43636163 </v>
   <v>       0.18123494       0.16365119       1.05974943 </v>
   <v>      -0.41998643       0.03463923       1.18017459 </v>
   <v>       0.23822971      -0.49476415       0.97790137 </v>
   <v>       0.19716554       0.10736135      -0.79137959 </v>
   <v>      -0.14709526      -0.37467888       0.59334416 </v>
   <v>      -0.13421848       0.12224141      -0.55931098 </v>
   <v>      -0.14007788      -0.08963688      -0.46629752 </v>
   <v>      -0.01763531      -0.44186150      -0.06437609 </v>
   <v>      -0.16305970       1.46833211       1.43237347 </v>
   <v>      -0.18077802       0.09334619       0.32554235 </v>
   <v>       0.35484940      -0.00423285      -0.30543980 </v>
   <v>       0.15144000      -0.12019144      -0.32936926 </v>
  </varray>
  <varray name="stress" >
   <v>     -42.85840612       0.87702404       0.34135926 </v>
   <v>       0.87702405     -45.53348451      -2.08290130 </v>
   <v>       0.34135932      -2.08290132      -7.72150643 </v>
  </varray>
  <energy>
   <i name="e_fr_energy">   -229.91252248 </i>
   <i name="e_wo_entrp">   -229.90947356 </i>
   <i name="e_0_energy">     -0.00914676 </i>
  </energy>
  <time name="totalsc">  150.15  151.62</time>
 </calculation>
 <calculation>
  <scstep>
   <time name="dav">    8.16    8.21</time>
   <time name="total">    8.68    8.74</time>
   <energy>
    <i name="alphaZ">    975.10247152 </i>
    <i name="ewald">  91060.07072634 </i>
    <i name="hartreedc">-119777.62853642 </i>
    <i name="XCdc">    177.85095187 </i>
    <i name="pawpsdc">  30071.12030269 </i>
    <i name="pawaedc"> -29156.71844359 </i>
    <i name="eentropy">     -0.00871010 </i>
    <i name="bandstr">   -839.84798796 </i>
    <i name="atom">  27259.89416086 </i>
    <i name="e_fr_energy">   -230.16506479 </i>
    <i name="e_wo_entrp">   -230.15635469 </i>
    <i name="e_0_energy">   -230.16216143 </i>
   </energy>
  </scstep>
  <scstep>
   <time name="diag">    1.26    1.27</time>
   <time name="diis">    4.34    4.37</time>
   <time name="orth">    0.22    0.22</time>
   <time name="total">    6.35    6.39</time>
   <energy>
    <i name="e_fr_energy">   -230.22964288 </i>
    <i name="e_wo_entrp">   -230.22051692 </i>
    <i name="e_0_energy">   -230.22660089 </i>
   </energy>
  </scstep>
  <scstep>
   <time name="diag">    1.27    1.28</time>
   <time name="diis">    4.60    4.64</time>
   <time name="orth">    0.23    0.23</time>
   <time name="total">    6.64    6.68</time>
   <energy>
    <i name="e_fr_energy">   -230.24340862 </i>
    <i name="e_wo_entrp">   -230.22260073 </i>
    <i name="e_0_energy">   -230.23647265 </i>
   </energy>
  </scstep>
  <scstep>
   <time name="diag">    1.33    1.34</time>
   <time name="diis">    4.57    4.60</time>
   <time name="orth">    0.23    0.23</time>
   <time name="total">    6.66    6.71</time>
   <energy>
    <i name="e_fr_energy">   -230.21465346 </i>
    <i name="e_wo_entrp">   -230.20668151 </i>
    <i name="e_0_energy">   -230.21199615 </i>
   </energy>
  </scstep>
  <scstep>
   <time name="diag">    1.30    1.31</time>
   <time name="diis">    4.45    4.48</time>
   <time name="orth">    0.22    0.22</time>
   <time name="total">    6.48    6.52</time>
   <energy>
    <i name="e_fr_energy">   -230.21124336 </i>
    <i name="e_wo_entrp">   -230.19937934 </i>
    <i name="e_0_energy">   -230.20728868 </i>
   </energy>
  </scstep>
  <scstep>
   <time name="diag">    1.11    1.12</time>
   <time name="diis">    4.38    4.41</time>
   <time name="orth">    0.22    0.22</time>
   <time name="total">    6.22    6.26</time>
   <energy>
    <i name="e_fr_energy">   -230.21012212 </i>
    <i name="e_wo_entrp">   -230.19995000 </i>
    <i name="e_0_energy">   -230.20673141 </i>
   </energy>
  </scstep>
  <scstep>
   <time name="diag">    1.29    1.30</time>
   <time name="diis">    4.32    4.35</time>
   <time name="orth">    0.22    0.22</time>
   <time name="total">    6.33    6.37</time>
   <energy>
    <i name="e_fr_energy">   -230.20884953 </i>
    <i name="e_wo_entrp">   -230.19807304 </i>
    <i name="e_0_energy">   -230.20525737 </i>
   </energy>
  </scstep>
  <scstep>
   <time name="diag">    1.27    1.27</time>
   <time name="diis">    4.39    4.42</time>
   <time name="orth">    0.21    0.21</time>
   <time name="total">    6.37    6.42</time>
   <energy>
    <i name="e_fr_energy">   -230.20857809 </i>
    <i name="e_wo_entrp">   -230.19817405 </i>
    <i name="e_0_energy">   -230.20511007 </i>
   </energy>
  </scstep>
  <scstep>
   <time name="diag">    1.33    1.34</time>
   <time name="diis">    2.79    2.80</time>
   <time name="orth">    0.22    0.23</time>
   <time name="total">    4.48    4.51</time>
   <energy>
    <i name="alphaZ">    975.10247152 </i>
    <i name="ewald">  91060.07072634 </i>
    <i name="hartreedc">-119770.65332917 </i>
    <i name="XCdc">    177.77401505 </i>
    <i name="pawpsdc">  30054.00828285 </i>
    <i name="pawaedc"> -29139.56948246 </i>
    <i name="eentropy">     -0.01083041 </i>
    <i name="bandstr">   -846.82451284 </i>
    <i name="atom">  27259.89416086 </i>
    <i name="e_fr_energy">   -230.20849826 </i>
    <i name="e_wo_entrp">   -230.19766785 </i>
    <i name="e_0_energy">   -230.20488812 </i>
   </energy>
  </scstep>
  <structure>
   <crystal>
    <varray name="basis" >
     <v>       7.29695512      -4.21289900       0.00000000 </v>
     <v>       0.00000000       8.42579800       0.00000000 </v>
     <v>       0.00000000       0.00000000      21.87963500 </v>
    </varray>
    <i name="volume">   1345.21837528 </i>
    <varray name="rec_basis" >
     <v>       0.13704346       0.00000000       0.00000000 </v>
     <v>       0.06852173       0.11868312       0.00000000 </v>
     <v>       0.00000000       0.00000000       0.04570460 </v>
    </varray>
   </crystal>
   <varray name="positions" >
    <v>       0.70519570       0.43551865       0.47725980 </v>
    <v>       0.90458779       0.39022276       0.46579660 </v>
    <v>       0.68000418       0.46678061       0.52846076 </v>
    <v>       0.98675500       0.32859100       0.07437600 </v>
    <v>       0.32008800       0.32859100       0.07437600 </v>
    <v>       0.65342200       0.32859100       0.07437600 </v>
    <v>       0.98675500       0.66192500       0.07437600 </v>
    <v>       0.32008800       0.66192500       0.07437600 </v>
    <v>       0.65342200       0.66192500       0.07437600 </v>
    <v>       0.32008800       0.99525800       0.07437600 </v>
    <v>       0.65342200       0.99525800       0.07437600 </v>
    <v>       0.98675500       0.99525800       0.07437600 </v>
    <v>       0.20897700       0.10636900       0.17918600 </v>
    <v>       0.54231100       0.10636900       0.17918600 </v>
    <v>       0.87564400       0.10636900       0.17918600 </v>
    <v>       0.20897700       0.43970300       0.17918600 </v>
    <v>       0.54231100       0.43970300       0.17918600 </v>
    <v>       0.87564400       0.43970300       0.17918600 </v>
    <v>       0.20897700       0.77303600       0.17918600 </v>
    <v>       0.54231100       0.77303600       0.17918600 </v>
    <v>       0.87564400       0.77303600       0.17918600 </v>
    <v>       0.10050200       0.55003067       0.28099837 </v>
    <v>       0.42840488       0.88445941       0.28279431 </v>
    <v>       0.76492541       0.22049738       0.28677762 </v>
    <v>       0.09679628       0.21848299       0.28261494 </v>
    <v>       0.43002021       0.21375348       0.28561199 </v>
    <v>       0.09723005       0.88668740       0.28438644 </v>
    <v>       0.76424073       0.88384518       0.27932653 </v>
    <v>       0.43294899       0.55017094       0.28017011 </v>
    <v>       0.76231413       0.55145586       0.27976994 </v>
    <v>       0.32013505       0.65711459       0.38976429 </v>
    <v>       0.65029705       0.98851458       0.38326048 </v>
    <v>       0.32106658       0.32617150       0.38998966 </v>
    <v>       0.98692257       0.99200701       0.39059257 </v>
    <v>       0.31754137       0.99322861       0.39011366 </v>
    <v>       0.64630926       0.32269945       0.39254986 </v>
    <v>       0.99409775       0.66491446       0.38278173 </v>
    <v>       0.99575798       0.31583409       0.39616224 </v>
    <v>       0.65285741       0.66425514       0.38638360 </v>
   </varray>
  </structure>
  <varray name="forces" >
   <v>      -0.81090878      -0.56684301       1.05234243 </v>
   <v>       0.33466924       0.41085406       0.40789335 </v>
   <v>       0.69605170      -0.74104138      -2.69085436 </v>
   <v>       0.00222046      -0.05688308       0.20172769 </v>
   <v>      -0.01489092      -0.03624199       0.16460133 </v>
   <v>      -0.04116305      -0.00053537       0.18180507 </v>
   <v>       0.01575639       0.07028428       0.09535744 </v>
   <v>       0.02277632       0.00798441       0.13253639 </v>
   <v>       0.01765578       0.00998961       0.06011966 </v>
   <v>      -0.01769653      -0.03895384       0.10581485 </v>
   <v>       0.00999936       0.01337964       0.13088782 </v>
   <v>       0.01987778      -0.03360193       0.03901449 </v>
   <v>       0.05409914      -0.07230615       0.00698458 </v>
   <v>       0.06138638       0.10154522       0.07715180 </v>
   <v>       0.04698159       0.17894308      -0.21285082 </v>
   <v>      -0.04533889      -0.08043190      -0.35859175 </v>
   <v>      -0.15673209      -0.24133134      -0.34402847 </v>
   <v>      -0.06515178      -0.14638271      -0.09168096 </v>
   <v>      -0.01689610       0.20982677      -0.21826565 </v>
   <v>      -0.09646803       0.18744693      -0.51792929 </v>
   <v>       0.27842395       0.07606191      -0.54298379 </v>
   <v>      -0.16559678      -0.03190049       0.53184173 </v>
   <v>      -0.02031988      -0.19435087       0.01560749 </v>
   <v>       0.06325741       0.07953317      -0.53903485 </v>
   <v>      -0.10868030       0.18746034       0.71924151 </v>
   <v>       0.16102849       0.25124218      -0.27147802 </v>
   <v>      -0.00573533      -0.15294621      -0.36959355 </v>
   <v>       0.12416335       0.11844995       0.78636101 </v>
   <v>      -0.29635493       0.02469827       0.85446569 </v>
   <v>       0.16028463      -0.35561507       0.72957282 </v>
   <v>       0.15228900       0.11337832      -0.63022954 </v>
   <v>      -0.07946875      -0.12559058       0.46773907 </v>
   <v>      -0.08536953       0.01783140      -0.43816035 </v>
   <v>      -0.08629086      -0.09877475      -0.36901148 </v>
   <v>       0.04612754      -0.32027661      -0.11058189 </v>
   <v>      -0.27532123       1.08952128       1.02584780 </v>
   <v>      -0.11708863       0.09110020       0.34048888 </v>
   <v>       0.09873126       0.12639709      -0.19565106 </v>
   <v>       0.13969262      -0.07192083      -0.22647708 </v>
  </varray>
  <varray name="stress" >
   <v>     -43.77883013       1.20631717       1.29653079 </v>
   <v>       1.20631725     -46.73332789      -3.08513964 </v>
   <v>       1.29653092      -3.08513957     -11.39124639 </v>
  </varray>
  <energy>
   <i name="e_fr_energy">   -230.20849826 </i>
   <i name="e_wo_entrp">   -230.20488812 </i>
   <i name="e_0_energy">     -0.01083041 </i>
  </energy>
  <time name="totalsc">   68.51   69.34</time>
 </calculation>
 <calculation>
  <scstep>
   <time name="dav">    8.28    8.34</time>
   <time name="total">    8.79    8.85</time>
   <energy>
    <i name="alphaZ">    975.10247152 </i>
    <i name="ewald">  91079.11241169 </i>
    <i name="hartreedc">-119785.94435864 </i>
    <i name="XCdc">    177.93124980 </i>
    <i name="pawpsdc">  30053.93920905 </i>
    <i name="pawaedc"> -29139.49964879 </i>
    <i name="eentropy">     -0.01084343 </i>
    <i name="bandstr">   -850.82516186 </i>
    <i name="atom">  27259.89416086 </i>
    <i name="e_fr_energy">   -230.30050980 </i>
    <i name="e_wo_entrp">   -230.28966637 </i>
    <i name="e_0_energy">   -230.29689532 </i>
   </energy>
  </scstep>
  <scstep>
   <time name="diag">    1.21    1.22</time>
   <time name="diis">    4.44    4.47</time>
   <time name="orth">    0.23    0.23</time>
   <time name="total">    6.40    6.45</time>
   <energy>
    <i name="e_fr_energy">   -230.33957335 </i>
    <i name="e_wo_entrp">   -230.32905002 </i>
    <i name="e_0_energy">   -230.33606558 </i>
   </energy>
  </scstep>
  <scstep>
   <time name="diag">    1.36    1.37</time>
   <time name="diis">    4.52    4.55</time>
   <time name="orth">    0.23    0.23</time>
   <time name="total">    6.65    6.69</time>
   <energy>
    <i name="e_fr_energy">   -230.33745979 </i>
    <i name="e_wo_entrp">   -230.32263157 </i>
    <i name="e_0_energy">   -230.33251705 </i>
   </energy>
  </scstep>
  <scstep>
   <time name="diag">    1.34    1.35</time>
   <time name="diis">    4.52    4.56</time>
   <time name="orth">    0.22    0.22</time>
   <time name="total">    6.60    6.65</time>
   <energy>
    <i name="e_fr_energy">   -230.33162833 </i>
    <i name="e_wo_entrp">   -230.32232104 </i>
    <i name="e_0_energy">   -230.32852590 </i>
   </energy>
  </scstep>
  <scstep>
   <time name="diag">    1.29    1.30</time>
   <time name="diis">    4.29    4.32</time>
   <time name="orth">    0.22    0.22</time>
   <time name="total">    6.34    6.38</time>
   <energy>
    <i name="e_fr_energy">   -230.33014302 </i>
    <i name="e_wo_entrp">   -230.31740545 </i>
    <i name="e_0_energy">   -230.32589716 </i>
   </energy>
  </scstep>
  <scstep>
   <time name="diag">    1.24    1.25</time>
   <time name="diis">    4.43    4.46</time>
   <time name="orth">    0.22    0.22</time>
   <time name="total">    6.41    6.45</time>
   <energy>
    <i name="e_fr_energy">   -230.32986611 </i>
    <i name="e_wo_entrp">   -230.31956363 </i>
    <i name="e_0_energy">   -230.32643195 </i>
   </energy>
  </scstep>
  <scstep>
   <time name="diag">    1.15    1.15</time>
   <time name="diis">    4.27    4.29</time>
   <time name="orth">    0.21    0.22</time>
   <time name="total">    6.14    6.18</time>
   <energy>
    <i name="e_fr_energy">   -230.32851586 </i>
    <i name="e_wo_entrp">   -230.31742754 </i>
    <i name="e_0_energy">   -230.32481975 </i>
   </energy>
  </scstep>
  <scstep>
   <time name="diag">    1.28    1.29</time>
   <time name="diis">    2.96    2.98</time>
   <time name="orth">    0.22    0.22</time>
   <time name="total">    5.00    5.03</time>
   <energy>
    <i name="e_fr_energy">   -230.32840023 </i>
    <i name="e_wo_entrp">   -230.31758119 </i>
    <i name="e_0_energy">   -230.32479388 </i>
   </energy>
  </scstep>
  <scstep>
   <time name="diag">    1.28    1.28</time>
   <time name="diis">    2.72    2.74</time>
   <time name="orth">    0.21    0.21</time>
   <time name="total">    4.34    4.37</time>
   <energy>
    <i name="alphaZ">    975.10247152 </i>
    <i name="ewald">  91079.11241169 </i>
    <i name="hartreedc">-119792.92546836 </i>
    <i name="XCdc">    178.03148870 </i>
    <i name="pawpsdc">  30061.82610277 </i>
    <i name="pawaedc"> -29147.42641442 </i>
    <i name="eentropy">     -0.01104434 </i>
    <i name="bandstr">   -843.93208609 </i>
    <i name="atom">  27259.89416086 </i>
    <i name="e_fr_energy">   -230.32837767 </i>
    <i name="e_wo_entrp">   -230.31733333 </i>
    <i name="e_0_energy">   -230.32469622 </i>
   </energy>
  </scstep>
  <structure>
   <crystal>
    <varray name="basis" >
     <v>       7.29695512      -4.21289900       0.00000000 </v>
     <v>       0.00000000       8.42579800       0.00000000 </v>
     <v>       0.00000000       0.00000000      21.87963500 </v>
    </varray>
    <i name="volume">   1345.21837528 </i>
    <varray name="rec_basis" >
     <v>       0.13704346       0.00000000       0.00000000 </v>
     <v>       0.06852173       0.11868312       0.00000000 </v>
     <v>       0.00000000       0.00000000       0.04570460 </v>
    </varray>
   </crystal>
   <varray name="positions" >
    <v>       0.70402613       0.43422585       0.47776599 </v>
    <v>       0.90507048       0.39097729       0.46599281 </v>
    <v>       0.68100809       0.46635696       0.52716643 </v>
    <v>       0.98675500       0.32859100       0.07437600 </v>
    <v>       0.32008800       0.32859100       0.07437600 </v>
    <v>       0.65342200       0.32859100       0.07437600 </v>
    <v>       0.98675500       0.66192500       0.07437600 </v>
    <v>       0.32008800       0.66192500       0.07437600 </v>
    <v>       0.65342200       0.66192500       0.07437600 </v>
    <v>       0.32008800       0.99525800       0.07437600 </v>
    <v>       0.65342200       0.99525800       0.07437600 </v>
    <v>       0.98675500       0.99525800       0.07437600 </v>
    <v>       0.20897700       0.10636900       0.17918600 </v>
    <v>       0.54231100       0.10636900       0.17918600 </v>
    <v>       0.87564400       0.10636900       0.17918600 </v>
    <v>       0.20897700       0.43970300       0.17918600 </v>
    <v>       0.54231100       0.43970300       0.17918600 </v>
    <v>       0.87564400       0.43970300       0.17918600 </v>
    <v>       0.20897700       0.77303600       0.17918600 </v>
    <v>       0.54231100       0.77303600       0.17918600 </v>
    <v>       0.87564400       0.77303600       0.17918600 </v>
    <v>       0.10026316       0.54987141       0.28125419 </v>
    <v>       0.42837557       0.88420200       0.28280182 </v>
    <v>       0.76501665       0.22064234       0.28651833 </v>
    <v>       0.09663953       0.21863876       0.28296090 </v>
    <v>       0.43025246       0.21418342       0.28548140 </v>
    <v>       0.09722178       0.88649222       0.28420866 </v>
    <v>       0.76441981       0.88408267       0.27970477 </v>
    <v>       0.43252156       0.54998807       0.28058111 </v>
    <v>       0.76254531       0.55112726       0.28012088 </v>
    <v>       0.32035469       0.65736603       0.38946114 </v>
    <v>       0.65018243       0.98830040       0.38348547 </v>
    <v>       0.32094346       0.32613221       0.38977890 </v>
    <v>       0.98679811       0.99182141       0.39041507 </v>
    <v>       0.31760790       0.99286182       0.39006047 </v>
    <v>       0.64591216       0.32386179       0.39304330 </v>
    <v>       0.99392888       0.66494381       0.38294551 </v>
    <v>       0.99590038       0.31606316       0.39606813 </v>
    <v>       0.65305889       0.66426604       0.38627466 </v>
   </varray>
  </structure>
  <varray name="forces" >
   <v>      -0.35953626      -1.60200611      -2.19143281 </v>
   <v>       0.44217001       0.29598165       0.25489268 </v>
   <v>       0.15159824       0.38666790       0.70152176 </v>
   <v>       0.00207012      -0.05634965       0.19826903 </v>
   <v>      -0.01755270      -0.03751915       0.16333756 </v>
   <v>      -0.04194833      -0.00331805       0.17613442 </v>
   <v>       0.01571775       0.06868988       0.09976202 </v>
   <v>       0.02075221       0.00989704       0.13482647 </v>
   <v>       0.01775221       0.00940968       0.06987980 </v>
   <v>      -0.01304381      -0.03862553       0.09938782 </v>
   <v>       0.00826639       0.01589353       0.12858954 </v>
   <v>       0.01845406      -0.02756811       0.04071109 </v>
   <v>       0.04415958      -0.05395416       0.01546739 </v>
   <v>       0.05471526       0.09791834       0.07252294 </v>
   <v>       0.05502082       0.15882502      -0.18678941 </v>
   <v>      -0.04134944      -0.07970993      -0.31262119 </v>
   <v>      -0.14565484      -0.21039417      -0.29344703 </v>
   <v>      -0.05820243      -0.13039799      -0.07955654 </v>
   <v>      -0.02033432       0.19294202      -0.21271102 </v>
   <v>      -0.08296520       0.16322020      -0.46152911 </v>
   <v>       0.24926287       0.07873190      -0.50126079 </v>
   <v>      -0.16034623      -0.03208730       0.47353279 </v>
   <v>       0.00332112      -0.15145827       0.00552406 </v>
   <v>       0.01599163       0.05958761      -0.42613288 </v>
   <v>      -0.10650596       0.16272659       0.62785022 </v>
   <v>       0.15604437       0.20824789      -0.23338799 </v>
   <v>       0.00239475      -0.14644799      -0.33476104 </v>
   <v>       0.10475446       0.09664164       0.67346420 </v>
   <v>      -0.24615463       0.01946867       0.72288833 </v>
   <v>       0.13698972      -0.30220461       0.64005465 </v>
   <v>       0.13331740       0.11730203      -0.57282996 </v>
   <v>      -0.05596057      -0.04708248       0.42919300 </v>
   <v>      -0.07894824      -0.00166628      -0.39953604 </v>
   <v>      -0.07436142      -0.09846174      -0.33510986 </v>
   <v>       0.05746627      -0.28103826      -0.12379323 </v>
   <v>      -0.26220477       0.95964675       0.94383151 </v>
   <v>      -0.09337315       0.08819073       0.32878839 </v>
   <v>       0.03858827       0.15126637      -0.12257946 </v>
   <v>       0.12963478      -0.04096568      -0.21295132 </v>
  </varray>
  <varray name="stress" >
   <v>     -43.84748275       0.83815145       0.56028883 </v>
   <v>       0.83815157     -46.38807387      -1.63565083 </v>
   <v>       0.56028877      -1.63565074      -7.05395468 </v>
  </varray>
  <energy>
   <i name="e_fr_energy">   -230.32837767 </i>
   <i name="e_wo_entrp">   -230.32469622 </i>
   <i name="e_0_energy">     -0.01104434 </i>
  </energy>
  <time name="totalsc">   65.86   66.82</time>
 </calculation>
 <calculation>
  <scstep>
   <time name="dav">    7.34    7.39</time>
   <time name="total">    7.82    7.88</time>
   <energy>
    <i name="alphaZ">    975.10247152 </i>
    <i name="ewald">  91101.67485620 </i>
    <i name="hartreedc">-119815.90766979 </i>
    <i name="XCdc">    178.19380067 </i>
    <i name="pawpsdc">  30061.74575024 </i>
    <i name="pawaedc"> -29147.34827725 </i>
    <i name="eentropy">     -0.00851194 </i>
    <i name="bandstr">   -843.78900652 </i>
    <i name="atom">  27259.89416086 </i>
    <i name="e_fr_energy">   -230.44242601 </i>
    <i name="e_wo_entrp">   -230.43391407 </i>
    <i name="e_0_energy">   -230.43958870 </i>
   </energy>
  </scstep>
  <scstep>
   <time name="diag">    1.06    1.07</time>
   <time name="diis">    4.18    4.21</time>
   <time name="orth">    0.21    0.22</time>
   <time name="total">    5.95    5.99</time>
   <energy>
    <i name="e_fr_energy">   -230.79957742 </i>
    <i name="e_wo_entrp">   -230.78396493 </i>
    <i name="e_0_energy">   -230.79437325 </i>
   </energy>
  </scstep>
  <scstep>
   <time name="diag">    1.26    1.26</time>
   <time name="diis">    4.63    4.66</time>
   <time name="orth">    0.22    0.22</time>
   <time name="total">    6.62    6.67</time>
   <energy>
    <i name="e_fr_energy">   -230.80705713 </i>
    <i name="e_wo_entrp">   -230.77185556 </i>
    <i name="e_0_energy">   -230.79532328 </i>
   </energy>
  </scstep>
  <scstep>
   <time name="diag">    1.27    1.28</time>
   <time name="diis">    4.47    4.51</time>
   <time name="orth">    0.22    0.22</time>
   <time name="total">    6.47    6.52</time>
   <energy>
    <i name="e_fr_energy">   -230.69094780 </i>
    <i name="e_wo_entrp">   -230.68493834 </i>
    <i name="e_0_energy">   -230.68894465 </i>
   </energy>
  </scstep>
  <scstep>
   <time name="diag">    1.25    1.26</time>
   <time name="diis">    3.81    3.83</time>
   <time name="orth">    0.20    0.20</time>
   <time name="total">    5.72    5.76</time>
   <energy>
    <i name="e_fr_energy">   -230.67152999 </i>
    <i name="e_wo_entrp">   -230.65476817 </i>
    <i name="e_0_energy">   -230.66594272 </i>
   </energy>
  </scstep>
  <scstep>
   <time name="diag">    0.94    0.95</time>
   <time name="diis">    3.75    3.78</time>
   <time name="orth">    0.21    0.21</time>
   <time name="total">    5.38    5.41</time>
   <energy>
    <i name="e_fr_energy">   -230.66913419 </i>
    <i name="e_wo_entrp">   -230.65879132 </i>
    <i name="e_0_energy">   -230.66568657 </i>
   </energy>
  </scstep>
  <scstep>
   <time name="diag">    1.07    1.08</time>
   <time name="diis">    4.22    4.25</time>
   <time name="orth">    0.21    0.21</time>
   <time name="total">    6.02    6.06</time>
   <energy>
    <i name="e_fr_energy">   -230.66606819 </i>
    <i name="e_wo_entrp">   -230.65138535 </i>
    <i name="e_0_energy">   -230.66117391 </i>
   </energy>
  </scstep>
  <scstep>
   <time name="diag">    1.27    1.28</time>
   <time name="diis">    4.41    4.44</time>
   <time name="orth">    0.21    0.21</time>
   <time name="total">    6.39    6.44</time>
   <energy>
    <i name="e_fr_energy">   -230.66326289 </i>
    <i name="e_wo_entrp">   -230.65102173 </i>
    <i name="e_0_energy">   -230.65918250 </i>
   </energy>
  </scstep>
  <scstep>
   <time name="diag">    1.27    1.28</time>
   <time name="diis">    4.33    4.36</time>
   <time name="orth">    0.21    0.21</time>
   <time name="total">    6.33    6.37</time>
   <energy>
    <i name="e_fr_energy">   -230.66296977 </i>
    <i name="e_wo_entrp">   -230.64932224 </i>
    <i name="e_0_energy">   -230.65842059 </i>
   </energy>
  </scstep>
  <scstep>
   <time name="diag">    1.27    1.28</time>
   <time name="diis">    3.36    3.38</time>
   <time name="orth">    0.22    0.22</time>
   <time name="total">    5.38    5.41</time>
   <energy>
    <i name="e_fr_energy">   -230.66269301 </i>
    <i name="e_wo_entrp">   -230.64957054 </i>
    <i name="e_0_energy">   -230.65831886 </i>
   </energy>
  </scstep>
  <scstep>
   <time name="diag">    1.25    1.26</time>
   <time name="diis">    2.68    2.70</time>
   <time name="orth">    0.22    0.22</time>
   <time name="total">    4.28    4.31</time>
   <energy>
    <i name="alphaZ">    975.10247152 </i>
    <i name="ewald">  91101.67485620 </i>
    <i name="hartreedc">-119804.69158283 </i>
    <i name="XCdc">    178.15599967 </i>
    <i name="pawpsdc">  30082.97405221 </i>
    <i name="pawaedc"> -29168.86327210 </i>
    <i name="eentropy">     -0.01309063 </i>
    <i name="bandstr">   -854.89633382 </i>
    <i name="atom">  27259.89416086 </i>
    <i name="e_fr_energy">   -230.66273891 </i>
    <i name="e_wo_entrp">   -230.64964828 </i>
    <i name="e_0_energy">   -230.65837537 </i>
   </energy>
  </scstep>
  <structure>
   <crystal>
    <varray name="basis" >
     <v>       7.29695512      -4.21289900       0.00000000 </v>
     <v>       0.00000000       8.42579800       0.00000000 </v>
     <v>       0.00000000       0.00000000      21.87963500 </v>
    </varray>
    <i name="volume">   1345.21837528 </i>
    <varray name="rec_basis" >
     <v>       0.13704346       0.00000000       0.00000000 </v>
     <v>       0.06852173       0.11868312       0.00000000 </v>
     <v>       0.00000000       0.00000000       0.04570460 </v>
    </varray>
   </crystal>
   <varray name="positions" >
    <v>       0.69953481       0.42363453       0.47544568 </v>
    <v>       0.90833729       0.39505555       0.46686503 </v>
    <v>       0.68410798       0.46733196       0.52523540 </v>
    <v>       0.98675500       0.32859100       0.07437600 </v>
    <v>       0.32008800       0.32859100       0.07437600 </v>
    <v>       0.65342200       0.32859100       0.07437600 </v>
    <v>       0.98675500       0.66192500       0.07437600 </v>
    <v>       0.32008800       0.66192500       0.07437600 </v>
    <v>       0.65342200       0.66192500       0.07437600 </v>
    <v>       0.32008800       0.99525800       0.07437600 </v>
    <v>       0.65342200       0.99525800       0.07437600 </v>
    <v>       0.98675500       0.99525800       0.07437600 </v>
    <v>       0.20897700       0.10636900       0.17918600 </v>
    <v>       0.54231100       0.10636900       0.17918600 </v>
    <v>       0.87564400       0.10636900       0.17918600 </v>
    <v>       0.20897700       0.43970300       0.17918600 </v>
    <v>       0.54231100       0.43970300       0.17918600 </v>
    <v>       0.87564400       0.43970300       0.17918600 </v>
    <v>       0.20897700       0.77303600       0.17918600 </v>
    <v>       0.54231100       0.77303600       0.17918600 </v>
    <v>       0.87564400       0.77303600       0.17918600 </v>
    <v>       0.09892784       0.54897599       0.28261796 </v>
    <v>       0.42832234       0.88297119       0.28282841 </v>
    <v>       0.76530902       0.22127135       0.28522243 </v>
    <v>       0.09575706       0.21942835       0.28478510 </v>
    <v>       0.43155152       0.21644154       0.28479862 </v>
    <v>       0.09721376       0.88542701       0.28325180 </v>
    <v>       0.76534659       0.88529803       0.28167839 </v>
    <v>       0.43032814       0.54904531       0.28271137 </v>
    <v>       0.76375018       0.54942185       0.28197639 </v>
    <v>       0.32151466       0.65876910       0.38782632 </v>
    <v>       0.64964258       0.98746390       0.38470530 </v>
    <v>       0.32027293       0.32584260       0.38864025 </v>
    <v>       0.98614652       0.99079409       0.38945832 </v>
    <v>       0.31804143       0.99096315       0.38973626 </v>
    <v>       0.64371317       0.32997364       0.39572268 </v>
    <v>       0.99308094       0.66515593       0.38385973 </v>
    <v>       0.99642227       0.31732708       0.39564924 </v>
    <v>       0.65415824       0.66443293       0.38567579 </v>
   </varray>
  </structure>
  <varray name="forces" >
   <v>       0.10390481      -0.42439220       1.53140311 </v>
   <v>       0.48661396       0.22641052      -0.03706830 </v>
   <v>       0.17938611      -0.28641595      -1.08900081 </v>
   <v>       0.00761462      -0.04930167       0.17054179 </v>
   <v>      -0.03051267      -0.04117186       0.15871831 </v>
   <v>      -0.04030973      -0.01531136       0.15198518 </v>
   <v>       0.01837955       0.05590068       0.11077148 </v>
   <v>       0.00742265       0.01812668       0.13408642 </v>
   <v>       0.02009423       0.00377471       0.11998753 </v>
   <v>       0.00708655      -0.03961185       0.07301323 </v>
   <v>      -0.00125241       0.02699903       0.10206820 </v>
   <v>       0.01295972      -0.00250088       0.05016612 </v>
   <v>      -0.01811373       0.03988117       0.00684565 </v>
   <v>       0.02362882       0.07675702       0.04192553 </v>
   <v>       0.09555071       0.04999679      -0.08921267 </v>
   <v>      -0.02641109      -0.08131410      -0.09314817 </v>
   <v>      -0.09437500      -0.06740567      -0.07469228 </v>
   <v>      -0.02321889      -0.05686010      -0.02347312 </v>
   <v>      -0.03690343       0.10866982      -0.18943715 </v>
   <v>      -0.01623130       0.05030711      -0.20248371 </v>
   <v>       0.11683987       0.09694588      -0.32790849 </v>
   <v>      -0.13129396      -0.02252769       0.12715017 </v>
   <v>       0.12183661       0.02821319      -0.05158784 </v>
   <v>      -0.13105365      -0.08705983       0.04703105 </v>
   <v>      -0.09474187       0.05793494       0.12478744 </v>
   <v>       0.08627120      -0.02221432      -0.06840100 </v>
   <v>       0.03298473      -0.09139582      -0.13689494 </v>
   <v>      -0.01150558       0.02055062       0.07833286 </v>
   <v>       0.01757369      -0.00848917       0.02839676 </v>
   <v>       0.00442078      -0.05329891       0.15838479 </v>
   <v>       0.03044490       0.13925793      -0.16844302 </v>
   <v>       0.03880353       0.26943317       0.24254118 </v>
   <v>      -0.05983354      -0.11584479      -0.12119701 </v>
   <v>       0.02656285      -0.05767253      -0.11595897 </v>
   <v>       0.10519630      -0.05488351      -0.17475277 </v>
   <v>      -0.63733987      -0.09891134      -0.85399815 </v>
   <v>       0.03595694       0.06867892       0.32504858 </v>
   <v>      -0.29849806       0.23644127       0.05996979 </v>
   <v>       0.07206166       0.10230410      -0.02549679 </v>
  </varray>
  <varray name="stress" >
   <v>     -44.01322190       0.95662592       1.96508445 </v>
   <v>       0.95662612     -46.67612961      -1.45218877 </v>
   <v>       1.96508446      -1.45218867      -5.88529710 </v>
  </varray>
  <energy>
   <i name="e_fr_energy">   -230.66273891 </i>
   <i name="e_wo_entrp">   -230.65837537 </i>
   <i name="e_0_energy">     -0.01309063 </i>
  </energy>
  <time name="totalsc">   76.41   77.26</time>
 </calculation>
 <calculation>
  <scstep>
   <time name="dav">    8.14    8.19</time>
   <time name="total">    8.67    8.74</time>
   <energy>
    <i name="alphaZ">    975.10247152 </i>
    <i name="ewald">  91118.33420990 </i>
    <i name="hartreedc">-119820.79499841 </i>
    <i name="XCdc">    178.14070406 </i>
    <i name="pawpsdc">  30082.82451823 </i>
    <i name="pawaedc"> -29168.71592942 </i>
    <i name="eentropy">     -0.01349512 </i>
    <i name="bandstr">   -855.45641704 </i>
    <i name="atom">  27259.89416086 </i>
    <i name="e_fr_energy">   -230.68477542 </i>
    <i name="e_wo_entrp">   -230.67128030 </i>
    <i name="e_0_energy">   -230.68027705 </i>
   </energy>
  </scstep>
  <scstep>
   <time name="diag">    1.34    1.35</time>
   <time name="diis">    4.60    4.64</time>
   <time name="orth">    0.21    0.21</time>
   <time name="total">    6.68    6.73</time>
   <energy>
    <i name="e_fr_energy">   -230.69582834 </i>
    <i name="e_wo_entrp">   -230.68377270 </i>
    <i name="e_0_energy">   -230.69180980 </i>
   </energy>
  </scstep>
  <scstep>
   <time name="diag">    1.34    1.35</time>
   <time name="diis">    4.57    4.60</time>
   <time name="orth">    0.21    0.21</time>
   <time name="total">    6.65    6.69</time>
   <energy>
    <i name="e_fr_energy">   -230.69730957 </i>
    <i name="e_wo_entrp">   -230.68568597 </i>
    <i name="e_0_energy">   -230.69343504 </i>
   </energy>
  </scstep>
  <scstep>
   <time name="diag">    1.34    1.35</time>
   <time name="diis">    4.41    4.44</time>
   <time name="orth">    0.19    0.20</time>
   <time name="total">    6.44    6.49</time>
   <energy>
    <i name="e_fr_energy">   -230.69444960 </i>
    <i name="e_wo_entrp">   -230.67995666 </i>
    <i name="e_0_energy">   -230.68961862 </i>
   </energy>
  </scstep>
  <scstep>
   <time name="diag">    1.24    1.25</time>
   <time name="diis">    4.43    4.46</time>
   <time name="orth">    0.22    0.22</time>
   <time name="total">    6.43    6.47</time>
   <energy>
    <i name="e_fr_energy">   -230.69370335 </i>
    <i name="e_wo_entrp">   -230.68222202 </i>
    <i name="e_0_energy">   -230.68987624 </i>
   </energy>
  </scstep>
  <scstep>
   <time name="diag">    1.31    1.32</time>
   <time name="diis">    4.45    4.48</time>
   <time name="orth">    0.22    0.22</time>
   <time name="total">    6.52    6.57</time>
   <energy>
    <i name="e_fr_energy">   -230.69347696 </i>
    <i name="e_wo_entrp">   -230.68044457 </i>
    <i name="e_0_energy">   -230.68913283 </i>
   </energy>
  </scstep>
  <scstep>
   <time name="diag">    1.32    1.33</time>
   <time name="diis">    3.99    4.01</time>
   <time name="orth">    0.22    0.22</time>
   <time name="total">    6.07    6.11</time>
   <energy>
    <i name="e_fr_energy">   -230.69335694 </i>
    <i name="e_wo_entrp">   -230.68090314 </i>
    <i name="e_0_energy">   -230.68920567 </i>
   </energy>
  </scstep>
  <scstep>
   <time name="diag">    1.30    1.31</time>
   <time name="diis">    2.79    2.81</time>
   <time name="orth">    0.22    0.22</time>
   <time name="total">    4.46    4.49</time>
   <energy>
    <i name="alphaZ">    975.10247152 </i>
    <i name="ewald">  91118.33420990 </i>
    <i name="hartreedc">-119823.46256030 </i>
    <i name="XCdc">    178.15552437 </i>
    <i name="pawpsdc">  30076.42641076 </i>
    <i name="pawaedc"> -29162.25527510 </i>
    <i name="eentropy">     -0.01267433 </i>
    <i name="bandstr">   -852.87553045 </i>
    <i name="atom">  27259.89416086 </i>
    <i name="e_fr_energy">   -230.69326276 </i>
    <i name="e_wo_entrp">   -230.68058843 </i>
    <i name="e_0_energy">   -230.68903798 </i>
   </energy>
  </scstep>
  <structure>
   <crystal>
    <varray name="basis" >
     <v>       7.29695512      -4.21289900       0.00000000 </v>
     <v>       0.00000000       8.42579800       0.00000000 </v>
     <v>       0.00000000       0.00000000      21.87963500 </v>
    </varray>
    <i name="volume">   1345.21837528 </i>
    <varray name="rec_basis" >
     <v>       0.13704346       0.00000000       0.00000000 </v>
     <v>       0.06852173       0.11868312       0.00000000 </v>
     <v>       0.00000000       0.00000000       0.04570460 </v>
    </varray>
   </crystal>
   <varray name="positions" >
    <v>       0.70057892       0.42393283       0.47620516 </v>
    <v>       0.90901004       0.39543909       0.46669947 </v>
    <v>       0.68378516       0.46727279       0.52535432 </v>
    <v>       0.98675500       0.32859100       0.07437600 </v>
    <v>       0.32008800       0.32859100       0.07437600 </v>
    <v>       0.65342200       0.32859100       0.07437600 </v>
    <v>       0.98675500       0.66192500       0.07437600 </v>
    <v>       0.32008800       0.66192500       0.07437600 </v>
    <v>       0.65342200       0.66192500       0.07437600 </v>
    <v>       0.32008800       0.99525800       0.07437600 </v>
    <v>       0.65342200       0.99525800       0.07437600 </v>
    <v>       0.98675500       0.99525800       0.07437600 </v>
    <v>       0.20897700       0.10636900       0.17918600 </v>
    <v>       0.54231100       0.10636900       0.17918600 </v>
    <v>       0.87564400       0.10636900       0.17918600 </v>
    <v>       0.20897700       0.43970300       0.17918600 </v>
    <v>       0.54231100       0.43970300       0.17918600 </v>
    <v>       0.87564400       0.43970300       0.17918600 </v>
    <v>       0.20897700       0.77303600       0.17918600 </v>
    <v>       0.54231100       0.77303600       0.17918600 </v>
    <v>       0.87564400       0.77303600       0.17918600 </v>
    <v>       0.09882327       0.54891135       0.28252343 </v>
    <v>       0.42859942       0.88333500       0.28278685 </v>
    <v>       0.76496881       0.22087122       0.28544117 </v>
    <v>       0.09567040       0.21932261       0.28462426 </v>
    <v>       0.43156588       0.21618306       0.28484430 </v>
    <v>       0.09728894       0.88543545       0.28328345 </v>
    <v>       0.76519380       0.88515312       0.28146187 </v>
    <v>       0.43067179       0.54917955       0.28243634 </v>
    <v>       0.76359351       0.54956504       0.28183557 </v>
    <v>       0.32142102       0.65887415       0.38792602 </v>
    <v>       0.64980619       0.98814813       0.38471391 </v>
    <v>       0.32023542       0.32559692       0.38870671 </v>
    <v>       0.98629193       0.99085059       0.38950450 </v>
    <v>       0.31821472       0.99123708       0.38965197 </v>
    <v>       0.64265533       0.32828582       0.39476671 </v>
    <v>       0.99327773       0.66529767       0.38397020 </v>
    <v>       0.99569252       0.31727903       0.39575834 </v>
    <v>       0.65416510       0.66468693       0.38573636 </v>
   </varray>
  </structure>
  <varray name="forces" >
   <v>       0.05510740      -0.95634912      -0.06151119 </v>
   <v>       0.44920759       0.31579591       0.11164962 </v>
   <v>       0.13123203       0.01049258      -0.22810566 </v>
   <v>       0.00734928      -0.04964896       0.17535769 </v>
   <v>      -0.02969696      -0.04347722       0.16051637 </v>
   <v>      -0.03740881      -0.01324729       0.15273604 </v>
   <v>       0.01867293       0.06019792       0.11328692 </v>
   <v>       0.00771518       0.01915515       0.13247236 </v>
   <v>       0.02300138       0.00290241       0.11279957 </v>
   <v>       0.00239435      -0.03876465       0.07445307 </v>
   <v>       0.00025495       0.02724448       0.10502414 </v>
   <v>       0.01316457      -0.00668973       0.05306075 </v>
   <v>      -0.01205045       0.03185837       0.00746769 </v>
   <v>       0.02979646       0.08197380       0.03757056 </v>
   <v>       0.09426982       0.06474410      -0.08810739 </v>
   <v>      -0.03037730      -0.08000864      -0.10912691 </v>
   <v>      -0.09571173      -0.08296341      -0.09799229 </v>
   <v>      -0.02893397      -0.06599239      -0.01908617 </v>
   <v>      -0.03596944       0.10978265      -0.19256437 </v>
   <v>      -0.02180557       0.06077919      -0.23189468 </v>
   <v>       0.12836519       0.08846307      -0.33976563 </v>
   <v>      -0.11858083      -0.02084799       0.16551615 </v>
   <v>       0.08688250      -0.01724617      -0.04283619 </v>
   <v>      -0.08334556      -0.06251676      -0.03998418 </v>
   <v>      -0.08653615       0.06376608       0.17911677 </v>
   <v>       0.06134725       0.01427124      -0.11280925 </v>
   <v>       0.01417448      -0.09679712      -0.14077122 </v>
   <v>       0.00296137       0.02247587       0.15517621 </v>
   <v>      -0.02766466       0.00554261       0.12990879 </v>
   <v>       0.03022419      -0.06953155       0.20240852 </v>
   <v>       0.04447094       0.11580372      -0.21746703 </v>
   <v>       0.02446210       0.19412627       0.25435274 </v>
   <v>      -0.09114541      -0.05473765      -0.15398759 </v>
   <v>       0.00875386      -0.04136028      -0.13879573 </v>
   <v>       0.06275771      -0.08810275      -0.15928544 </v>
   <v>      -0.42801243       0.18773751      -0.17098097 </v>
   <v>       0.00010954       0.05878919       0.30068626 </v>
   <v>      -0.23236688       0.18328561      -0.02242743 </v>
   <v>       0.06293109       0.06909396      -0.05606088 </v>
  </varray>
  <varray name="stress" >
   <v>     -44.08126256       0.91778370       1.62594810 </v>
   <v>       0.91778352     -46.70871188      -1.35321554 </v>
   <v>       1.62594808      -1.35321550      -5.93169637 </v>
  </varray>
  <energy>
   <i name="e_fr_energy">   -230.69326276 </i>
   <i name="e_wo_entrp">   -230.68903798 </i>
   <i name="e_0_energy">     -0.01267433 </i>
  </energy>
  <time name="totalsc">   62.38   63.47</time>
 </calculation>
 <calculation>
