metal                                   
           1
     7.296955   -4.212899    0.000000
     0.000000    8.425798    0.000000
     0.000000    0.000000   21.879635
   C    O    Pt
   1   2  36
Direct configuration=     1
   0.70708765  0.43938656  0.47878891
   0.90365970  0.38883328  0.46530098
   0.67895111  0.46624245  0.52867745
   0.98675500  0.32859100  0.07437600
   0.32008800  0.32859100  0.07437600
   0.65342200  0.32859100  0.07437600
   0.98675500  0.66192500  0.07437600
   0.32008800  0.66192500  0.07437600
   0.65342200  0.66192500  0.07437600
   0.32008800  0.99525800  0.07437600
   0.65342200  0.99525800  0.07437600
   0.98675500  0.99525800  0.07437600
   0.20897700  0.10636900  0.17918600
   0.54231100  0.10636900  0.17918600
   0.87564400  0.10636900  0.17918600
   0.20897700  0.43970300  0.17918600
   0.54231100  0.43970300  0.17918600
   0.87564400  0.43970300  0.17918600
   0.20897700  0.77303600  0.17918600
   0.54231100  0.77303600  0.17918600
   0.87564400  0.77303600  0.17918600
   0.10097768  0.55035357  0.28038285
   0.42866578  0.88531223  0.28276237
   0.76439560  0.21990711  0.28754583
   0.09707149  0.21804818  0.28177932
   0.42954188  0.21260036  0.28595384
   0.09734856  0.88716238  0.28477129
   0.76376145  0.88323074  0.27839186
   0.43405966  0.55064694  0.27912923
   0.76168412  0.55227398  0.27890747
   0.31961363  0.65660800  0.39046226
   0.65068605  0.98956718  0.38273717
   0.32142153  0.32606901  0.39048296
   0.98729301  0.99239752  0.39100383
   0.31758800  0.99426389  0.39017043
   0.64674047  0.31955224  0.39128656
   0.99457583  0.66493971  0.38249462
   0.99481957  0.31537458  0.39643162
   0.65245692  0.66433016  0.38667409
Direct configuration=     2
   0.70519570  0.43551865  0.47725980
   0.90458779  0.39022276  0.46579660
   0.68000418  0.46678061  0.52846076
   0.98675500  0.32859100  0.07437600
   0.32008800  0.32859100  0.07437600
   0.65342200  0.32859100  0.07437600
   0.98675500  0.66192500  0.07437600
   0.32008800  0.66192500  0.07437600
   0.65342200  0.66192500  0.07437600
   0.32008800  0.99525800  0.07437600
   0.65342200  0.99525800  0.07437600
   0.98675500  0.99525800  0.07437600
   0.20897700  0.10636900  0.17918600
   0.54231100  0.10636900  0.17918600
   0.87564400  0.10636900  0.17918600
   0.20897700  0.43970300  0.17918600
   0.54231100  0.43970300  0.17918600
   0.87564400  0.43970300  0.17918600
   0.20897700  0.77303600  0.17918600
   0.54231100  0.77303600  0.17918600
   0.87564400  0.77303600  0.17918600
   0.10050200  0.55003067  0.28099837
   0.42840488  0.88445941  0.28279431
   0.76492541  0.22049738  0.28677762
   0.09679628  0.21848299  0.28261494
   0.43002021  0.21375348  0.28561199
   0.09723005  0.88668740  0.28438644
   0.76424073  0.88384518  0.27932653
   0.43294899  0.55017094  0.28017011
   0.76231413  0.55145586  0.27976994
   0.32013505  0.65711459  0.38976429
   0.65029705  0.98851458  0.38326048
   0.32106658  0.32617150  0.38998966
   0.98692257  0.99200701  0.39059257
   0.31754137  0.99322861  0.39011366
   0.64630926  0.32269945  0.39254986
   0.99409775  0.66491446  0.38278173
   0.99575798  0.31583409  0.39616224
   0.65285741  0.66425514  0.38638360
Direct configuration=     3
   0.70402613  0.43422585  0.47776599
   0.90507048  0.39097729  0.46599281
   0.68100809  0.46635696  0.52716643
   0.98675500  0.32859100  0.07437600
   0.32008800  0.32859100  0.07437600
   0.65342200  0.32859100  0.07437600
   0.98675500  0.66192500  0.07437600
   0.32008800  0.66192500  0.07437600
   0.65342200  0.66192500  0.07437600
   0.32008800  0.99525800  0.07437600
   0.65342200  0.99525800  0.07437600
   0.98675500  0.99525800  0.07437600
   0.20897700  0.10636900  0.17918600
   0.54231100  0.10636900  0.17918600
   0.87564400  0.10636900  0.17918600
   0.20897700  0.43970300  0.17918600
   0.54231100  0.43970300  0.17918600
   0.87564400  0.43970300  0.17918600
   0.20897700  0.77303600  0.17918600
   0.54231100  0.77303600  0.17918600
   0.87564400  0.77303600  0.17918600
   0.10026316  0.54987141  0.28125419
   0.42837557  0.88420200  0.28280182
   0.76501665  0.22064234  0.28651833
   0.09663953  0.21863876  0.28296090
   0.43025246  0.21418342  0.28548140
   0.09722178  0.88649222  0.28420866
   0.76441981  0.88408267  0.27970477
   0.43252156  0.54998807  0.28058111
   0.76254531  0.55112726  0.28012088
   0.32035469  0.65736603  0.38946114
   0.65018243  0.98830040  0.38348547
   0.32094346  0.32613221  0.38977890
   0.98679811  0.99182141  0.39041507
   0.31760790  0.99286182  0.39006047
   0.64591216  0.32386179  0.39304330
   0.99392888  0.66494381  0.38294551
   0.99590038  0.31606316  0.39606813
   0.65305889  0.66426604  0.38627466
Direct configuration=     4
   0.69953481  0.42363453  0.47544568
   0.90833729  0.39505555  0.46686503
   0.68410798  0.46733196  0.52523540
   0.98675500  0.32859100  0.07437600
   0.32008800  0.32859100  0.07437600
   0.65342200  0.32859100  0.07437600
   0.98675500  0.66192500  0.07437600
   0.32008800  0.66192500  0.07437600
   0.65342200  0.66192500  0.07437600
   0.32008800  0.99525800  0.07437600
   0.65342200  0.99525800  0.07437600
   0.98675500  0.99525800  0.07437600
   0.20897700  0.10636900  0.17918600
   0.54231100  0.10636900  0.17918600
   0.87564400  0.10636900  0.17918600
   0.20897700  0.43970300  0.17918600
   0.54231100  0.43970300  0.17918600
   0.87564400  0.43970300  0.17918600
   0.20897700  0.77303600  0.17918600
   0.54231100  0.77303600  0.17918600
   0.87564400  0.77303600  0.17918600
   0.09892784  0.54897599  0.28261796
   0.42832234  0.88297119  0.28282841
   0.76530902  0.22127135  0.28522243
   0.09575706  0.21942835  0.28478510
   0.43155152  0.21644154  0.28479862
   0.09721376  0.88542701  0.28325180
   0.76534659  0.88529803  0.28167839
   0.43032814  0.54904531  0.28271137
   0.76375018  0.54942185  0.28197639
   0.32151466  0.65876910  0.38782632
   0.64964258  0.98746390  0.38470530
   0.32027293  0.32584260  0.38864025
   0.98614652  0.99079409  0.38945832
   0.31804143  0.99096315  0.38973626
   0.64371317  0.32997364  0.39572268
   0.99308094  0.66515593  0.38385973
   0.99642227  0.31732708  0.39564924
   0.65415824  0.66443293  0.38567579
Direct configuration=     5
   0.70057892  0.42393283  0.47620516
   0.90901004  0.39543909  0.46669947
   0.68378516  0.46727279  0.52535432
   0.98675500  0.32859100  0.07437600
   0.32008800  0.32859100  0.07437600
   0.65342200  0.32859100  0.07437600
   0.98675500  0.66192500  0.07437600
   0.32008800  0.66192500  0.07437600
   0.65342200  0.66192500  0.07437600
   0.32008800  0.99525800  0.07437600
   0.65342200  0.99525800  0.07437600
   0.98675500  0.99525800  0.07437600
   0.20897700  0.10636900  0.17918600
   0.54231100  0.10636900  0.17918600
   0.87564400  0.10636900  0.17918600
   0.20897700  0.43970300  0.17918600
   0.54231100  0.43970300  0.17918600
   0.87564400  0.43970300  0.17918600
   0.20897700  0.77303600  0.17918600
   0.54231100  0.77303600  0.17918600
   0.87564400  0.77303600  0.17918600
   0.09882327  0.54891135  0.28252343
   0.42859942  0.88333500  0.28278685
   0.76496881  0.22087122  0.28544117
   0.09567040  0.21932261  0.28462426
   0.43156588  0.21618306  0.28484430
   0.09728894  0.88543545  0.28328345
   0.76519380  0.88515312  0.28146187
   0.43067179  0.54917955  0.28243634
   0.76359351  0.54956504  0.28183557
   0.32142102  0.65887415  0.38792602
   0.64980619  0.98814813  0.38471391
   0.32023542  0.32559692  0.38870671
   0.98629193  0.99085059  0.38950450
   0.31821472  0.99123708  0.38965197
   0.64265533  0.32828582  0.39476671
   0.99327773  0.66529767  0.38397020
   0.99569252  0.31727903  0.39575834
   0.65416510  0.66468693  0.38573636
