       N       E                     dE             d eps       ncg     rms          rms(c)
DAV:   1     0.242030908351E+04    0.24203E+04   -0.15949E+05  1824   0.129E+03
DAV:   2    -0.642744085312E+02   -0.24846E+04   -0.23027E+04  2120   0.286E+02
DAV:   3    -0.240349021322E+03   -0.17607E+03   -0.15987E+03  2168   0.690E+01
DAV:   4    -0.248083818447E+03   -0.77348E+01   -0.74376E+01  2392   0.137E+01
DAV:   5    -0.248301129037E+03   -0.21731E+00   -0.21507E+00  2488   0.233E+00    0.272E+01
RMM:   6    -0.244690012960E+03    0.36111E+01   -0.54527E+01  1831   0.148E+01    0.272E+01
RMM:   7    -0.238100510604E+03    0.65895E+01   -0.30812E+01  1830   0.874E+00    0.186E+01
RMM:   8    -0.234620579363E+03    0.34799E+01   -0.78504E+00  1831   0.486E+00    0.163E+01
RMM:   9    -0.234356724134E+03    0.26386E+00   -0.21061E+00  1829   0.225E+00    0.156E+01
RMM:  10    -0.230771368376E+03    0.35854E+01   -0.15243E+00  1831   0.196E+00    0.456E+00
RMM:  11    -0.230427191656E+03    0.34418E+00   -0.43973E-01  1831   0.107E+00    0.313E+00
RMM:  12    -0.230322826106E+03    0.10437E+00   -0.19821E-01  1831   0.711E-01    0.259E+00
RMM:  13    -0.230265494368E+03    0.57332E-01   -0.15045E-01  1831   0.641E-01    0.190E+00
RMM:  14    -0.230230133759E+03    0.35361E-01   -0.85854E-02  1831   0.508E-01    0.974E-01
RMM:  15    -0.230217739172E+03    0.12395E-01   -0.26795E-02  1832   0.273E-01    0.478E-01
RMM:  16    -0.230215760599E+03    0.19786E-02   -0.65029E-03  1830   0.136E-01    0.325E-01
RMM:  17    -0.230214541598E+03    0.12190E-02   -0.25087E-03  1822   0.857E-02    0.172E-01
RMM:  18    -0.230214531695E+03    0.99037E-05   -0.10295E-03  1791   0.539E-02    0.124E-01
RMM:  19    -0.230214507485E+03    0.24210E-04   -0.36923E-04  1259   0.350E-02
   1 F= -.23021451E+03 E0= -.23020605E+03  d E =-.230215E+03
       N       E                     dE             d eps       ncg     rms          rms(c)
DAV:   1    -0.230358612747E+03   -0.14408E+00   -0.22280E+01  1856   0.876E+00    0.646E-01
RMM:   2    -0.230406493656E+03   -0.47881E-01   -0.43764E-01  1833   0.138E+00    0.103E+00
RMM:   3    -0.230404362900E+03    0.21308E-02   -0.30432E-02  1863   0.305E-01    0.915E-01
RMM:   4    -0.230395079226E+03    0.92837E-02   -0.72317E-03  1850   0.141E-01    0.522E-01
RMM:   5    -0.230391369620E+03    0.37096E-02   -0.35509E-03  1834   0.984E-02    0.328E-01
RMM:   6    -0.230391154709E+03    0.21491E-03   -0.47458E-03  1826   0.116E-01    0.280E-01
RMM:   7    -0.230390397505E+03    0.75720E-03   -0.29565E-03  1827   0.930E-02    0.164E-01
RMM:   8    -0.230390105654E+03    0.29185E-03   -0.94706E-04  1818   0.532E-02    0.897E-02
RMM:   9    -0.230390080111E+03    0.25543E-04   -0.20612E-04  1018   0.265E-02
   2 F= -.23039008E+03 E0= -.23038257E+03  d E =-.175573E+00
       N       E                     dE             d eps       ncg     rms          rms(c)
DAV:   1    -0.230436923391E+03   -0.46818E-01   -0.64968E+00  1840   0.489E+00    0.442E-01
RMM:   2    -0.230460724105E+03   -0.23801E-01   -0.25134E-01  1844   0.826E-01    0.486E-01
RMM:   3    -0.230456943055E+03    0.37811E-02   -0.93339E-03  1842   0.162E-01    0.373E-01
RMM:   4    -0.230457523998E+03   -0.58094E-03   -0.21271E-03  1851   0.747E-02    0.440E-01
RMM:   5    -0.230455815641E+03    0.17084E-02   -0.24846E-03  1828   0.793E-02    0.338E-01
RMM:   6    -0.230455205890E+03    0.60975E-03   -0.34152E-03  1824   0.951E-02    0.267E-01
RMM:   7    -0.230454191235E+03    0.10147E-02   -0.14687E-03  1821   0.640E-02    0.964E-02
RMM:   8    -0.230454109484E+03    0.81751E-04   -0.24710E-04  1063   0.286E-02
   3 F= -.23045411E+03 E0= -.23044709E+03  d E =-.640294E-01
       N       E                     dE             d eps       ncg     rms          rms(c)
