 vasp.5.4.4 16052018 (build Apr 24 2014 20:13:14) complex standard
 Contain Constrained Minimization Technique (TS), Periodic NBO, VASPsol, libbeef, VASP2WANNIER90, Constrained Cell Relaxation
 executed on Center for Computational Chemistry by phu@node09 date 2025.09.27 23:37:28
 running on    8 total cores
 distrk:  each k-point on    8 cores,    1 groups
 distr:  one band on NCORES_PER_BAND=   2 cores,    4 groups


--------------------------------------------------------------------------------------------------------


 INCAR:
 POTCAR:   PAW_PBE C 08Apr2002                    
 POTCAR:   PAW_PBE O 08Apr2002                    
 POTCAR:    PAW_PBE Pt 04Feb2005                  
 POTCAR:   PAW_PBE C 08Apr2002                    
   VRHFIN =C: s2p2                                                              
   LEXCH  = PE                                                                  
   EATOM  =   147.1560 eV,   10.8157 Ry                                         
                                                                                
   TITEL  = PAW_PBE C 08Apr2002                                                 
   LULTRA =        F    use ultrasoft PP ?                                      
   IUNSCR =        0    unscreen: 0-lin 1-nonlin 2-no                           
   RPACOR =     .000    partial core radius                                     
   POMASS =   12.011; ZVAL   =    4.000    mass and valenz                      
   RCORE  =    1.500    outmost cutoff radius                                   
   RWIGS  =    1.630; RWIGS  =     .863    wigner-seitz radius (au A)           
   ENMAX  =  400.000; ENMIN  =  300.000 eV                                      
   ICORE  =        2    local potential                                         
   LCOR   =        T    correct aug charges                                     
   LPAW   =        T    paw PP                                                  
   EAUG   =  644.873                                                            
   DEXC   =     .000                                                            
   RMAX   =    2.266    core radius for proj-oper                               
   RAUG   =    1.300    factor for augmentation sphere                          
   RDEP   =    1.501    radius for radial grids                                 
   RDEPT  =    1.300    core radius for aug-charge                              
   QCUT   =   -5.516; QGAM   =   11.032    optimization parameters              
                                                                                
   Description                                                                  
     l     E      TYP  RCUT    TYP  RCUT                                        
     0   .000     23  1.200                                                     
     0   .000     23  1.200                                                     
     1   .000     23  1.500                                                     
     1  2.500     23  1.500                                                     
     2   .000      7  1.500                                                     
  local pseudopotential read in
  atomic valenz-charges read in
  non local Contribution for L=           0  read in
    real space projection operators read in
  non local Contribution for L=           0  read in
    real space projection operators read in
  non local Contribution for L=           1  read in
    real space projection operators read in
  non local Contribution for L=           1  read in
    real space projection operators read in
    PAW grid and wavefunctions read in
 
   number of l-projection  operators is LMAX  =           4
   number of lm-projection operators is LMMAX =           8
 
 POTCAR:   PAW_PBE O 08Apr2002                    
   VRHFIN =O: s2p4                                                              
   LEXCH  = PE                                                                  
   EATOM  =   432.3788 eV,   31.7789 Ry                                         
                                                                                
   TITEL  = PAW_PBE O 08Apr2002                                                 
   LULTRA =        F    use ultrasoft PP ?                                      
   IUNSCR =        0    unscreen: 0-lin 1-nonlin 2-no                           
   RPACOR =     .000    partial core radius                                     
   POMASS =   16.000; ZVAL   =    6.000    mass and valenz                      
   RCORE  =    1.520    outmost cutoff radius                                   
   RWIGS  =    1.550; RWIGS  =     .820    wigner-seitz radius (au A)           
   ENMAX  =  400.000; ENMIN  =  300.000 eV                                      
   ICORE  =        2    local potential                                         
   LCOR   =        T    correct aug charges                                     
   LPAW   =        T    paw PP                                                  
   EAUG   =  605.392                                                            
   DEXC   =     .000                                                            
   RMAX   =    2.264    core radius for proj-oper                               
   RAUG   =    1.300    factor for augmentation sphere                          
   RDEP   =    1.550    radius for radial grids                                 
   QCUT   =   -5.520; QGAM   =   11.041    optimization parameters              
                                                                                
   Description                                                                  
     l     E      TYP  RCUT    TYP  RCUT                                        
     0   .000     23  1.200                                                     
     0  -.700     23  1.200                                                     
     1   .000     23  1.520                                                     
     1   .600     23  1.520                                                     
     2   .000      7  1.500                                                     
  local pseudopotential read in
  atomic valenz-charges read in
  non local Contribution for L=           0  read in
    real space projection operators read in
  non local Contribution for L=           0  read in
    real space projection operators read in
  non local Contribution for L=           1  read in
    real space projection operators read in
  non local Contribution for L=           1  read in
    real space projection operators read in
    PAW grid and wavefunctions read in
 
   number of l-projection  operators is LMAX  =           4
   number of lm-projection operators is LMMAX =           8
 
 POTCAR:    PAW_PBE Pt 04Feb2005                  
   VRHFIN =Pt: s1d9                                                             
   LEXCH  = PE                                                                  
   EATOM  =   729.1182 eV,   53.5887 Ry                                         
                                                                                
   TITEL  = PAW_PBE Pt 04Feb2005                                                
   LULTRA =        F    use ultrasoft PP ?                                      
   IUNSCR =        1    unscreen: 0-lin 1-nonlin 2-no                           
   RPACOR =    2.330    partial core radius                                     
   POMASS =  195.080; ZVAL   =   10.000    mass and valenz                      
   RCORE  =    2.600    outmost cutoff radius                                   
   RWIGS  =    2.750; RWIGS  =    1.455    wigner-seitz radius (au A)           
   ENMAX  =  230.283; ENMIN  =  172.712 eV                                      
   ICORE  =        3    local potential                                         
   LCOR   =        T    correct aug charges                                     
   LPAW   =        T    paw PP                                                  
   EAUG   =  358.966                                                            
   DEXC   =     .000                                                            
   RMAX   =    3.038    core radius for proj-oper                               
   RAUG   =    1.300    factor for augmentation sphere                          
   RDEP   =    2.761    radius for radial grids                                 
   QCUT   =   -4.114; QGAM   =    8.228    optimization parameters              
                                                                                
   Description                                                                  
     l     E      TYP  RCUT    TYP  RCUT                                        
     2   .000     23  2.500                                                     
     2   .000     23  2.500                                                     
     0   .000     23  2.500                                                     
     0   .000     23  2.500                                                     
     1  -.200     23  2.600                                                     
     1  1.500     23  2.600                                                     
     3   .000     23  2.500                                                     
  local pseudopotential read in
  partial core-charges read in
  atomic valenz-charges read in
  non local Contribution for L=           2  read in
    real space projection operators read in
  non local Contribution for L=           2  read in
    real space projection operators read in
  non local Contribution for L=           0  read in
    real space projection operators read in
  non local Contribution for L=           0  read in
    real space projection operators read in
  non local Contribution for L=           1  read in
    real space projection operators read in
  non local Contribution for L=           1  read in
    real space projection operators read in
    PAW grid and wavefunctions read in
 
   number of l-projection  operators is LMAX  =           6
   number of lm-projection operators is LMMAX =          18
 
 Optimization of the real space projectors (new method)

 maximal supplied QI-value         = 25.13
 optimisation between [QCUT,QGAM] = [ 10.81, 21.61] = [ 32.71,130.83] Ry 
 Optimized for a Real-space Cutoff    1.23 Angstroem

   l    n(q)    QCUT    max X(q) W(low)/X(q) W(high)/X(q)  e(spline) 
   0      8    10.807     5.582    0.53E-04    0.84E-04    0.44E-07
   0      8    10.807    69.432    0.35E-03    0.71E-03    0.24E-06
   1      7    10.807     2.780    0.44E-04    0.88E-04    0.89E-07
   1      7    10.807     4.549    0.14E-03    0.28E-03    0.13E-06
 Optimization of the real space projectors (new method)

 maximal supplied QI-value         = 24.76
 optimisation between [QCUT,QGAM] = [ 10.64, 21.54] = [ 31.73,129.89] Ry 
 Optimized for a Real-space Cutoff    1.23 Angstroem

   l    n(q)    QCUT    max X(q) W(low)/X(q) W(high)/X(q)  e(spline) 
   0      8    10.645     4.192    0.69E-04    0.93E-04    0.58E-07
   0      8    10.645     8.473    0.40E-03    0.65E-03    0.17E-06
   1      7    10.645     2.474    0.80E-04    0.12E-03    0.30E-07
   1      7    10.645     3.912    0.24E-03    0.53E-03    0.16E-06
 Optimization of the real space projectors (new method)

 maximal supplied QI-value         = 14.36
 optimisation between [QCUT,QGAM] = [ 10.77, 21.69] = [ 32.49,131.70] Ry 
 Optimized for a Real-space Cutoff    1.46 Angstroem

   l    n(q)    QCUT    max X(q) W(low)/X(q) W(high)/X(q)  e(spline) 
   2      9    10.771     3.903    0.38E-04    0.12E-03    0.82E-07
   2      9    10.771    18.372    0.13E-03    0.32E-03    0.28E-06
   0     10    10.771    13.697    0.11E-04    0.86E-05    0.85E-08
   0     10    10.771    65.529    0.40E-04    0.12E-03    0.14E-06
   1      9    10.771     7.604    0.48E-04    0.31E-04    0.38E-07
   1      9    10.771    12.136    0.35E-03    0.16E-03    0.23E-06
 PAW_PBE C 08Apr2002                    :
 energy of atom  1       EATOM= -147.1560
 kinetic energy error for atom=    0.0116 (will be added to EATOM!!)
 PAW_PBE O 08Apr2002                    :
 energy of atom  2       EATOM= -432.3788
 kinetic energy error for atom=    0.0389 (will be added to EATOM!!)
  PAW_PBE Pt 04Feb2005                  :
 energy of atom  3       EATOM= -729.1182
 kinetic energy error for atom=    0.0051 (will be added to EATOM!!)
 
 
 POSCAR: C    O    Pt                            
  positions in direct lattice
  No initial velocities read in
 exchange correlation table for  LEXCH =        8
   RHO(1)=    0.500       N(1)  =     2000
   RHO(2)=  100.500       N(2)  =     4000

 VTST: version 3.2, (02/03/18)

 CHAIN: initializing optimizer
 
 OPT: Using VASP QUASI-newton optimizer
 CHAIN: Read ICHAIN            0
 
 POSCAR: C    O    Pt                            
  positions in direct lattice
  No initial velocities read in
 


--------------------------------------------------------------------------------------------------------


 ion  position               nearest neighbor table
   1  0.699  0.437  0.473-   3 1.16   2 1.96  36 1.97
   2  0.902  0.389  0.465-  38 1.92   1 1.96  36 2.55  37 2.61
   3  0.670  0.464  0.523-   1 1.16
   4  0.987  0.329  0.074-  15 2.81  16 2.81  12 2.81   5 2.81  11 2.81   6 2.81  18 2.81   8 2.81
                             7 2.81
   5  0.320  0.329  0.074-  13 2.81  10 2.81   4 2.81  12 2.81  16 2.81  17 2.81   8 2.81   9 2.81
                             6 2.81
   6  0.653  0.329  0.074-  14 2.81  18 2.81  11 2.81   4 2.81  17 2.81   7 2.81  10 2.81   9 2.81
                             5 2.81
   7  0.987  0.662  0.074-  18 2.81  21 2.81  19 2.81  12 2.81   8 2.81  10 2.81   9 2.81   6 2.81
                             4 2.81
   8  0.320  0.662  0.074-  16 2.81  19 2.81  10 2.81   7 2.81  20 2.81   4 2.81  11 2.81   5 2.81
                             9 2.81
   9  0.653  0.662  0.074-  17 2.81  20 2.81  21 2.81  11 2.81  12 2.81   7 2.81   6 2.81   5 2.81
                             8 2.81
  10  0.320  0.995  0.074-  13 2.81  19 2.81   5 2.81   8 2.81  12 2.81   7 2.81  14 2.81   6 2.81
                            11 2.81
  11  0.653  0.995  0.074-  14 2.81  20 2.81  15 2.81   9 2.81   6 2.81  12 2.81   4 2.81   8 2.81
                            10 2.81
  12  0.987  0.995  0.074-  15 2.81  21 2.81  13 2.81   7 2.81   4 2.81  10 2.81   5 2.81  11 2.81
                             9 2.81
  13  0.209  0.106  0.179-  26 2.80  10 2.81   5 2.81  12 2.81  19 2.81  15 2.81  21 2.81  16 2.81
                            17 2.81  14 2.81  27 2.81  25 2.82
  14  0.542  0.106  0.179-  26 2.75  23 2.79   6 2.81  11 2.81  20 2.81  15 2.81  10 2.81  18 2.81
                            19 2.81  17 2.81  13 2.81  24 2.87
  15  0.876  0.106  0.179-  28 2.78  12 2.81   4 2.81  11 2.81  21 2.81  13 2.81  14 2.81  20 2.81
                            16 2.81  18 2.81  25 2.82  24 2.90
  16  0.209  0.440  0.179-  25 2.78  29 2.79  22 2.80   8 2.81   4 2.81  19 2.81  18 2.81   5 2.81
                            15 2.81  20 2.81  13 2.81  17 2.81
  17  0.542  0.440  0.179-  30 2.72  26 2.77   9 2.81  20 2.81  21 2.81  18 2.81   6 2.81   5 2.81
                            14 2.81  16 2.81  13 2.81  29 2.81
  18  0.876  0.440  0.179-  30 2.73   7 2.81   6 2.81  21 2.81  16 2.81  19 2.81  17 2.81   4 2.81
                            14 2.81  15 2.81  22 2.82  24 2.89
  19  0.209  0.773  0.179-  27 2.75  23 2.78   8 2.81  10 2.81   7 2.81  16 2.81  13 2.81  18 2.81
                            21 2.81  14 2.81  20 2.81  22 2.82
  20  0.542  0.773  0.179-  29 2.78  23 2.80  28 2.80  11 2.81   9 2.81  17 2.81  14 2.81  21 2.81
                            15 2.81   8 2.81  16 2.81  19 2.81
  21  0.876  0.773  0.179-  30 2.72  28 2.76   7 2.81  12 2.81   9 2.81  18 2.81  15 2.81  19 2.81
                            13 2.81  17 2.81  20 2.81  27 2.81
  22  0.100  0.550  0.284-  25 2.76  27 2.76  29 2.76  31 2.79  23 2.79  16 2.80  19 2.82  18 2.82
                            24 2.84  30 2.84  37 2.85  38 2.96
  23  0.429  0.884  0.283-  27 2.72  32 2.73  26 2.77  19 2.78  14 2.79  22 2.79  29 2.79  20 2.80
                            24 2.80  31 2.82  35 2.85  28 2.87
  24  0.761  0.216  0.288-  32 2.67  26 2.73  36 2.79  23 2.80  30 2.81  25 2.84  22 2.84  28 2.84
                            14 2.87  18 2.89  15 2.90  38 2.93
  25  0.100  0.223  0.284-  22 2.76  29 2.77  16 2.78  15 2.82  13 2.82  33 2.83  28 2.83  24 2.84
                            38 2.86  26 2.87  34 2.89  27 2.91
  26  0.438  0.218  0.282-  24 2.73  14 2.75  30 2.77  17 2.77  23 2.77  13 2.80  36 2.81  33 2.84
                            27 2.84  29 2.86  25 2.87  35 2.87
  27  0.103  0.879  0.283-  23 2.72  19 2.75  22 2.76  21 2.81  13 2.81  30 2.82  28 2.83  35 2.83
                            37 2.84  26 2.84  34 2.88  25 2.91
  28  0.769  0.884  0.282-  32 2.72  21 2.76  30 2.78  15 2.78  20 2.80  25 2.83  29 2.83  27 2.83
                            39 2.84  34 2.84  24 2.84  23 2.87
  29  0.429  0.553  0.283-  31 2.72  22 2.76  25 2.77  20 2.78  16 2.79  23 2.79  17 2.81  30 2.82
                            28 2.83  26 2.86  39 2.87  33 2.88
  30  0.763  0.551  0.279-  17 2.72  21 2.72  18 2.73  26 2.77  28 2.78  24 2.81  27 2.82  29 2.82
                            22 2.84  39 2.93  36 2.95  37 2.98
  31  0.327  0.656  0.387-  29 2.72  39 2.73  32 2.75  22 2.79  38 2.80  33 2.82  23 2.82  37 2.85
                            35 2.89
  32  0.652  0.985  0.383-  24 2.67  39 2.70  28 2.72  23 2.73  31 2.75  34 2.79  35 2.85  38 2.89
                            36 2.91
  33  0.322  0.320  0.390-  36 2.68  35 2.72  38 2.75  31 2.82  34 2.82  25 2.83  26 2.84  39 2.87
                            29 2.88
  34  0.984  0.989  0.391-  39 2.74  38 2.76  37 2.77  35 2.79  32 2.79  33 2.82  28 2.84  27 2.88
                            25 2.89
  35  0.319  0.995  0.390-  33 2.72  36 2.76  37 2.76  34 2.79  27 2.83  23 2.85  32 2.85  26 2.87
                            31 2.89
  36  0.643  0.325  0.391-   1 1.97   2 2.55  33 2.68  35 2.76  24 2.79  26 2.81  39 2.83  37 2.91
                            32 2.91  30 2.95  38 3.01
  37  0.993  0.665  0.392-   2 2.61  35 2.76  34 2.77  27 2.84  31 2.85  22 2.85  39 2.85  36 2.91
                            38 2.91  30 2.98
  38  0.998  0.322  0.396-   2 1.92  33 2.75  34 2.76  31 2.80  25 2.86  32 2.89  37 2.91  24 2.93
                            22 2.96  36 3.01
  39  0.656  0.668  0.390-  32 2.70  31 2.73  34 2.74  36 2.83  28 2.84  37 2.85  29 2.87  33 2.87
                            30 2.93
 

IMPORTANT INFORMATION: All symmetrisations will be switched off!
NOSYMM: (Re-)initialisation of all symmetry stuff for point group C_1.

 
 
 KPOINTS: mesh auto                               

Automatic generation of k-mesh.
Space group operators:
 irot       det(A)        alpha          n_x          n_y          n_z        tau_x        tau_y        tau_z
    1     1.000000     0.000000     1.000000     0.000000     0.000000     0.000000     0.000000     0.000000
 
 Subroutine IBZKPT returns following result:
 ===========================================
 
 Found      4 irreducible k-points:
 
 Following reciprocal coordinates:
            Coordinates               Weight
  0.000000  0.000000  0.000000      1.000000
  0.500000  0.000000  0.000000      1.000000
 -0.000000  0.500000  0.000000      1.000000
  0.500000  0.500000  0.000000      1.000000
 
 Following cartesian coordinates:
            Coordinates               Weight
  0.000000  0.000000  0.000000      1.000000
  0.068522  0.000000  0.000000      1.000000
  0.034261  0.059342  0.000000      1.000000
  0.102783  0.059342  0.000000      1.000000
 


--------------------------------------------------------------------------------------------------------




 Dimension of arrays:
   k-points           NKPTS =      4   k-points in BZ     NKDIM =      4   number of bands    NBANDS=    228
   number of dos      NEDOS =    301   number of ions     NIONS =     39
   non local maximal  LDIM  =      6   non local SUM 2l+1 LMDIM =     18
   total plane-waves  NPLWV = 276480
   max r-space proj   IRMAX =   2756   max aug-charges    IRDMAX=  12646
   dimension x,y,z NGX =    48 NGY =   48 NGZ =  120
   dimension x,y,z NGXF=    96 NGYF=   96 NGZF=  240
   support grid    NGXF=    96 NGYF=   96 NGZF=  240
   ions per type =               1   2  36
   NGX,Y,Z   is equivalent  to a cutoff of   9.47,  9.47,  9.12 a.u.
   NGXF,Y,Z  is equivalent  to a cutoff of  18.94, 18.94, 18.24 a.u.

 SYSTEM =  metal                                   
 POSCAR =  C    O    Pt                            

 Startparameter for this run:
   NWRITE =      2    write-flag & timer
   PREC   = normal    normal or accurate (medium, high low for compatibility)
   ISTART =      0    job   : 0-new  1-cont  2-samecut
   ICHARG =      2    charge: 1-file 2-atom 10-const
   ISPIN  =      1    spin polarized calculation?
   LNONCOLLINEAR =      F non collinear calculations
   LSORBIT =      F    spin-orbit coupling
   INIWAV =      1    electr: 0-lowe 1-rand  2-diag
   LASPH  =      F    aspherical Exc in radial PAW
   METAGGA=      F    non-selfconsistent MetaGGA calc.

 Electronic Relaxation 1
   ENCUT  =  450.0 eV  33.07 Ry    5.75 a.u.  14.57 14.57 37.84*2*pi/ulx,y,z
   ENINI  =  450.0     initial cutoff
   ENAUG  =  644.9 eV  augmentation charge cutoff
   NELM   =     60;   NELMIN=  8; NELMDL= -5     # of ELM steps 
   EDIFF  = 0.1E-03   stopping-criterion for ELM
   LREAL  =      T    real-space projection
   NLSPLINE    = F    spline interpolate recip. space projectors
   LCOMPAT=      F    compatible to vasp.4.4
   GGA_COMPAT  = T    GGA compatible to vasp.4.4-vasp.4.6
   LMAXPAW     = -100 max onsite density
   LMAXMIX     =    2 max onsite mixed and CHGCAR
   VOSKOWN=      0    Vosko Wilk Nusair interpolation
   ROPT   =   -0.00050  -0.00050  -0.00050
 Ionic relaxation
   EDIFFG = -.5E-01   stopping-criterion for IOM
   NSW    =   5000    number of steps for IOM
   NBLOCK =      1;   KBLOCK =   5000    inner block; outer block 
   IBRION =      1    ionic relax: 0-MD 1-quasi-New 2-CG
   NFREE  =      0    steps in history (QN), initial steepest desc. (CG)
   ISIF   =      2    stress and relaxation
   IWAVPR =     11    prediction:  0-non 1-charg 2-wave 3-comb
   ISYM   =      0    0-nonsym 1-usesym 2-fastsym
   LCORR  =      T    Harris-Foulkes like correction to forces

   POTIM  = 0.2000    time-step for ionic-motion
   TEIN   =    0.0    initial temperature
   TEBEG  =    0.0;   TEEND  =   0.0 temperature during run
   SMASS  =  -3.00    Nose mass-parameter (am)
   estimated Nose-frequenzy (Omega)   =  0.10E-29 period in steps =****** mass=  -0.162E-26a.u.
   SCALEE = 1.0000    scale energy and forces
   NPACO  =    256;   APACO  = 16.0  distance and # of slots for P.C.
   PSTRESS=    0.0 pullay stress

  Mass of Ions in am
   POMASS =  12.01 16.00195.08
  Ionic Valenz
   ZVAL   =   4.00  6.00 10.00
  Atomic Wigner-Seitz radii
   RWIGS  =  -1.00 -1.00 -1.00
  virtual crystal weights 
   VCA    =   1.00  1.00  1.00
   NELECT =     376.0000    total number of electrons
   NUPDOWN=      -1.0000    fix difference up-down

 DOS related values:
   EMIN   =  10.00;   EMAX   =-10.00  energy-range for DOS
   EFERMI =   0.00
   ISMEAR =     1;   SIGMA  =   0.20  broadening in eV -4-tet -1-fermi 0-gaus

 Electronic relaxation 2 (details)
   IALGO  =     68    algorithm
   LDIAG  =      T    sub-space diagonalisation (order eigenvalues)
   LSUBROT=      F    optimize rotation matrix (better conditioning)
   TURBO    =      0    0=normal 1=particle mesh
   IRESTART =      0    0=no restart 2=restart with 2 vectors
   NREBOOT  =      0    no. of reboots
   NMIN     =      0    reboot dimension
   EREF     =   0.00    reference energy to select bands
   IMIX   =      4    mixing-type and parameters
     AMIX     =   0.40;   BMIX     =  1.00
     AMIX_MAG =   1.60;   BMIX_MAG =  1.00
     AMIN     =   0.10
     WC   =   100.;   INIMIX=   1;  MIXPRE=   1;  MAXMIX= -45

 Intra band minimization:
   WEIMIN = 0.0010     energy-eigenvalue tresh-hold
   EBREAK =  0.11E-06  absolut break condition
   DEPER  =   0.30     relativ break condition  

   TIME   =   0.40     timestep for ELM

  volume/ion in A,a.u.               =      34.49       232.77
  Fermi-wavevector in a.u.,A,eV,Ry     =   1.070385  2.022734 15.588510  1.145723
  Thomas-Fermi vector in A             =   2.206093
 
 Write flags
   LWAVE        =      F    write WAVECAR
   LDOWNSAMPLE  =      F    k-point downsampling of WAVECAR
   LCHARG       =      F    write CHGCAR
   LVTOT        =      F    write LOCPOT, total local potential
   LVHAR        =      F    write LOCPOT, Hartree potential only
   LELF         =      F    write electronic localiz. function (ELF)
   LORBIT       =      0    0 simple, 1 ext, 2 COOP (PROOUT), +10 PAW based schemes


 Dipole corrections
   LMONO  =      F    monopole corrections only (constant potential shift)
   LDIPOL =      F    correct potential (dipole corrections)
   IDIPOL =      0    1-x, 2-y, 3-z, 4-all directions 
   EPSILON=  1.0000000 bulk dielectric constant

 Exchange correlation treatment:
   GGA     =    --    GGA type
   LEXCH   =     8    internal setting for exchange type
   VOSKOWN=      0    Vosko Wilk Nusair interpolation
   LHFCALC =     F    Hartree Fock is set to
   LHFONE  =     F    Hartree Fock one center treatment
   AEXX    =    0.0000 exact exchange contribution

 Linear response parameters
   LEPSILON=     F    determine dielectric tensor
   LRPA    =     F    only Hartree local field effects (RPA)
   LNABLA  =     F    use nabla operator in PAW spheres
   LVEL    =     F    velocity operator in full k-point grid
   LINTERFAST=   F  fast interpolation
   KINTER  =     0    interpolate to denser k-point grid
   CSHIFT  =0.1000    complex shift for real part using Kramers Kronig
   OMEGAMAX=  -1.0    maximum frequency
   DEG_THRESHOLD= 0.2000000E-02 threshold for treating states as degnerate
   RTIME   =   -0.100 relaxation time in fs
  (WPLASMAI=    0.000 imaginary part of plasma frequency in eV, 0.658/RTIME)
   DFIELD  = 0.0000000 0.0000000 0.0000000 field for delta impulse in time
 
 Orbital magnetization related:
   ORBITALMAG=     F  switch on orbital magnetization
   LCHIMAG   =     F  perturbation theory with respect to B field
   DQ        =  0.001000  dq finite difference perturbation B field
   LLRAUG    =     F  two centre corrections for induced B field



--------------------------------------------------------------------------------------------------------


 quasi-Newton-method for relaxation of ions
   using selective dynamics as specified on POSCAR
 charge density and potential will be updated during run
 non-spin polarized calculation
 RMM-DIIS sequential band-by-band and
  variant of blocked Davidson during initial phase
 perform sub-space diagonalisation
    before iterative eigenvector-optimisation
 modified Broyden-mixing scheme, WC =      100.0
 initial mixing is a Kerker type mixing with AMIX =  0.4000 and BMIX =      1.0000
 Hartree-type preconditioning will be used
 using additional bands           40
 real space projection scheme for non local part
 use partial core corrections
 calculate Harris-corrections to forces 
   (improved forces if not selfconsistent)
 use gradient corrections 
 use of overlap-Matrix (Vanderbilt PP)
 Methfessel and Paxton  Order N= 1 SIGMA  =   0.20


--------------------------------------------------------------------------------------------------------


  energy-cutoff  :      450.00
  volume of cell :     1345.22
      direct lattice vectors                 reciprocal lattice vectors
     7.296955120 -4.212899000  0.000000000     0.137043463  0.000000000  0.000000000
     0.000000000  8.425798000  0.000000000     0.068521732  0.118683121  0.000000000
     0.000000000  0.000000000 21.879635000     0.000000000  0.000000000  0.045704602

  length of vectors
     8.425798004  8.425798000 21.879635000     0.137043463  0.137043463  0.045704602


 
 k-points in units of 2pi/SCALE and weight: mesh auto                               
   0.00000000  0.00000000  0.00000000       0.250
   0.06852173  0.00000000  0.00000000       0.250
   0.03426087  0.05934156  0.00000000       0.250
   0.10278260  0.05934156  0.00000000       0.250
 
 k-points in reciprocal lattice and weights: mesh auto                               
   0.00000000  0.00000000  0.00000000       0.250
   0.50000000  0.00000000  0.00000000       0.250
  -0.00000000  0.50000000  0.00000000       0.250
   0.50000000  0.50000000  0.00000000       0.250
 
 position of ions in fractional coordinates (direct lattice) 
   0.69857928  0.43670153  0.47317915
   0.90241624  0.38875336  0.46480950
   0.67044273  0.46355741  0.52306769
   0.98675500  0.32859100  0.07437600
   0.32008800  0.32859100  0.07437600
   0.65342200  0.32859100  0.07437600
   0.98675500  0.66192500  0.07437600
   0.32008800  0.66192500  0.07437600
   0.65342200  0.66192500  0.07437600
   0.32008800  0.99525800  0.07437600
   0.65342200  0.99525800  0.07437600
   0.98675500  0.99525800  0.07437600
   0.20897700  0.10636900  0.17918600
   0.54231100  0.10636900  0.17918600
   0.87564400  0.10636900  0.17918600
   0.20897700  0.43970300  0.17918600
   0.54231100  0.43970300  0.17918600
   0.87564400  0.43970300  0.17918600
   0.20897700  0.77303600  0.17918600
   0.54231100  0.77303600  0.17918600
   0.87564400  0.77303600  0.17918600
   0.09994682  0.55010138  0.28427688
   0.42850743  0.88412330  0.28288643
   0.76063173  0.21638431  0.28846803
   0.10037079  0.22332238  0.28380663
   0.43802820  0.21808660  0.28212993
   0.10259338  0.87900489  0.28307860
   0.76917777  0.88378713  0.28247278
   0.42910267  0.55301145  0.28316919
   0.76307593  0.55075854  0.27909901
   0.32679825  0.65646722  0.38681573
   0.65164246  0.98517118  0.38278028
   0.32231705  0.32000603  0.38951177
   0.98437461  0.98886898  0.39053607
   0.31892115  0.99528554  0.39044956
   0.64299150  0.32537285  0.39097473
   0.99342500  0.66497374  0.39157913
   0.99781992  0.32203376  0.39617206
   0.65597796  0.66759922  0.39029012
 
 position of ions in cartesian coordinates  (Angst):
   5.09750165  0.73651493 10.35298717
   6.58489084 -0.52623119 10.16986224
   4.89219054  1.08133359 11.44453003
   7.20030695 -1.38845776  1.62731973
   2.33566777  1.42014298  1.62731973
   4.76799101  0.01584050  1.62731973
   7.20030695  1.42014719  1.62731973
   2.33566777  4.22874793  1.62731973
   4.76799101  2.82444545  1.62731973
   2.33566777  7.03734445  1.62731973
   4.76799101  5.63304198  1.62731973
   7.20030695  4.22874371  1.62731973
   1.52489579  0.01584471  3.92052428
   3.95721903 -1.38845776  3.92052428
   6.38953497 -2.79275602  3.92052428
   1.52489579  2.82444966  3.92052428
   3.95721903  1.42014719  3.92052428
   6.38953497  0.01584893  3.92052428
   1.52489579  5.63304619  3.92052428
   3.95721903  4.22874371  3.92052428
   6.38953497  2.82444545  3.92052428
   0.72930748  4.21397722  6.21987428
   3.12679945  5.64418585  6.18945189
   5.55029558 -1.38125413  6.31157517
   0.73240112  1.45881725  6.20958552
   3.19627209 -0.00781492  6.17289993
   0.74861927  6.97410211  6.19365636
   5.61265564  4.20614355  6.18040127
   3.13114290  2.85179660  6.19563849
   5.56813084  1.42581840  6.10658443
   2.38463218  4.15449213  8.46338689
   4.75500578  5.55554946  8.37509282
   2.35193303  1.33841703  8.52237528
   7.18293734  4.18493947  8.54478666
   2.32715335  7.04249228  8.54289386
   4.69188012  0.03266768  8.55438431
   7.24897763  1.41773518  8.56760840
   7.28104720 -1.49032313  8.66810004
   4.78664176  2.86148730  8.53940536
 


--------------------------------------------------------------------------------------------------------


 k-point  1 :   0.0000 0.0000 0.0000  plane waves:   29241
 k-point  2 :   0.5000 0.0000 0.0000  plane waves:   29108
 k-point  3 :  -0.0000 0.5000 0.0000  plane waves:   29108
 k-point  4 :   0.5000 0.5000 0.0000  plane waves:   29108

 maximum and minimum number of plane-waves per node :     14624    14548

 maximum number of plane-waves:     29241
 maximum index in each direction: 
   IXMAX=   14   IYMAX=   14   IZMAX=   37
   IXMIN=  -15   IYMIN=  -15   IZMIN=  -37


 real space projection operators:
  total allocation   :      13550.06 KBytes
  max/ min on nodes  :       6781.22       6768.84


 parallel 3D FFT for wavefunctions:
    minimum data exchange during FFTs selected (reduces bandwidth)
 parallel 3D FFT for charge:
    minimum data exchange during FFTs selected (reduces bandwidth)


 total amount of memory used by VASP MPI-rank0   131948. kBytes
=======================================================================

   base      :      30000. kBytes
   nonlr-proj:      10140. kBytes
   fftplans  :      13556. kBytes
   grid      :      23353. kBytes
   one-center:        311. kBytes
   wavefun   :      54588. kBytes
 
     INWAV:  cpu time    0.0000: real time    0.0000
 Broyden mixing: mesh for mixing (old mesh)
   NGX = 29   NGY = 29   NGZ = 75
  (NGX  = 96   NGY  = 96   NGZ  =240)
  gives a total of  63075 points

 initial charge density was supplied:
 charge density of overlapping atoms calculated
 number of electron     376.0000000 magnetization 
 keeping initial charge density in first step


--------------------------------------------------------------------------------------------------------


 Maximum index for non-local projection operator         1316
 Maximum index for augmentation-charges         1558 (set IRDMAX)


--------------------------------------------------------------------------------------------------------


 First call to EWALD:  gamma=   0.161
 Maximum number of real-space cells 4x 4x 2
 Maximum number of reciprocal cells 2x 2x 5

    FEWALD:  cpu time    0.0024: real time    0.0024


--------------------------------------- Iteration      1(   1)  ---------------------------------------


    POTLOK:  cpu time    0.1983: real time    0.3700
    SETDIJ:  cpu time    0.0170: real time    0.0234
     EDDAV:  cpu time   13.5366: real time   13.9613
       DOS:  cpu time    0.0011: real time    0.0011
    --------------------------------------------
      LOOP:  cpu time   13.7530: real time   14.3558

 eigenvalue-minimisations  :  1824
 total energy-change (2. order) : 0.2420309E+04  (-0.1594898E+05)
 number of electron     376.0000000 magnetization 
 augmentation part      376.0000000 magnetization 

 Free energy of the ion-electron system (eV)
  ---------------------------------------------------
  alpha Z        PSCENC =       975.10247152
  Ewald energy   TEWEN  =     90925.95073056
  -Hartree energ DENC   =   -120017.94837359
  -exchange      EXHF   =         0.00000000
  -V(xc)+E(xc)   XCENC  =       189.42386188
  PAW double counting   =     24789.08602224   -23775.73976456
  entropy T*S    EENTRO =         0.01556599
  eigenvalues    EBANDS =      2074.52440861
  atomic energy  EATOM  =     27259.89416086
  Solvation  Ediel_sol  =         0.00000000
  ---------------------------------------------------
  free energy    TOTEN  =      2420.30908351 eV

  energy without entropy =     2420.29351751  energy(sigma->0) =     2420.30389484


--------------------------------------------------------------------------------------------------------




--------------------------------------- Iteration      1(   2)  ---------------------------------------


     EDDAV:  cpu time   14.7644: real time   14.8917
       DOS:  cpu time    0.0011: real time    0.0011
    --------------------------------------------
      LOOP:  cpu time   14.7655: real time   14.8928

 eigenvalue-minimisations  :  2120
 total energy-change (2. order) :-0.2484583E+04  (-0.2302741E+04)
 number of electron     376.0000000 magnetization 
 augmentation part      376.0000000 magnetization 

 Free energy of the ion-electron system (eV)
  ---------------------------------------------------
  alpha Z        PSCENC =       975.10247152
  Ewald energy   TEWEN  =     90925.95073056
  -Hartree energ DENC   =   -120017.94837359
  -exchange      EXHF   =         0.00000000
  -V(xc)+E(xc)   XCENC  =       189.42386188
  PAW double counting   =     24789.08602224   -23775.73976456
  entropy T*S    EENTRO =        -0.02635862
  eigenvalues    EBANDS =      -410.01715882
  atomic energy  EATOM  =     27259.89416086
  Solvation  Ediel_sol  =         0.00000000
  ---------------------------------------------------
  free energy    TOTEN  =       -64.27440853 eV

  energy without entropy =      -64.24804991  energy(sigma->0) =      -64.26562232


--------------------------------------------------------------------------------------------------------




--------------------------------------- Iteration      1(   3)  ---------------------------------------


     EDDAV:  cpu time   13.0542: real time   13.3749
       DOS:  cpu time    0.0010: real time    0.0010
    --------------------------------------------
      LOOP:  cpu time   13.0553: real time   13.3760

 eigenvalue-minimisations  :  2168
 total energy-change (2. order) :-0.1760746E+03  (-0.1598652E+03)
 number of electron     376.0000000 magnetization 
 augmentation part      376.0000000 magnetization 

 Free energy of the ion-electron system (eV)
  ---------------------------------------------------
  alpha Z        PSCENC =       975.10247152
  Ewald energy   TEWEN  =     90925.95073056
  -Hartree energ DENC   =   -120017.94837359
  -exchange      EXHF   =         0.00000000
  -V(xc)+E(xc)   XCENC  =       189.42386188
  PAW double counting   =     24789.08602224   -23775.73976456
  entropy T*S    EENTRO =        -0.04068950
  eigenvalues    EBANDS =      -586.07744073
  atomic energy  EATOM  =     27259.89416086
  Solvation  Ediel_sol  =         0.00000000
  ---------------------------------------------------
  free energy    TOTEN  =      -240.34902132 eV

  energy without entropy =     -240.30833182  energy(sigma->0) =     -240.33545816


--------------------------------------------------------------------------------------------------------




--------------------------------------- Iteration      1(   4)  ---------------------------------------


     EDDAV:  cpu time   12.3971: real time   12.4892
       DOS:  cpu time    0.0010: real time    0.0011
    --------------------------------------------
      LOOP:  cpu time   12.3981: real time   12.4903

 eigenvalue-minimisations  :  2392
 total energy-change (2. order) :-0.7734797E+01  (-0.7437592E+01)
 number of electron     376.0000000 magnetization 
 augmentation part      376.0000000 magnetization 

 Free energy of the ion-electron system (eV)
  ---------------------------------------------------
  alpha Z        PSCENC =       975.10247152
  Ewald energy   TEWEN  =     90925.95073056
  -Hartree energ DENC   =   -120017.94837359
  -exchange      EXHF   =         0.00000000
  -V(xc)+E(xc)   XCENC  =       189.42386188
  PAW double counting   =     24789.08602224   -23775.73976456
  entropy T*S    EENTRO =        -0.02967288
  eigenvalues    EBANDS =      -593.82325448
  atomic energy  EATOM  =     27259.89416086
  Solvation  Ediel_sol  =         0.00000000
  ---------------------------------------------------
  free energy    TOTEN  =      -248.08381845 eV

  energy without entropy =     -248.05414557  energy(sigma->0) =     -248.07392749


--------------------------------------------------------------------------------------------------------




--------------------------------------- Iteration      1(   5)  ---------------------------------------


     EDDAV:  cpu time   11.8984: real time   11.9971
       DOS:  cpu time    0.0010: real time    0.0010
    CHARGE:  cpu time    0.4423: real time    0.4456
    MIXING:  cpu time    0.0093: real time    0.0095
    --------------------------------------------
      LOOP:  cpu time   12.3511: real time   12.4532

 eigenvalue-minimisations  :  2488
 total energy-change (2. order) :-0.2173106E+00  (-0.2150662E+00)
 number of electron     376.0000099 magnetization 
 augmentation part      105.8473040 magnetization 

 Broyden mixing:
  rms(total) = 0.27211E+01    rms(broyden)= 0.27207E+01
  rms(prec ) = 0.30278E+01
  weight for this iteration     100.00

 Free energy of the ion-electron system (eV)
  ---------------------------------------------------
  alpha Z        PSCENC =       975.10247152
  Ewald energy   TEWEN  =     90925.95073056
  -Hartree energ DENC   =   -120017.94837359
  -exchange      EXHF   =         0.00000000
  -V(xc)+E(xc)   XCENC  =       189.42386188
  PAW double counting   =     24789.08602224   -23775.73976456
  entropy T*S    EENTRO =        -0.02910171
  eigenvalues    EBANDS =      -594.04113624
  atomic energy  EATOM  =     27259.89416086
  Solvation  Ediel_sol  =         0.00000000
  ---------------------------------------------------
  free energy    TOTEN  =      -248.30112904 eV

  energy without entropy =     -248.27202733  energy(sigma->0) =     -248.29142847


--------------------------------------------------------------------------------------------------------




--------------------------------------- Iteration      1(   6)  ---------------------------------------


    POTLOK:  cpu time    0.1444: real time    0.1456
    SETDIJ:  cpu time    0.0124: real time    0.0125
    EDDIAG:  cpu time    1.4726: real time    1.4835
  RMM-DIIS:  cpu time    4.9343: real time    4.9997
    ORTHCH:  cpu time    0.2922: real time    0.2941
       DOS:  cpu time    0.0011: real time    0.0011
    CHARGE:  cpu time    0.6453: real time    0.6491
    MIXING:  cpu time    0.0071: real time    0.0071
    --------------------------------------------
      LOOP:  cpu time    7.5094: real time    7.5926

 eigenvalue-minimisations  :  1831
 total energy-change (2. order) : 0.3611116E+01  (-0.5452651E+01)
 number of electron     376.0000094 magnetization 
 augmentation part      112.8355292 magnetization 

 Broyden mixing:
  rms(total) = 0.27248E+01    rms(broyden)= 0.27239E+01
  rms(prec ) = 0.35983E+01
  weight for this iteration     100.00

 eigenvalues of (default mixing * dielectric matrix)
  average eigenvalue GAMMA=   0.5167
  0.5167

 Free energy of the ion-electron system (eV)
  ---------------------------------------------------
  alpha Z        PSCENC =       975.10247152
  Ewald energy   TEWEN  =     90925.95073056
  -Hartree energ DENC   =   -119559.54969340
  -exchange      EXHF   =         0.00000000
  -V(xc)+E(xc)   XCENC  =       182.24613683
  PAW double counting   =     26705.82326330   -25745.88817729
  entropy T*S    EENTRO =        -0.21342281
  eigenvalues    EBANDS =      -988.05548254
  atomic energy  EATOM  =     27259.89416086
  Solvation  Ediel_sol  =         0.00000000
  ---------------------------------------------------
  free energy    TOTEN  =      -244.69001296 eV

  energy without entropy =     -244.47659015  energy(sigma->0) =     -244.61887202


--------------------------------------------------------------------------------------------------------




--------------------------------------- Iteration      1(   7)  ---------------------------------------


    POTLOK:  cpu time    0.1520: real time    0.1534
    SETDIJ:  cpu time    0.0124: real time    0.0125
    EDDIAG:  cpu time    1.4898: real time    1.4996
  RMM-DIIS:  cpu time    4.5749: real time    4.6074
    ORTHCH:  cpu time    0.2122: real time    0.2166
       DOS:  cpu time    0.0010: real time    0.0010
    CHARGE:  cpu time    0.4152: real time    0.4176
    MIXING:  cpu time    0.0047: real time    0.0048
    --------------------------------------------
      LOOP:  cpu time    6.8623: real time    6.9128

 eigenvalue-minimisations  :  1830
 total energy-change (2. order) : 0.6589502E+01  (-0.3081206E+01)
 number of electron     376.0000106 magnetization 
 augmentation part      111.4899452 magnetization 

 Broyden mixing:
  rms(total) = 0.18631E+01    rms(broyden)= 0.18622E+01
  rms(prec ) = 0.25370E+01
  weight for this iteration     100.00

 eigenvalues of (default mixing * dielectric matrix)
  average eigenvalue GAMMA=   0.6611
  1.0541  0.2681

 Free energy of the ion-electron system (eV)
  ---------------------------------------------------
  alpha Z        PSCENC =       975.10247152
  Ewald energy   TEWEN  =     90925.95073056
  -Hartree energ DENC   =   -119753.63026932
  -exchange      EXHF   =         0.00000000
  -V(xc)+E(xc)   XCENC  =       179.86045492
  PAW double counting   =     27383.24635471   -26431.19045092
  entropy T*S    EENTRO =        -0.16264110
  eigenvalues    EBANDS =      -777.17132185
  atomic energy  EATOM  =     27259.89416086
  Solvation  Ediel_sol  =         0.00000000
  ---------------------------------------------------
  free energy    TOTEN  =      -238.10051060 eV

  energy without entropy =     -237.93786951  energy(sigma->0) =     -238.04629690


--------------------------------------------------------------------------------------------------------




--------------------------------------- Iteration      1(   8)  ---------------------------------------


    POTLOK:  cpu time    0.1256: real time    0.1266
    SETDIJ:  cpu time    0.0113: real time    0.0114
    EDDIAG:  cpu time    1.5322: real time    1.5427
  RMM-DIIS:  cpu time    4.2865: real time    4.3159
    ORTHCH:  cpu time    0.2769: real time    0.2787
       DOS:  cpu time    0.0013: real time    0.0013
    CHARGE:  cpu time    0.5356: real time    0.5394
    MIXING:  cpu time    0.0048: real time    0.0048
    --------------------------------------------
      LOOP:  cpu time    6.7742: real time    6.8208

 eigenvalue-minimisations  :  1831
 total energy-change (2. order) : 0.3479931E+01  (-0.7850356E+00)
 number of electron     376.0000106 magnetization 
 augmentation part      112.6168042 magnetization 

 Broyden mixing:
  rms(total) = 0.16252E+01    rms(broyden)= 0.16250E+01
  rms(prec ) = 0.27730E+01
  weight for this iteration     100.00

 eigenvalues of (default mixing * dielectric matrix)
  average eigenvalue GAMMA=   0.5787
  1.2125  0.3055  0.2181

 Free energy of the ion-electron system (eV)
  ---------------------------------------------------
  alpha Z        PSCENC =       975.10247152
  Ewald energy   TEWEN  =     90925.95073056
  -Hartree energ DENC   =   -119631.49771936
  -exchange      EXHF   =         0.00000000
  -V(xc)+E(xc)   XCENC  =       178.55613199
  PAW double counting   =     28355.53323445   -27418.70136017
  entropy T*S    EENTRO =        -0.04024711
  eigenvalues    EBANDS =      -879.41798211
  atomic energy  EATOM  =     27259.89416086
  Solvation  Ediel_sol  =         0.00000000
  ---------------------------------------------------
  free energy    TOTEN  =      -234.62057936 eV

  energy without entropy =     -234.58033226  energy(sigma->0) =     -234.60716366


--------------------------------------------------------------------------------------------------------




--------------------------------------- Iteration      1(   9)  ---------------------------------------


    POTLOK:  cpu time    0.1438: real time    0.1448
    SETDIJ:  cpu time    0.0113: real time    0.0113
    EDDIAG:  cpu time    1.5175: real time    1.5269
  RMM-DIIS:  cpu time    4.7740: real time    4.8538
    ORTHCH:  cpu time    0.2609: real time    0.2627
       DOS:  cpu time    0.0012: real time    0.0012
    CHARGE:  cpu time    0.4790: real time    0.4820
    MIXING:  cpu time    0.0045: real time    0.0046
    --------------------------------------------
      LOOP:  cpu time    7.1922: real time    7.2873

 eigenvalue-minimisations  :  1829
 total energy-change (2. order) : 0.2638552E+00  (-0.2106050E+00)
 number of electron     376.0000106 magnetization 
 augmentation part      112.8459710 magnetization 

 Broyden mixing:
  rms(total) = 0.15575E+01    rms(broyden)= 0.15573E+01
  rms(prec ) = 0.28239E+01
  weight for this iteration     100.00

 eigenvalues of (default mixing * dielectric matrix)
  average eigenvalue GAMMA=   0.5028
  1.2975  0.3692  0.2530  0.0916

 Free energy of the ion-electron system (eV)
  ---------------------------------------------------
  alpha Z        PSCENC =       975.10247152
  Ewald energy   TEWEN  =     90925.95073056
  -Hartree energ DENC   =   -119640.23572017
  -exchange      EXHF   =         0.00000000
  -V(xc)+E(xc)   XCENC  =       178.40122793
  PAW double counting   =     28643.71678281   -27711.14622827
  entropy T*S    EENTRO =        -0.04943967
  eigenvalues    EBANDS =      -865.99070972
  atomic energy  EATOM  =     27259.89416086
  Solvation  Ediel_sol  =         0.00000000
  ---------------------------------------------------
  free energy    TOTEN  =      -234.35672413 eV

  energy without entropy =     -234.30728446  energy(sigma->0) =     -234.34024424


--------------------------------------------------------------------------------------------------------




--------------------------------------- Iteration      1(  10)  ---------------------------------------


    POTLOK:  cpu time    0.1536: real time    0.1548
    SETDIJ:  cpu time    0.0105: real time    0.0106
    EDDIAG:  cpu time    1.5150: real time    1.5256
  RMM-DIIS:  cpu time    4.7328: real time    4.7780
    ORTHCH:  cpu time    0.2466: real time    0.2497
       DOS:  cpu time    0.0014: real time    0.0014
    CHARGE:  cpu time    0.4493: real time    0.4524
    MIXING:  cpu time    0.0056: real time    0.0056
    --------------------------------------------
      LOOP:  cpu time    7.1147: real time    7.1781

 eigenvalue-minimisations  :  1831
 total energy-change (2. order) : 0.3585356E+01  (-0.1524292E+00)
 number of electron     376.0000102 magnetization 
 augmentation part      112.8032174 magnetization 

 Broyden mixing:
  rms(total) = 0.45573E+00    rms(broyden)= 0.45552E+00
  rms(prec ) = 0.58161E+00
  weight for this iteration     100.00

 eigenvalues of (default mixing * dielectric matrix)
  average eigenvalue GAMMA=   0.5137
  1.3865  0.4766  0.4036  0.2108  0.0909

 Free energy of the ion-electron system (eV)
  ---------------------------------------------------
  alpha Z        PSCENC =       975.10247152
  Ewald energy   TEWEN  =     90925.95073056
  -Hartree energ DENC   =   -119651.33221402
  -exchange      EXHF   =         0.00000000
  -V(xc)+E(xc)   XCENC  =       178.27874954
  PAW double counting   =     28943.79091036   -28015.47350163
  entropy T*S    EENTRO =        -0.03680528
  eigenvalues    EBANDS =      -846.94587030
  atomic energy  EATOM  =     27259.89416086
  Solvation  Ediel_sol  =         0.00000000
  ---------------------------------------------------
  free energy    TOTEN  =      -230.77136838 eV

  energy without entropy =     -230.73456310  energy(sigma->0) =     -230.75909995


--------------------------------------------------------------------------------------------------------




--------------------------------------- Iteration      1(  11)  ---------------------------------------


    POTLOK:  cpu time    0.1321: real time    0.1331
    SETDIJ:  cpu time    0.0114: real time    0.0115
    EDDIAG:  cpu time    1.5573: real time    1.5669
  RMM-DIIS:  cpu time    3.9827: real time    4.0115
    ORTHCH:  cpu time    0.2314: real time    0.2329
       DOS:  cpu time    0.0011: real time    0.0011
    CHARGE:  cpu time    0.4770: real time    0.4802
    MIXING:  cpu time    0.0052: real time    0.0053
    --------------------------------------------
      LOOP:  cpu time    6.3981: real time    6.4425

 eigenvalue-minimisations  :  1831
 total energy-change (2. order) : 0.3441767E+00  (-0.4397317E-01)
 number of electron     376.0000102 magnetization 
 augmentation part      112.8863612 magnetization 

 Broyden mixing:
  rms(total) = 0.31339E+00    rms(broyden)= 0.31338E+00
  rms(prec ) = 0.41173E+00
  weight for this iteration     100.00

 eigenvalues of (default mixing * dielectric matrix)
  average eigenvalue GAMMA=   0.5628
  1.5241  0.7463  0.3965  0.3965  0.2230  0.0902

 Free energy of the ion-electron system (eV)
  ---------------------------------------------------
  alpha Z        PSCENC =       975.10247152
  Ewald energy   TEWEN  =     90925.95073056
  -Hartree energ DENC   =   -119638.55737941
  -exchange      EXHF   =         0.00000000
  -V(xc)+E(xc)   XCENC  =       178.19429665
  PAW double counting   =     29224.10626819   -28299.51645797
  entropy T*S    EENTRO =        -0.02119745
  eigenvalues    EBANDS =      -855.58008463
  atomic energy  EATOM  =     27259.89416086
  Solvation  Ediel_sol  =         0.00000000
  ---------------------------------------------------
  free energy    TOTEN  =      -230.42719166 eV

  energy without entropy =     -230.40599421  energy(sigma->0) =     -230.42012584


--------------------------------------------------------------------------------------------------------




--------------------------------------- Iteration      1(  12)  ---------------------------------------


    POTLOK:  cpu time    0.1769: real time    0.1781
    SETDIJ:  cpu time    0.0175: real time    0.0176
    EDDIAG:  cpu time    1.5044: real time    1.5177
  RMM-DIIS:  cpu time    4.4854: real time    4.5174
    ORTHCH:  cpu time    0.2308: real time    0.2323
       DOS:  cpu time    0.0012: real time    0.0012
    CHARGE:  cpu time    0.4924: real time    0.4955
    MIXING:  cpu time    0.0060: real time    0.0061
    --------------------------------------------
      LOOP:  cpu time    6.9145: real time    6.9659

 eigenvalue-minimisations  :  1831
 total energy-change (2. order) : 0.1043656E+00  (-0.1982144E-01)
 number of electron     376.0000100 magnetization 
 augmentation part      112.9796938 magnetization 

 Broyden mixing:
  rms(total) = 0.25865E+00    rms(broyden)= 0.25858E+00
  rms(prec ) = 0.31737E+00
  weight for this iteration     100.00

 eigenvalues of (default mixing * dielectric matrix)
  average eigenvalue GAMMA=   0.6486
  1.8669  1.0702  0.5729  0.4749  0.0903  0.2298  0.2354

 Free energy of the ion-electron system (eV)
  ---------------------------------------------------
  alpha Z        PSCENC =       975.10247152
  Ewald energy   TEWEN  =     90925.95073056
  -Hartree energ DENC   =   -119631.96745197
  -exchange      EXHF   =         0.00000000
  -V(xc)+E(xc)   XCENC  =       178.13982089
  PAW double counting   =     29514.45732166   -28593.57951594
  entropy T*S    EENTRO =        -0.03976732
  eigenvalues    EBANDS =      -858.28059637
  atomic energy  EATOM  =     27259.89416086
  Solvation  Ediel_sol  =         0.00000000
  ---------------------------------------------------
  free energy    TOTEN  =      -230.32282611 eV

  energy without entropy =     -230.28305878  energy(sigma->0) =     -230.30957033


--------------------------------------------------------------------------------------------------------




--------------------------------------- Iteration      1(  13)  ---------------------------------------


    POTLOK:  cpu time    0.1466: real time    0.1476
    SETDIJ:  cpu time    0.0112: real time    0.0113
    EDDIAG:  cpu time    1.6800: real time    1.6900
  RMM-DIIS:  cpu time    3.9075: real time    3.9373
    ORTHCH:  cpu time    0.2087: real time    0.2103
       DOS:  cpu time    0.0011: real time    0.0011
    CHARGE:  cpu time    0.4168: real time    0.4204
    MIXING:  cpu time    0.0050: real time    0.0051
    --------------------------------------------
      LOOP:  cpu time    6.3768: real time    6.4231

 eigenvalue-minimisations  :  1831
 total energy-change (2. order) : 0.5733174E-01  (-0.1504527E-01)
 number of electron     376.0000100 magnetization 
 augmentation part      113.0034131 magnetization 

 Broyden mixing:
  rms(total) = 0.18967E+00    rms(broyden)= 0.18966E+00
  rms(prec ) = 0.22735E+00
  weight for this iteration     100.00

 eigenvalues of (default mixing * dielectric matrix)
  average eigenvalue GAMMA=   0.6993
  2.2527  1.2211  0.7516  0.4882  0.0903  0.3278  0.2218  0.2411

 Free energy of the ion-electron system (eV)
  ---------------------------------------------------
  alpha Z        PSCENC =       975.10247152
  Ewald energy   TEWEN  =     90925.95073056
  -Hartree energ DENC   =   -119628.73277204
  -exchange      EXHF   =         0.00000000
  -V(xc)+E(xc)   XCENC  =       178.05792534
  PAW double counting   =     29794.54377361   -28877.08295768
  entropy T*S    EENTRO =        -0.03246058
  eigenvalues    EBANDS =      -857.96636597
  atomic energy  EATOM  =     27259.89416086
  Solvation  Ediel_sol  =         0.00000000
  ---------------------------------------------------
  free energy    TOTEN  =      -230.26549437 eV

  energy without entropy =     -230.23303379  energy(sigma->0) =     -230.25467417


--------------------------------------------------------------------------------------------------------




--------------------------------------- Iteration      1(  14)  ---------------------------------------


    POTLOK:  cpu time    0.1222: real time    0.1591
    SETDIJ:  cpu time    0.0095: real time    0.0096
    EDDIAG:  cpu time    1.1021: real time    1.1098
  RMM-DIIS:  cpu time    3.5010: real time    3.5240
    ORTHCH:  cpu time    0.2335: real time    0.2351
       DOS:  cpu time    0.0013: real time    0.0014
    CHARGE:  cpu time    0.4022: real time    0.4049
    MIXING:  cpu time    0.0055: real time    0.0056
    --------------------------------------------
      LOOP:  cpu time    5.3774: real time    5.4494

 eigenvalue-minimisations  :  1831
 total energy-change (2. order) : 0.3536061E-01  (-0.8585447E-02)
 number of electron     376.0000100 magnetization 
 augmentation part      112.9764026 magnetization 

 Broyden mixing:
  rms(total) = 0.97433E-01    rms(broyden)= 0.97352E-01
  rms(prec ) = 0.12072E+00
  weight for this iteration     100.00

 eigenvalues of (default mixing * dielectric matrix)
  average eigenvalue GAMMA=   0.6915
  2.3542  1.2490  0.8171  0.4826  0.4826  0.0903  0.2929  0.2273  0.2273

 Free energy of the ion-electron system (eV)
  ---------------------------------------------------
  alpha Z        PSCENC =       975.10247152
  Ewald energy   TEWEN  =     90925.95073056
  -Hartree energ DENC   =   -119629.96679008
  -exchange      EXHF   =         0.00000000
  -V(xc)+E(xc)   XCENC  =       177.97214472
  PAW double counting   =     29996.34139031   -29081.22205774
  entropy T*S    EENTRO =        -0.02494898
  eigenvalues    EBANDS =      -854.27723495
  atomic energy  EATOM  =     27259.89416086
  Solvation  Ediel_sol  =         0.00000000
  ---------------------------------------------------
  free energy    TOTEN  =      -230.23013376 eV

  energy without entropy =     -230.20518478  energy(sigma->0) =     -230.22181743


--------------------------------------------------------------------------------------------------------




--------------------------------------- Iteration      1(  15)  ---------------------------------------


    POTLOK:  cpu time    0.1369: real time    0.1379
    SETDIJ:  cpu time    0.0120: real time    0.0121
    EDDIAG:  cpu time    1.3288: real time    1.3384
  RMM-DIIS:  cpu time    3.5646: real time    3.5955
    ORTHCH:  cpu time    0.1973: real time    0.1986
       DOS:  cpu time    0.0011: real time    0.0011
    CHARGE:  cpu time    0.3435: real time    0.3458
    MIXING:  cpu time    0.0195: real time    0.0196
    --------------------------------------------
      LOOP:  cpu time    5.6036: real time    5.6489

 eigenvalue-minimisations  :  1832
 total energy-change (2. order) : 0.1239459E-01  (-0.2679538E-02)
 number of electron     376.0000100 magnetization 
 augmentation part      112.9761743 magnetization 

 Broyden mixing:
  rms(total) = 0.47801E-01    rms(broyden)= 0.47796E-01
  rms(prec ) = 0.59979E-01
  weight for this iteration     100.00

 eigenvalues of (default mixing * dielectric matrix)
  average eigenvalue GAMMA=   0.7076
  2.4782  1.2800  0.8948  0.7748  0.4833  0.0903  0.3539  0.2675  0.2264  0.2264

 Free energy of the ion-electron system (eV)
  ---------------------------------------------------
  alpha Z        PSCENC =       975.10247152
  Ewald energy   TEWEN  =     90925.95073056
  -Hartree energ DENC   =   -119631.37015708
  -exchange      EXHF   =         0.00000000
  -V(xc)+E(xc)   XCENC  =       177.96955899
  PAW double counting   =     30039.55756879   -29124.91110010
  entropy T*S    EENTRO =        -0.02471856
  eigenvalues    EBANDS =      -852.38625417
  atomic energy  EATOM  =     27259.89416086
  Solvation  Ediel_sol  =         0.00000000
  ---------------------------------------------------
  free energy    TOTEN  =      -230.21773917 eV

  energy without entropy =     -230.19302061  energy(sigma->0) =     -230.20949965


--------------------------------------------------------------------------------------------------------




--------------------------------------- Iteration      1(  16)  ---------------------------------------


    POTLOK:  cpu time    0.1259: real time    0.1268
    SETDIJ:  cpu time    0.0110: real time    0.0111
    EDDIAG:  cpu time    1.0360: real time    1.0423
  RMM-DIIS:  cpu time    3.5129: real time    3.5376
    ORTHCH:  cpu time    0.2188: real time    0.2204
       DOS:  cpu time    0.0071: real time    0.0072
    CHARGE:  cpu time    0.4821: real time    0.4852
    MIXING:  cpu time    0.0061: real time    0.0062
    --------------------------------------------
      LOOP:  cpu time    5.4001: real time    5.4368

 eigenvalue-minimisations  :  1830
 total energy-change (2. order) : 0.1978574E-02  (-0.6502921E-03)
 number of electron     376.0000100 magnetization 
 augmentation part      112.9778701 magnetization 

 Broyden mixing:
  rms(total) = 0.32516E-01    rms(broyden)= 0.32511E-01
  rms(prec ) = 0.41354E-01
  weight for this iteration     100.00

 eigenvalues of (default mixing * dielectric matrix)
  average eigenvalue GAMMA=   0.6937
  2.5100  1.2898  0.9155  0.8860  0.4572  0.4572  0.0903  0.3158  0.2577  0.2257
  0.2257

 Free energy of the ion-electron system (eV)
  ---------------------------------------------------
  alpha Z        PSCENC =       975.10247152
  Ewald energy   TEWEN  =     90925.95073056
  -Hartree energ DENC   =   -119632.53867255
  -exchange      EXHF   =         0.00000000
  -V(xc)+E(xc)   XCENC  =       177.97602020
  PAW double counting   =     30069.50966147   -29155.16307784
  entropy T*S    EENTRO =        -0.02528517
  eigenvalues    EBANDS =      -850.92176966
  atomic energy  EATOM  =     27259.89416086
  Solvation  Ediel_sol  =         0.00000000
  ---------------------------------------------------
  free energy    TOTEN  =      -230.21576060 eV

  energy without entropy =     -230.19047542  energy(sigma->0) =     -230.20733221


--------------------------------------------------------------------------------------------------------




--------------------------------------- Iteration      1(  17)  ---------------------------------------


    POTLOK:  cpu time    0.1597: real time    0.1607
    SETDIJ:  cpu time    0.0114: real time    0.0115
    EDDIAG:  cpu time    1.2799: real time    1.2881
  RMM-DIIS:  cpu time    4.2306: real time    4.2670
    ORTHCH:  cpu time    0.2306: real time    0.2322
       DOS:  cpu time    0.0012: real time    0.0012
    CHARGE:  cpu time    0.4156: real time    0.4186
    MIXING:  cpu time    0.0066: real time    0.0066
    --------------------------------------------
      LOOP:  cpu time    6.3356: real time    6.3859

 eigenvalue-minimisations  :  1822
 total energy-change (2. order) : 0.1219000E-02  (-0.2508655E-03)
 number of electron     376.0000100 magnetization 
 augmentation part      112.9768876 magnetization 

 Broyden mixing:
  rms(total) = 0.17243E-01    rms(broyden)= 0.17241E-01
  rms(prec ) = 0.22119E-01
  weight for this iteration     100.00

 eigenvalues of (default mixing * dielectric matrix)
  average eigenvalue GAMMA=   0.7142
  2.5215  1.2223  1.2223  1.0080  0.6695  0.4988  0.0903  0.3597  0.2860  0.2425
  0.2248  0.2248

 Free energy of the ion-electron system (eV)
  ---------------------------------------------------
  alpha Z        PSCENC =       975.10247152
  Ewald energy   TEWEN  =     90925.95073056
  -Hartree energ DENC   =   -119633.34984800
  -exchange      EXHF   =         0.00000000
  -V(xc)+E(xc)   XCENC  =       177.97940148
  PAW double counting   =     30073.82003194   -29159.49316360
  entropy T*S    EENTRO =        -0.02544222
  eigenvalues    EBANDS =      -850.09288416
  atomic energy  EATOM  =     27259.89416086
  Solvation  Ediel_sol  =         0.00000000
  ---------------------------------------------------
  free energy    TOTEN  =      -230.21454160 eV

  energy without entropy =     -230.18909938  energy(sigma->0) =     -230.20606086


--------------------------------------------------------------------------------------------------------




--------------------------------------- Iteration      1(  18)  ---------------------------------------


    POTLOK:  cpu time    0.1220: real time    0.1230
    SETDIJ:  cpu time    0.0125: real time    0.0125
    EDDIAG:  cpu time    1.0443: real time    1.0511
  RMM-DIIS:  cpu time    3.9890: real time    4.0200
    ORTHCH:  cpu time    0.2175: real time    0.2188
       DOS:  cpu time    0.0012: real time    0.0012
    CHARGE:  cpu time    0.4547: real time    0.4575
    MIXING:  cpu time    0.0065: real time    0.0066
    --------------------------------------------
      LOOP:  cpu time    5.8476: real time    5.8907

 eigenvalue-minimisations  :  1791
 total energy-change (2. order) : 0.9903652E-05  (-0.1029489E-03)
 number of electron     376.0000100 magnetization 
 augmentation part      112.9755608 magnetization 

 Broyden mixing:
  rms(total) = 0.12445E-01    rms(broyden)= 0.12444E-01
  rms(prec ) = 0.14957E-01
  weight for this iteration     100.00

 eigenvalues of (default mixing * dielectric matrix)
  average eigenvalue GAMMA=   0.7279
  2.5291  1.5978  1.3037  0.9713  0.7715  0.4937  0.0903  0.4048  0.3397  0.2765
  0.2220  0.2308  0.2308

 Free energy of the ion-electron system (eV)
  ---------------------------------------------------
  alpha Z        PSCENC =       975.10247152
  Ewald energy   TEWEN  =     90925.95073056
  -Hartree energ DENC   =   -119634.46326303
  -exchange      EXHF   =         0.00000000
  -V(xc)+E(xc)   XCENC  =       177.98450961
  PAW double counting   =     30072.09274892   -29157.70298132
  entropy T*S    EENTRO =        -0.02547986
  eigenvalues    EBANDS =      -849.04742897
  atomic energy  EATOM  =     27259.89416086
  Solvation  Ediel_sol  =         0.00000000
  ---------------------------------------------------
  free energy    TOTEN  =      -230.21453169 eV

  energy without entropy =     -230.18905184  energy(sigma->0) =     -230.20603841


--------------------------------------------------------------------------------------------------------




--------------------------------------- Iteration      1(  19)  ---------------------------------------


    POTLOK:  cpu time    0.1082: real time    0.1089
    SETDIJ:  cpu time    0.0093: real time    0.0093
    EDDIAG:  cpu time    1.1271: real time    1.1344
  RMM-DIIS:  cpu time    3.0481: real time    3.0687
    ORTHCH:  cpu time    0.2013: real time    0.2026
       DOS:  cpu time    0.0011: real time    0.0011
    --------------------------------------------
      LOOP:  cpu time    4.4951: real time    4.5250

 eigenvalue-minimisations  :  1259
 total energy-change (2. order) : 0.2421008E-04  (-0.3692276E-04)
 number of electron     376.0000100 magnetization 
 augmentation part      112.9755608 magnetization 

 Free energy of the ion-electron system (eV)
  ---------------------------------------------------
  alpha Z        PSCENC =       975.10247152
  Ewald energy   TEWEN  =     90925.95073056
  -Hartree energ DENC   =   -119635.42148531
  -exchange      EXHF   =         0.00000000
  -V(xc)+E(xc)   XCENC  =       177.98770674
  PAW double counting   =     30069.87368732   -29155.42113677
  entropy T*S    EENTRO =        -0.02536388
  eigenvalues    EBANDS =      -848.15527853
  atomic energy  EATOM  =     27259.89416086
  Solvation  Ediel_sol  =         0.00000000
  ---------------------------------------------------
  free energy    TOTEN  =      -230.21450748 eV

  energy without entropy =     -230.18914361  energy(sigma->0) =     -230.20605286


--------------------------------------------------------------------------------------------------------




 average (electrostatic) potential at core
  the test charge radii are     0.6991  0.7215  1.2059
  (the norm of the test charge is              1.0000)
       1 -56.3228       2 -74.9048       3 -76.2353       4 -72.3463       5 -72.3296
       6 -72.3083       7 -72.3070       8 -72.3457       9 -72.3244      10 -72.2940
      11 -72.3330      12 -72.3076      13 -72.8702      14 -72.9713      15 -72.9349
      16 -72.9989      17 -73.0395      18 -72.9523      19 -72.9990      20 -72.9893
      21 -73.0218      22 -72.9127      23 -73.0037      24 -72.8763      25 -72.9198
      26 -72.9903      27 -72.9835      28 -72.9750      29 -72.9513      30 -72.9102
      31 -72.3917      32 -72.5333      33 -72.4433      34 -72.3735      35 -72.3057
      36 -73.2720      37 -72.3971      38 -73.1748      39 -72.3818
 
 
 
 E-fermi :   1.0997     XC(G=0):  -6.6219     alpha+bet : -6.8913


 k-point     1 :       0.0000    0.0000    0.0000
  band No.  band energies     occupation 
      1     -22.1298      2.00000
      2     -17.1837      2.00000
      3      -8.7274      2.00000
      4      -8.0937      2.00000
      5      -6.7921      2.00000
      6      -5.9932      2.00000
      7      -5.9392      2.00000
      8      -5.7206      2.00000
      9      -5.6863      2.00000
     10      -5.6723      2.00000
     11      -5.6150      2.00000
     12      -5.5920      2.00000
     13      -5.5733      2.00000
     14      -5.5632      2.00000
     15      -5.4626      2.00000
     16      -5.2756      2.00000
     17      -5.0860      2.00000
     18      -5.0718      2.00000
     19      -5.0455      2.00000
     20      -5.0124      2.00000
     21      -4.9906      2.00000
     22      -4.9456      2.00000
     23      -4.6836      2.00000
     24      -4.5867      2.00000
     25      -4.5590      2.00000
     26      -4.5197      2.00000
     27      -4.5035      2.00000
     28      -4.4865      2.00000
     29      -4.3690      2.00000
     30      -4.3627      2.00000
     31      -4.3324      2.00000
     32      -4.3119      2.00000
     33      -4.2887      2.00000
     34      -4.2126      2.00000
     35      -4.1376      2.00000
     36      -4.1210      2.00000
     37      -4.1139      2.00000
     38      -4.0787      2.00000
     39      -4.0617      2.00000
     40      -4.0560      2.00000
     41      -4.0269      2.00000
     42      -4.0173      2.00000
     43      -3.9948      2.00000
     44      -3.9852      2.00000
     45      -3.9703      2.00000
     46      -3.9389      2.00000
     47      -3.6136      2.00000
     48      -3.5017      2.00000
     49      -3.4188      2.00000
     50      -3.4181      2.00000
     51      -3.4014      2.00000
     52      -3.3978      2.00000
     53      -3.3458      2.00000
     54      -3.3334      2.00000
     55      -3.3101      2.00000
     56      -3.2908      2.00000
     57      -3.2312      2.00000
     58      -3.1995      2.00000
     59      -3.1533      2.00000
     60      -3.0783      2.00000
     61      -3.0325      2.00000
     62      -2.9592      2.00000
     63      -2.8916      2.00000
     64      -2.6420      2.00000
     65      -2.5963      2.00000
     66      -2.5575      2.00000
     67      -2.5354      2.00000
     68      -2.5288      2.00000
     69      -2.5025      2.00000
     70      -2.4888      2.00000
     71      -2.4357      2.00000
     72      -2.3994      2.00000
     73      -2.3877      2.00000
     74      -2.3824      2.00000
     75      -2.3592      2.00000
     76      -2.3533      2.00000
     77      -2.3526      2.00000
     78      -2.3224      2.00000
     79      -2.3082      2.00000
     80      -2.2975      2.00000
     81      -2.2913      2.00000
     82      -2.2716      2.00000
     83      -2.2628      2.00000
     84      -2.2401      2.00000
     85      -2.2210      2.00000
     86      -2.1706      2.00000
     87      -2.1260      2.00000
     88      -2.1089      2.00000
     89      -2.0821      2.00000
     90      -2.0690      2.00000
     91      -2.0152      2.00000
     92      -1.9740      2.00000
     93      -1.9343      2.00000
     94      -1.8998      2.00000
     95      -1.8965      2.00000
     96      -1.8784      2.00000
     97      -1.8559      2.00000
     98      -1.8241      2.00000
     99      -1.7622      2.00000
    100      -1.7388      2.00000
    101      -1.6839      2.00000
    102      -1.6361      2.00000
    103      -1.6251      2.00000
    104      -1.6064      2.00000
    105      -1.5517      2.00000
    106      -1.5476      2.00000
    107      -1.5394      2.00000
    108      -1.5077      2.00000
    109      -1.4972      2.00000
    110      -1.4922      2.00000
    111      -1.4871      2.00000
    112      -1.4592      2.00000
    113      -1.4333      2.00000
    114      -1.3737      2.00000
    115      -1.2827      2.00000
    116      -1.1465      2.00000
    117      -1.0726      2.00000
    118      -1.0273      2.00000
    119      -0.9903      2.00000
    120      -0.9550      2.00000
    121      -0.9250      2.00000
    122      -0.8834      2.00000
    123      -0.8740      2.00000
    124      -0.8492      2.00000
    125      -0.8269      2.00000
    126      -0.7882      2.00000
    127      -0.7713      2.00000
    128      -0.7455      2.00000
    129      -0.6943      2.00000
    130      -0.6824      2.00000
    131      -0.6709      2.00000
    132      -0.6421      2.00000
    133      -0.6223      2.00000
    134      -0.5589      2.00000
    135      -0.5319      2.00000
    136      -0.4762      2.00000
    137      -0.4165      2.00000
    138      -0.3833      2.00000
    139      -0.3679      2.00000
    140      -0.3561      2.00000
    141      -0.2495      2.00000
    142      -0.2185      2.00000
    143      -0.2030      2.00000
    144      -0.1952      2.00000
    145      -0.1182      2.00000
    146      -0.0909      2.00000
    147      -0.0602      2.00000
    148      -0.0112      2.00000
    149      -0.0065      2.00000
    150       0.0188      2.00000
    151       0.0549      2.00000
    152       0.0858      2.00000
    153       0.1211      2.00000
    154       0.1316      2.00000
    155       0.1648      2.00000
    156       0.1894      2.00000
    157       0.2417      2.00000
    158       0.2638      2.00000
    159       0.2837      2.00000
    160       0.2933      2.00000
    161       0.3107      2.00000
    162       0.3151      2.00000
    163       0.3320      2.00000
    164       0.3572      2.00000
    165       0.3686      2.00000
    166       0.3714      2.00000
    167       0.4089      2.00001
    168       0.4265      2.00002
    169       0.4589      2.00006
    170       0.4713      2.00008
    171       0.4960      2.00017
    172       0.5183      2.00031
    173       0.5777      2.00140
    174       0.6080      2.00278
    175       0.6123      2.00305
    176       0.6276      2.00422
    177       0.6465      2.00617
    178       0.6635      2.00853
    179       0.7067      2.01788
    180       0.7160      2.02062
    181       0.7384      2.02836
    182       0.7830      2.04765
    183       0.8033      2.05688
    184       0.8142      2.06143
    185       0.8156      2.06200
    186       0.8203      2.06377
    187       0.8239      2.06500
    188       0.8400      2.06941
    189       0.8421      2.06979
    190       0.8587      2.07079
    191       0.8679      2.06945
    192       0.8757      2.06705
    193       0.8949      2.05491
    194       0.9261      2.01086
    195       0.9810      1.83443
    196       1.0938      1.05008
    197       1.1124      0.89265
    198       1.1720      0.43025
    199       1.1983      0.26752
    200       1.2092      0.21004
    201       1.2381      0.08612
    202       1.2451      0.06206
    203       1.2553      0.03152
    204       1.4733     -0.02394
    205       1.4923     -0.01799
    206       1.9170     -0.00000
    207       1.9794     -0.00000
    208       2.0518     -0.00000
    209       2.0822     -0.00000
    210       2.1794     -0.00000
    211       2.5210     -0.00000
    212       3.5991     -0.00000
    213       4.0200     -0.00000
    214       4.3213     -0.00000
    215       4.3619     -0.00000
    216       4.4109     -0.00000
    217       4.5465     -0.00000
    218       4.8597     -0.00000
    219       5.4407     -0.00000
    220       5.6868     -0.00000
    221       5.8634     -0.00000
    222       5.8859     -0.00000
    223       5.9249     -0.00000
    224       5.9725     -0.00000
    225       6.0415     -0.00000
    226       6.5135     -0.00000
    227       6.5835      0.00000
    228       6.8412      0.00000

 k-point     2 :       0.5000    0.0000    0.0000
  band No.  band energies     occupation 
      1     -22.1297      2.00000
      2     -17.1833      2.00000
      3      -8.7144      2.00000
      4      -7.2587      2.00000
      5      -7.1966      2.00000
      6      -6.1333      2.00000
      7      -5.9773      2.00000
      8      -5.9050      2.00000
      9      -5.8182      2.00000
     10      -5.7107      2.00000
     11      -5.5967      2.00000
     12      -5.4381      2.00000
     13      -5.3519      2.00000
     14      -5.2336      2.00000
     15      -4.9658      2.00000
     16      -4.8695      2.00000
     17      -4.8565      2.00000
     18      -4.8483      2.00000
     19      -4.8235      2.00000
     20      -4.8208      2.00000
     21      -4.7966      2.00000
     22      -4.7884      2.00000
     23      -4.7821      2.00000
     24      -4.7500      2.00000
     25      -4.7328      2.00000
     26      -4.6758      2.00000
     27      -4.6636      2.00000
     28      -4.6361      2.00000
     29      -4.5974      2.00000
     30      -4.5290      2.00000
     31      -4.3520      2.00000
     32      -4.3330      2.00000
     33      -4.3095      2.00000
     34      -4.2919      2.00000
     35      -4.2619      2.00000
     36      -4.1462      2.00000
     37      -4.0350      2.00000
     38      -4.0250      2.00000
     39      -3.9568      2.00000
     40      -3.9381      2.00000
     41      -3.9167      2.00000
     42      -3.9060      2.00000
     43      -3.8356      2.00000
     44      -3.7982      2.00000
     45      -3.7343      2.00000
     46      -3.6598      2.00000
     47      -3.6499      2.00000
     48      -3.6129      2.00000
     49      -3.5697      2.00000
     50      -3.5528      2.00000
     51      -3.4542      2.00000
     52      -3.4323      2.00000
     53      -3.3989      2.00000
     54      -3.3384      2.00000
     55      -3.3065      2.00000
     56      -3.2872      2.00000
     57      -3.2449      2.00000
     58      -3.2036      2.00000
     59      -3.1541      2.00000
     60      -3.1380      2.00000
     61      -3.0879      2.00000
     62      -3.0552      2.00000
     63      -3.0044      2.00000
     64      -2.9663      2.00000
     65      -2.9617      2.00000
     66      -2.9328      2.00000
     67      -2.8829      2.00000
     68      -2.8502      2.00000
     69      -2.8314      2.00000
     70      -2.8054      2.00000
[...]
     89      -2.1430      2.00000
     90      -2.1205      2.00000
     91      -2.0873      2.00000
     92      -2.0636      2.00000
     93      -2.0471      2.00000
     94      -1.9775      2.00000
     95      -1.9565      2.00000
     96      -1.9492      2.00000
     97      -1.8967      2.00000
     98      -1.8739      2.00000
     99      -1.8506      2.00000
    100      -1.8320      2.00000
    101      -1.7853      2.00000
    102      -1.7284      2.00000
    103      -1.7136      2.00000
    104      -1.6876      2.00000
    105      -1.6706      2.00000
    106      -1.6629      2.00000
    107      -1.6482      2.00000
    108      -1.6249      2.00000
    109      -1.5926      2.00000
    110      -1.5423      2.00000
    111      -1.5010      2.00000
    112      -1.4471      2.00000
    113      -1.4100      2.00000
    114      -1.3787      2.00000
    115      -1.2783      2.00000
    116      -1.2685      2.00000
    117      -1.1946      2.00000
    118      -1.1649      2.00000
    119      -1.1421      2.00000
    120      -1.1134      2.00000
    121      -1.0479      2.00000
    122      -1.0172      2.00000
    123      -1.0093      2.00000
    124      -0.9994      2.00000
    125      -0.9829      2.00000
    126      -0.9489      2.00000
    127      -0.9310      2.00000
    128      -0.9183      2.00000
    129      -0.8880      2.00000
    130      -0.8792      2.00000
    131      -0.8311      2.00000
    132      -0.8044      2.00000
    133      -0.7462      2.00000
    134      -0.7263      2.00000
    135      -0.7206      2.00000
    136      -0.6820      2.00000
    137      -0.6623      2.00000
    138      -0.6399      2.00000
    139      -0.5989      2.00000
    140      -0.5341      2.00000
    141      -0.4843      2.00000
    142      -0.4555      2.00000
    143      -0.3672      2.00000
    144      -0.3038      2.00000
    145      -0.2498      2.00000
    146      -0.2205      2.00000
    147      -0.1695      2.00000
    148      -0.1040      2.00000
    149      -0.1013      2.00000
    150      -0.0480      2.00000
    151      -0.0299      2.00000
    152       0.0468      2.00000
    153       0.0569      2.00000
    154       0.0709      2.00000
    155       0.0800      2.00000
    156       0.1221      2.00000
    157       0.1333      2.00000
    158       0.1827      2.00000
    159       0.2008      2.00000
    160       0.2107      2.00000
    161       0.2564      2.00000
    162       0.3001      2.00000
    163       0.3208      2.00000
    164       0.3696      2.00000
    165       0.3744      2.00000
    166       0.3919      2.00001
    167       0.5067      2.00022
    168       0.5774      2.00133
    169       0.6096      2.00277
    170       0.6275      2.00406
    171       0.6555      2.00710
    172       0.6801      2.01115
    173       0.7136      2.01936
    174       0.7878      2.04908
    175       0.7946      2.05221
    176       0.8043      2.05655
    177       0.8458      2.07009
    178       0.8843      2.06378
    179       0.9180      2.02861
    180       0.9330      2.00020
    181       0.9363      1.99276
    182       1.0140      1.66767
    183       1.0484      1.43219
    184       1.0805      1.17674
    185       1.0929      1.07252
    186       1.1095      0.93231
    187       1.1335      0.73293
    188       1.1587      0.53714
    189       1.1655      0.48787
    190       1.1767      0.41022
    191       1.2980     -0.04643
    192       1.3464     -0.07092
    193       1.3708     -0.06707
    194       1.3840     -0.06262
    195       1.4119     -0.05058
    196       1.4649     -0.02758
    197       1.6064     -0.00207
    198       1.7215     -0.00011
    199       1.8229     -0.00000
    200       1.9651     -0.00000
    201       2.2549     -0.00000
    202       2.3551     -0.00000
    203       2.7625     -0.00000
    204       2.9279     -0.00000
    205       2.9745     -0.00000
    206       2.9929     -0.00000
    207       3.0243     -0.00000
    208       3.2088     -0.00000
    209       3.3631     -0.00000
    210       3.5236     -0.00000
    211       3.5689     -0.00000
    212       3.6311     -0.00000
    213       3.7396     -0.00000
    214       3.8286     -0.00000
    215       3.9400     -0.00000
    216       4.1836     -0.00000
    217       4.2090     -0.00000
    218       4.3995     -0.00000
    219       4.4090     -0.00000
    220       4.6067     -0.00000
    221       4.6787     -0.00000
    222       4.8134     -0.00000
    223       5.1301     -0.00000
    224       5.5351     -0.00000
    225       5.9690     -0.00000
    226       6.5249     -0.00000
    227       6.5480     -0.00000
    228       6.5970      0.00000


--------------------------------------------------------------------------------------------------------


 soft charge-density along one line, spin component           1
         0         1         2         3         4         5         6         7         8         9
 total charge-density along one line
 
 pseudopotential strength for first ion, spin component:           1
 10.098   0.016   0.004   0.011   0.000  -0.004  -0.010   0.000
  0.016  -0.002  -0.000  -0.000  -0.000  -0.000  -0.000   0.000
  0.004  -0.000  -4.247  -0.006   0.001  -0.010  -0.002   0.000
  0.011  -0.000  -0.006  -4.263   0.004  -0.002  -0.016   0.001
  0.000  -0.000   0.001   0.004  -4.245   0.000   0.001  -0.009
 -0.004  -0.000  -0.010  -0.002   0.000  -0.770  -0.000   0.000
 -0.010  -0.000  -0.002  -0.016   0.001  -0.000  -0.770   0.000
  0.000   0.000   0.000   0.001  -0.009   0.000   0.000  -0.770
 total augmentation occupancy for first ion, spin component:           1
  1.633  -0.871   0.012   0.018  -0.060   0.031   0.089  -0.027
 -0.871   1.246  -0.193  -0.574   0.108  -0.077  -0.236   0.039
  0.012  -0.193   0.842   0.183   0.001   0.113   0.051  -0.006
  0.018  -0.574   0.183   1.332  -0.026   0.051   0.248  -0.014
 -0.060   0.108   0.001  -0.026   0.790  -0.006  -0.015   0.100
  0.031  -0.077   0.113   0.051  -0.006   0.019   0.020  -0.004
  0.089  -0.236   0.051   0.248  -0.015   0.020   0.071  -0.008
 -0.027   0.039  -0.006  -0.014   0.100  -0.004  -0.008   0.014


------------------------ aborting loop because EDIFF is reached ----------------------------------------


    CHARGE:  cpu time    0.6331: real time    0.6372
    FORLOC:  cpu time    0.0487: real time    0.0490
    FORNL :  cpu time    2.1410: real time    2.1546
    STRESS:  cpu time    6.1147: real time    6.1529
    FORCOR:  cpu time    0.1490: real time    0.1499
    FORHAR:  cpu time    0.0684: real time    0.0688
    MIXING:  cpu time    0.0048: real time    0.0048
    OFIELD:  cpu time    0.0000: real time    0.0000

  FORCE on cell =-STRESS in cart. coord.  units (eV):
  Direction    XX          YY          ZZ          XY          YZ          ZX
  --------------------------------------------------------------------------------------
  Alpha Z   975.10247   975.10247   975.10247
  Ewald  110763.88785110766.55377************  -212.07210   222.59356  -112.84297
  Hartree117523.78455117497.40897************  -137.61156    91.04039   -59.64975
  E(xc)   -1665.61998 -1665.29610 -1673.09365    -0.49347     0.64243    -0.33468
  Local  ************************238964.53061   338.07449  -291.22659   162.71486
  n-local   121.68736   121.44970    85.21401    -1.24535     1.06618     0.08514
  augment  1895.07814  1892.30872  1934.84804     2.97840    -4.07526     1.65473
  Kinetic  5522.40931  5511.33818  5604.17852    10.55222   -20.17130     9.53367
  Fock        0.00000     0.00000     0.00000     0.00000     0.00000     0.00000
  -------------------------------------------------------------------------------------
  Total     -36.70777   -39.60201    -5.55859     0.18262    -0.13059     1.16100
  in kB     -43.71956   -47.16665    -6.62038     0.21751    -0.15553     1.38277
  external pressure =      -32.50 kB  Pullay stress =        0.00 kB


 VOLUME and BASIS-vectors are now :
 -----------------------------------------------------------------------------
  energy-cutoff  :      450.00
  volume of cell :     1345.22
      direct lattice vectors                 reciprocal lattice vectors
     7.296955120 -4.212899000  0.000000000     0.137043463  0.000000000  0.000000000
     0.000000000  8.425798000  0.000000000     0.068521732  0.118683121  0.000000000
     0.000000000  0.000000000 21.879635000     0.000000000  0.000000000  0.045704602

  length of vectors
     8.425798004  8.425798000 21.879635000     0.137043463  0.137043463  0.045704602


 FORCES acting on ions
    electron-ion (+dipol)            ewald-force                    non-local-force                 convergence-correction
 -----------------------------------------------------------------------------------------------
   0.950E+01 0.995E+01 -.876E+03   -.101E+02 -.145E+02 0.863E+03   0.348E+00 0.331E+01 0.109E+02   -.361E-02 0.359E-01 0.456E-01
   -.729E+02 0.560E+02 -.159E+04   0.729E+02 -.531E+02 0.162E+04   0.650E+00 -.262E+01 -.235E+02   0.167E-01 0.375E-01 0.588E-03
   0.661E+02 -.986E+02 -.156E+04   -.760E+02 0.118E+03 0.162E+04   0.997E+01 -.193E+02 -.584E+02   0.726E-02 -.258E-02 -.259E-01
   0.307E+00 0.694E+00 0.234E+04   -.322E+00 -.760E+00 -.233E+04   0.320E-01 -.534E-01 -.118E+01   -.192E-01 0.792E-01 0.505E-02
   0.109E+01 0.633E-01 0.234E+04   -.117E+01 -.138E+00 -.234E+04   -.388E-01 -.324E-01 -.112E+01   0.108E+00 0.826E-01 -.282E-01
   -.446E+00 0.105E+01 0.234E+04   0.301E+00 -.117E+01 -.234E+04   0.324E-01 -.116E-01 -.113E+01   0.746E-01 0.121E+00 0.414E-01
   -.303E+00 0.453E+00 0.234E+04   0.437E+00 -.364E+00 -.234E+04   0.280E-02 0.643E-02 -.120E+01   -.122E+00 -.174E-01 0.386E-01
   0.324E+00 0.215E+00 0.234E+04   -.368E+00 -.169E+00 -.234E+04   0.159E-02 0.321E-01 -.127E+01   0.366E-01 -.587E-01 0.255E-01
   -.104E-01 -.603E+00 0.234E+04   -.274E-01 0.616E+00 -.234E+04   0.226E-01 0.278E-01 -.121E+01   0.133E-01 -.493E-01 0.652E-01
   0.661E-01 -.388E+00 0.234E+04   -.296E-01 0.310E+00 -.234E+04   -.478E-01 0.859E-01 -.108E+01   0.227E-02 -.243E-01 -.176E-01
   -.909E+00 -.398E+00 0.234E+04   0.903E+00 0.550E+00 -.234E+04   -.365E-02 -.390E-01 -.124E+01   0.119E-01 -.713E-01 0.414E-01
   -.134E+00 -.113E+01 0.234E+04   0.278E+00 0.112E+01 -.234E+04   -.801E-02 0.472E-01 -.103E+01   -.104E+00 -.617E-01 -.154E-01
   0.528E+01 -.361E+01 0.850E+03   -.537E+01 0.365E+01 -.850E+03   0.145E-01 -.276E-01 -.311E+00   -.359E-03 -.231E-01 0.107E-01
   -.846E+01 0.314E+01 0.858E+03   0.827E+01 -.311E+01 -.858E+03   0.222E+00 -.537E-02 -.152E+00   0.967E-01 -.285E-01 0.826E-01
   -.780E+00 -.664E+01 0.848E+03   0.996E+00 0.659E+01 -.848E+03   -.436E-02 0.148E+00 -.146E+00   -.132E+00 -.110E-01 0.474E-01
   0.521E+01 0.274E+01 0.858E+03   -.533E+01 -.293E+01 -.857E+03   0.956E-02 0.761E-01 -.269E+00   0.654E-01 0.114E+00 0.180E-01
   0.653E+01 0.961E-01 0.865E+03   -.682E+01 -.157E+00 -.864E+03   -.276E-01 0.223E-01 -.457E+00   0.167E+00 0.997E-01 -.439E-02
   -.257E+01 0.125E+02 0.856E+03   0.264E+01 -.127E+02 -.855E+03   0.175E-01 -.636E-01 -.227E+00   -.520E-01 0.966E-01 0.284E-01
   0.170E+01 0.178E+01 0.862E+03   -.159E+01 -.156E+01 -.862E+03   -.107E+00 -.156E+00 -.345E+00   -.314E-01 -.907E-01 0.793E-01
   -.170E+01 -.328E+01 0.859E+03   0.168E+01 0.342E+01 -.859E+03   0.263E-01 -.570E-02 -.342E+00   0.483E-01 -.717E-01 0.764E-01
   -.630E+01 -.587E+01 0.864E+03   0.652E+01 0.617E+01 -.863E+03   0.145E+00 -.753E-01 -.532E+00   -.162E+00 -.862E-01 0.250E-01
   0.107E+02 0.389E+01 -.650E+03   -.108E+02 -.398E+01 0.649E+03   -.140E+00 -.694E-02 0.410E+00   0.100E-01 0.742E-01 0.274E-01
   -.289E+01 0.882E+00 -.629E+03   0.275E+01 -.665E+00 0.629E+03   0.241E+00 -.252E+00 0.330E+00   0.362E-01 -.919E-01 0.370E-02
   -.179E+02 0.607E+01 -.673E+03   0.176E+02 -.567E+01 0.673E+03   0.646E+00 -.338E+00 -.751E+00   -.403E-01 0.658E-02 -.807E-03
   0.592E+01 0.175E+02 -.646E+03   -.624E+01 -.168E+02 0.646E+03   0.121E+00 -.889E+00 -.152E+00   -.515E-01 0.647E-01 0.562E-01
   0.209E+02 -.328E+01 -.621E+03   -.204E+02 0.319E+01 0.621E+03   -.978E+00 0.233E+00 0.435E+00   0.129E+00 -.293E-01 0.481E-02
   0.216E+01 -.216E+02 -.646E+03   -.219E+01 0.214E+02 0.646E+03   -.198E+00 0.696E+00 0.485E+00   -.656E-01 -.138E+00 0.414E-01
   -.913E+01 -.668E+01 -.621E+03   0.940E+01 0.670E+01 0.620E+03   -.221E+00 0.129E+00 0.489E+00   -.122E+00 -.561E-01 -.185E-01
   -.285E+01 0.651E+01 -.633E+03   0.269E+01 -.662E+01 0.633E+03   0.283E+00 -.330E+00 0.372E+00   0.103E+00 0.129E+00 -.123E-01
   -.701E+01 -.243E+00 -.610E+03   0.699E+01 0.485E-01 0.610E+03   0.187E+00 0.506E-01 0.138E+01   0.174E-01 0.446E-01 -.780E-01
   -.166E+02 -.244E+02 -.215E+04   0.171E+02 0.243E+02 0.215E+04   -.659E+00 0.369E+00 0.148E+01   0.219E-02 0.301E-02 -.500E-01
   0.172E+02 0.115E+02 -.211E+04   -.176E+02 -.123E+02 0.211E+04   0.348E+00 0.107E+01 0.185E+01   -.165E-01 -.654E-01 -.976E-01
   0.364E+02 -.105E+02 -.213E+04   -.370E+02 0.103E+02 0.213E+04   0.343E+00 0.463E+00 0.915E+00   0.208E-01 0.437E-01 0.656E-01
   -.972E+01 -.110E+01 -.217E+04   0.964E+01 0.831E+00 0.217E+04   0.317E+00 0.317E+00 0.817E+00   -.520E-01 -.630E-01 0.351E-01
   0.113E+02 0.299E+02 -.218E+04   -.115E+02 -.298E+02 0.217E+04   0.347E+00 -.325E+00 0.834E+00   -.443E-01 -.520E-01 0.174E-01
   0.615E+02 0.661E+02 -.195E+04   -.646E+02 -.643E+02 0.195E+04   0.289E+01 -.149E+01 -.221E+01   0.455E-01 0.381E-01 -.123E-01
   -.654E+02 -.577E+02 -.208E+04   0.670E+02 0.602E+02 0.208E+04   -.144E+01 -.252E+01 0.188E+01   -.970E-03 0.670E-02 0.138E-02
   -.600E+02 0.977E+02 -.206E+04   0.606E+02 -.985E+02 0.206E+04   -.701E+00 0.564E+00 -.993E+00   0.277E-01 0.442E-01 -.123E-01
   0.112E+02 -.602E+02 -.211E+04   -.111E+02 0.616E+02 0.211E+04   -.919E-01 -.161E+01 0.910E+00   0.200E-01 0.226E-01 -.228E-01
 -----------------------------------------------------------------------------------------------
   -.125E+02 0.226E+02 0.752E+02   -.160E-13 -.107E-12 0.177E-10   0.126E+02 -.225E+02 -.757E+02   0.390E-01 0.521E-01 0.488E+00
 
 
 POSITION                                       TOTAL-FORCE (eV/Angst)
 -----------------------------------------------------------------------------------
      5.07825      0.71734     10.34859        -0.300447     -1.197721     -1.627577
      6.60320     -0.51365     10.18335         0.701671      0.300582      0.099782
      4.90450      1.07826     11.42800         0.077104      0.489369      1.213734
      7.20031     -1.38846      1.62732        -0.003484     -0.044460      0.192747
      2.33567      1.42014      1.62732        -0.009454     -0.028121      0.151737
      4.76799      0.01584      1.62732        -0.039574     -0.012416      0.116627
      7.20031      1.42015      1.62732         0.013228      0.074009      0.099602
      2.33567      4.22875      1.62732        -0.007353      0.014952      0.145948
      4.76799      2.82445      1.62732        -0.003114     -0.012977      0.130247
      2.33567      7.03734      1.62732        -0.010249     -0.020877      0.040883
      4.76799      5.63304      1.62732         0.000571      0.037685      0.142900
      7.20031      4.22874      1.62732         0.030456     -0.024262      0.062602
      1.52490      0.01584      3.92052        -0.077339     -0.007683      0.001597
      3.95722     -1.38846      3.92052         0.130336     -0.003215     -0.065999
      6.38953     -2.79276      3.92052         0.078250      0.092675      0.072911
      1.52490      2.82445      3.92052        -0.049340      0.001274     -0.083162
      3.95722      1.42015      3.92052        -0.149524      0.057486     -0.232399
      6.38953      0.01585      3.92052         0.034636     -0.187019      0.082138
      1.52490      5.63305      3.92052        -0.027959     -0.030361     -0.181779
      3.95722      4.22874      3.92052         0.051614      0.054498     -0.141213
      6.38953      2.82445      3.92052         0.200917      0.130831     -0.314908
      0.71654      4.21294      6.22148        -0.230036     -0.033518      0.018213
      3.13194      5.63904      6.18656         0.136361     -0.130473     -0.049625
      5.56706     -1.37776      6.28689         0.308960      0.066543     -0.554367
      0.72288      1.45185      6.22149        -0.251510     -0.147905      0.253530
      3.18045     -0.00100      6.18215        -0.345800      0.109184      0.239280
      0.73577      6.98862      6.20474        -0.294397      0.342274      0.224666
      5.61246      4.20749      6.17857        -0.075354      0.085601     -0.005067
      3.14188      2.83789      6.19646         0.215595     -0.319242      0.028372
      5.57607      1.42263      6.13735         0.177749     -0.102942      0.754734
      2.37817      4.16628      8.46866        -0.160157      0.321933      0.094182
      4.75237      5.56222      8.39785        -0.032263      0.245248      0.528493
      2.34404      1.34835      8.51013        -0.201216      0.282009     -0.315664
      7.19120      4.18426      8.53565         0.184463     -0.016914     -0.213835
      2.32611      7.02987      8.53391         0.029921     -0.344369     -0.249068
      4.68756      0.04781      8.56901        -0.145293      0.290016      0.287065
      7.25200      1.42137      8.55225         0.078882      0.046297     -0.412311
      7.28349     -1.50169      8.65645        -0.092316     -0.172879     -0.120611
      4.78941      2.84969      8.52631         0.055465     -0.205111     -0.414406
 -----------------------------------------------------------------------------------
    total drift:                                0.046127      0.151227      0.004933
  FORCES: max atom, RMS     2.042991    0.505024
  Number: max atom                 1
  FORCE total and by dimension    3.153871    1.627577


--------------------------------------------------------------------------------------------------------



  FREE ENERGIE OF THE ION-ELECTRON SYSTEM (eV)
  ---------------------------------------------------
  free  energy   TOTEN  =      -230.45410948 eV

  energy  without entropy=     -230.43306263  energy(sigma->0) =     -230.44709387
 
 d Force = 0.6126816E-01[ 0.649E-02, 0.116E+00]  d Energy = 0.6402937E-01-0.276E-02
 d Force =-0.2961985E+02[-0.299E+02,-0.293E+02]  d Ewald  =-0.2961695E+02-0.290E-02


--------------------------------------------------------------------------------------------------------


    POTLOK:  cpu time    0.1344: real time    0.2242


--------------------------------------------------------------------------------------------------------


 stress matrix after NEB project (eV)
    -36.70777      0.18262      1.16100
      0.18262    -39.60201     -0.13059
      1.16100     -0.13059     -5.55859
  FORCES: max atom, RMS     2.042991    0.505024
  FORCE total and by dimension    3.153871    1.627577
  Stress total and by dimension   54.309061   39.602007
 Quasi-Newton relaxation of ions (Broydens 2nd method)
  g(Force)  = 0.192E+00   g(Stress)= 0.000E+00

 retain information from N=  2 steps
 eigenvalues of (default step * inverse Hessian matrix)
  average eigenvalue of G=   0.2086
 eigenvalue spectrum of G is  0.2086  0.2086
  RESET_HESSIAN           0


--------------------------------------------------------------------------------------------------------


    WAVPRE:  cpu time    0.0738: real time    0.3503
    FEWALD:  cpu time    0.0009: real time    0.0009

 real space projection operators:
  total allocation   :      13554.41 KBytes
  max/ min on nodes  :       6786.45       6767.95

    ORTHCH:  cpu time    0.8416: real time    0.9161
     LOOP+:  cpu time   58.5603: real time   59.7603


--------------------------------------- Iteration      4(   1)  ---------------------------------------


    POTLOK:  cpu time    0.1883: real time    0.2292
    SETDIJ:  cpu time    0.0186: real time    0.0192
