metal                                   
           1
     7.296955   -4.212899    0.000000
     0.000000    8.425798    0.000000
     0.000000    0.000000   21.879635
   C    O    Pt
   1   2  36
Direct configuration=     1
   0.69857928  0.43670153  0.47317915
   0.90241624  0.38875336  0.46480950
   0.67044273  0.46355741  0.52306769
   0.98675500  0.32859100  0.07437600
   0.32008800  0.32859100  0.07437600
   0.65342200  0.32859100  0.07437600
   0.98675500  0.66192500  0.07437600
   0.32008800  0.66192500  0.07437600
   0.65342200  0.66192500  0.07437600
   0.32008800  0.99525800  0.07437600
   0.65342200  0.99525800  0.07437600
   0.98675500  0.99525800  0.07437600
   0.20897700  0.10636900  0.17918600
   0.54231100  0.10636900  0.17918600
   0.87564400  0.10636900  0.17918600
   0.20897700  0.43970300  0.17918600
   0.54231100  0.43970300  0.17918600
   0.87564400  0.43970300  0.17918600
   0.20897700  0.77303600  0.17918600
   0.54231100  0.77303600  0.17918600
   0.87564400  0.77303600  0.17918600
   0.09994682  0.55010138  0.28427688
   0.42850743  0.88412330  0.28288643
   0.76063173  0.21638431  0.28846803
   0.10037079  0.22332238  0.28380663
   0.43802820  0.21808660  0.28212993
   0.10259338  0.87900489  0.28307860
   0.76917777  0.88378713  0.28247278
   0.42910267  0.55301145  0.28316919
   0.76307593  0.55075854  0.27909901
   0.32679825  0.65646722  0.38681573
   0.65164246  0.98517118  0.38278028
   0.32231705  0.32000603  0.38951177
   0.98437461  0.98886898  0.39053607
   0.31892115  0.99528554  0.39044956
   0.64299150  0.32537285  0.39097473
   0.99342500  0.66497374  0.39157913
   0.99781992  0.32203376  0.39617206
   0.65597796  0.66759922  0.39029012
Direct configuration=     2
   0.69693779  0.43391577  0.47233298
   0.90399255  0.39055605  0.46530983
   0.67131427  0.46421587  0.52315657
   0.98675500  0.32859100  0.07437600
   0.32008800  0.32859100  0.07437600
   0.65342200  0.32859100  0.07437600
   0.98675500  0.66192500  0.07437600
   0.32008800  0.66192500  0.07437600
   0.65342200  0.66192500  0.07437600
   0.32008800  0.99525800  0.07437600
   0.65342200  0.99525800  0.07437600
   0.98675500  0.99525800  0.07437600
   0.20897700  0.10636900  0.17918600
   0.54231100  0.10636900  0.17918600
   0.87564400  0.10636900  0.17918600
   0.20897700  0.43970300  0.17918600
   0.54231100  0.43970300  0.17918600
   0.87564400  0.43970300  0.17918600
   0.20897700  0.77303600  0.17918600
   0.54231100  0.77303600  0.17918600
   0.87564400  0.77303600  0.17918600
   0.09863519  0.54936575  0.28433752
   0.42898209  0.88393549  0.28278356
   0.76235711  0.21755187  0.28765685
   0.09947126  0.22227404  0.28420111
   0.43646998  0.21792469  0.28241843
   0.10133196  0.87958597  0.28344667
   0.76922992  0.88387343  0.28239817
   0.43017601  0.55237922  0.28319159
   0.76385550  0.55091208  0.28007768
   0.32618705  0.65710800  0.38699593
   0.65135591  0.98551237  0.38352198
   0.32156097  0.32042723  0.38912499
   0.98517854  0.98921501  0.39024100
   0.31875844  0.99418242  0.39017222
   0.64269247  0.32663581  0.39154140
   0.99370401  0.66544751  0.39109995
   0.99823491  0.32118346  0.39574089
   0.65625523  0.66669893  0.38989314
Direct configuration=     3
   0.69594062  0.43310644  0.47297832
   0.90492587  0.39150194  0.46542588
   0.67213030  0.46403674  0.52231213
   0.98675500  0.32859100  0.07437600
   0.32008800  0.32859100  0.07437600
   0.65342200  0.32859100  0.07437600
   0.98675500  0.66192500  0.07437600
   0.32008800  0.66192500  0.07437600
   0.65342200  0.66192500  0.07437600
   0.32008800  0.99525800  0.07437600
   0.65342200  0.99525800  0.07437600
   0.98675500  0.99525800  0.07437600
   0.20897700  0.10636900  0.17918600
   0.54231100  0.10636900  0.17918600
   0.87564400  0.10636900  0.17918600
   0.20897700  0.43970300  0.17918600
   0.54231100  0.43970300  0.17918600
   0.87564400  0.43970300  0.17918600
   0.20897700  0.77303600  0.17918600
   0.54231100  0.77303600  0.17918600
   0.87564400  0.77303600  0.17918600
   0.09819687  0.54910353  0.28435010
   0.42921196  0.88386461  0.28275422
   0.76292918  0.21794742  0.28733991
   0.09906656  0.22184338  0.28435083
   0.43585956  0.21781062  0.28255274
   0.10083254  0.87984726  0.28358497
   0.76915064  0.88393366  0.28238902
   0.43057364  0.55209618  0.28320657
   0.76416384  0.55092402  0.28050513
   0.32591311  0.65742395  0.38705677
   0.65128131  0.98578284  0.38382042
   0.32123511  0.32064423  0.38895189
   0.98550705  0.98935452  0.39011852
   0.31877803  0.99371588  0.39003904
   0.64239928  0.32687346  0.39164336
   0.99383856  0.66561177  0.39087722
   0.99815448  0.32085154  0.39563947
   0.65635776  0.66638911  0.38969156
