       N       E                     dE             d eps       ncg     rms          rms(c)
DAV:   1     0.242179835549E+04    0.24218E+04   -0.15953E+05  1824   0.129E+03
DAV:   2    -0.627079240719E+02   -0.24845E+04   -0.23120E+04  2112   0.286E+02
DAV:   3    -0.240894168295E+03   -0.17819E+03   -0.16141E+03  2184   0.689E+01
DAV:   4    -0.248466253064E+03   -0.75721E+01   -0.73046E+01  2352   0.136E+01
DAV:   5    -0.248682177295E+03   -0.21592E+00   -0.21385E+00  2440   0.235E+00    0.274E+01
RMM:   6    -0.246238443594E+03    0.24437E+01   -0.54491E+01  1831   0.148E+01    0.299E+01
RMM:   7    -0.240745957189E+03    0.54925E+01   -0.32549E+01  1831   0.900E+00    0.193E+01
RMM:   8    -0.245708031253E+03   -0.49621E+01   -0.90646E+00  1828   0.470E+00    0.236E+01
RMM:   9    -0.231826072025E+03    0.13882E+02   -0.42133E+00  1831   0.332E+00    0.877E+00
RMM:  10    -0.230732476796E+03    0.10936E+01   -0.13588E+00  1831   0.188E+00    0.539E+00
RMM:  11    -0.230307850698E+03    0.42463E+00   -0.44517E-01  1831   0.105E+00    0.315E+00
RMM:  12    -0.230163693932E+03    0.14416E+00   -0.18326E-01  1842   0.664E-01    0.207E+00
RMM:  13    -0.230149620576E+03    0.14073E-01   -0.12190E-01  1830   0.578E-01    0.183E+00
RMM:  14    -0.230109828959E+03    0.39792E-01   -0.84461E-02  1832   0.505E-01    0.909E-01
RMM:  15    -0.230106056459E+03    0.37725E-02   -0.37841E-02  1829   0.331E-01    0.794E-01
RMM:  16    -0.230097328448E+03    0.87280E-02   -0.11396E-02  1829   0.180E-01    0.305E-01
RMM:  17    -0.230096337971E+03    0.99048E-03   -0.23880E-03  1821   0.841E-02    0.181E-01
RMM:  18    -0.230096631098E+03   -0.29313E-03   -0.10570E-03  1816   0.550E-02    0.151E-01
RMM:  19    -0.230096711730E+03   -0.80633E-04   -0.50948E-04  1513   0.396E-02
   1 F= -.23009671E+03 E0= -.23009422E+03  d E =-.230097E+03
       N       E                     dE             d eps       ncg     rms          rms(c)
DAV:   1    -0.230323989586E+03   -0.22736E+00   -0.35242E+01  1856   0.108E+01    0.790E-01
RMM:   2    -0.230395843769E+03   -0.71854E-01   -0.65566E-01  1834   0.172E+00    0.131E+00
RMM:   3    -0.230381579399E+03    0.14264E-01   -0.45073E-02  1868   0.372E-01    0.755E-01
RMM:   4    -0.230382379499E+03   -0.80010E-03   -0.83376E-03  1876   0.152E-01    0.788E-01
RMM:   5    -0.230374564049E+03    0.78155E-02   -0.49740E-03  1837   0.118E-01    0.423E-01
RMM:   6    -0.230374060077E+03    0.50397E-03   -0.83795E-03  1829   0.156E-01    0.358E-01
RMM:   7    -0.230372690264E+03    0.13698E-02   -0.52291E-03  1832   0.124E-01    0.209E-01
RMM:   8    -0.230372280401E+03    0.40986E-03   -0.14964E-03  1819   0.661E-02    0.129E-01
RMM:   9    -0.230372090314E+03    0.19009E-03   -0.32810E-04  1170   0.327E-02    0.591E-02
RMM:  10    -0.230372106650E+03   -0.16336E-04   -0.11035E-04   965   0.205E-02
   2 F= -.23037211E+03 E0= -.23036850E+03  d E =-.275395E+00
       N       E                     dE             d eps       ncg     rms          rms(c)
DAV:   1    -0.230444282823E+03   -0.72193E-01   -0.10248E+01  1840   0.608E+00    0.556E-01
RMM:   2    -0.230481466465E+03   -0.37184E-01   -0.38680E-01  1849   0.101E+00    0.684E-01
RMM:   3    -0.230477637991E+03    0.38285E-02   -0.13596E-02  1862   0.194E-01    0.619E-01
RMM:   4    -0.230474536862E+03    0.31011E-02   -0.35255E-03  1854   0.958E-02    0.470E-01
RMM:   5    -0.230473012245E+03    0.15246E-02   -0.47318E-03  1835   0.109E-01    0.434E-01
RMM:   6    -0.230470964265E+03    0.20480E-02   -0.64726E-03  1830   0.130E-01    0.240E-01
RMM:   7    -0.230470143111E+03    0.82115E-03   -0.21080E-03  1822   0.770E-02    0.132E-01
RMM:   8    -0.230469920209E+03    0.22290E-03   -0.43825E-04  1374   0.368E-02    0.753E-02
RMM:   9    -0.230469851732E+03    0.68477E-04   -0.13679E-04   991   0.225E-02
   3 F= -.23046985E+03 E0= -.23046588E+03  d E =-.977451E-01
       N       E                     dE             d eps       ncg     rms          rms(c)
