 vasp.5.4.4 16052018 (build Apr 24 2014 20:13:14) complex standard
 Contain Constrained Minimization Technique (TS), Periodic NBO, VASPsol, libbeef, VASP2WANNIER90, Constrained Cell Relaxation
 executed on Center for Computational Chemistry by phu@node11 date 2025.11.24 22:06:31
 running on    8 total cores
 distrk:  each k-point on    8 cores,    1 groups
 distr:  one band on NCORES_PER_BAND=   2 cores,    4 groups


--------------------------------------------------------------------------------------------------------


 INCAR:
 POTCAR:   PAW_PBE C 08Apr2002                    
 POTCAR:   PAW_PBE O 08Apr2002                    
 POTCAR:    PAW_PBE Pt 04Feb2005                  
 POTCAR:   PAW_PBE C 08Apr2002                    
   VRHFIN =C: s2p2                                                              
   LEXCH  = PE                                                                  
   EATOM  =   147.1560 eV,   10.8157 Ry                                         
                                                                                
   TITEL  = PAW_PBE C 08Apr2002                                                 
   LULTRA =        F    use ultrasoft PP ?                                      
   IUNSCR =        0    unscreen: 0-lin 1-nonlin 2-no                           
   RPACOR =     .000    partial core radius                                     
   POMASS =   12.011; ZVAL   =    4.000    mass and valenz                      
   RCORE  =    1.500    outmost cutoff radius                                   
   RWIGS  =    1.630; RWIGS  =     .863    wigner-seitz radius (au A)           
   ENMAX  =  400.000; ENMIN  =  300.000 eV                                      
   ICORE  =        2    local potential                                         
   LCOR   =        T    correct aug charges                                     
   LPAW   =        T    paw PP                                                  
   EAUG   =  644.873                                                            
   DEXC   =     .000                                                            
   RMAX   =    2.266    core radius for proj-oper                               
   RAUG   =    1.300    factor for augmentation sphere                          
   RDEP   =    1.501    radius for radial grids                                 
   RDEPT  =    1.300    core radius for aug-charge                              
   QCUT   =   -5.516; QGAM   =   11.032    optimization parameters              
                                                                                
   Description                                                                  
     l     E      TYP  RCUT    TYP  RCUT                                        
     0   .000     23  1.200                                                     
     0   .000     23  1.200                                                     
     1   .000     23  1.500                                                     
     1  2.500     23  1.500                                                     
     2   .000      7  1.500                                                     
  local pseudopotential read in
  atomic valenz-charges read in
  non local Contribution for L=           0  read in
    real space projection operators read in
  non local Contribution for L=           0  read in
    real space projection operators read in
  non local Contribution for L=           1  read in
    real space projection operators read in
  non local Contribution for L=           1  read in
    real space projection operators read in
    PAW grid and wavefunctions read in
 
   number of l-projection  operators is LMAX  =           4
   number of lm-projection operators is LMMAX =           8
 
 POTCAR:   PAW_PBE O 08Apr2002                    
   VRHFIN =O: s2p4                                                              
   LEXCH  = PE                                                                  
   EATOM  =   432.3788 eV,   31.7789 Ry                                         
                                                                                
   TITEL  = PAW_PBE O 08Apr2002                                                 
   LULTRA =        F    use ultrasoft PP ?                                      
   IUNSCR =        0    unscreen: 0-lin 1-nonlin 2-no                           
   RPACOR =     .000    partial core radius                                     
   POMASS =   16.000; ZVAL   =    6.000    mass and valenz                      
   RCORE  =    1.520    outmost cutoff radius                                   
   RWIGS  =    1.550; RWIGS  =     .820    wigner-seitz radius (au A)           
   ENMAX  =  400.000; ENMIN  =  300.000 eV                                      
   ICORE  =        2    local potential                                         
   LCOR   =        T    correct aug charges                                     
   LPAW   =        T    paw PP                                                  
   EAUG   =  605.392                                                            
   DEXC   =     .000                                                            
   RMAX   =    2.264    core radius for proj-oper                               
   RAUG   =    1.300    factor for augmentation sphere                          
   RDEP   =    1.550    radius for radial grids                                 
   QCUT   =   -5.520; QGAM   =   11.041    optimization parameters              
                                                                                
   Description                                                                  
     l     E      TYP  RCUT    TYP  RCUT                                        
     0   .000     23  1.200                                                     
     0  -.700     23  1.200                                                     
     1   .000     23  1.520                                                     
     1   .600     23  1.520                                                     
     2   .000      7  1.500                                                     
  local pseudopotential read in
  atomic valenz-charges read in
  non local Contribution for L=           0  read in
    real space projection operators read in
  non local Contribution for L=           0  read in
    real space projection operators read in
  non local Contribution for L=           1  read in
    real space projection operators read in
  non local Contribution for L=           1  read in
    real space projection operators read in
    PAW grid and wavefunctions read in
 
   number of l-projection  operators is LMAX  =           4
   number of lm-projection operators is LMMAX =           8
 
 POTCAR:    PAW_PBE Pt 04Feb2005                  
   VRHFIN =Pt: s1d9                                                             
   LEXCH  = PE                                                                  
   EATOM  =   729.1182 eV,   53.5887 Ry                                         
                                                                                
   TITEL  = PAW_PBE Pt 04Feb2005                                                
   LULTRA =        F    use ultrasoft PP ?                                      
   IUNSCR =        1    unscreen: 0-lin 1-nonlin 2-no                           
   RPACOR =    2.330    partial core radius                                     
   POMASS =  195.080; ZVAL   =   10.000    mass and valenz                      
   RCORE  =    2.600    outmost cutoff radius                                   
   RWIGS  =    2.750; RWIGS  =    1.455    wigner-seitz radius (au A)           
   ENMAX  =  230.283; ENMIN  =  172.712 eV                                      
   ICORE  =        3    local potential                                         
   LCOR   =        T    correct aug charges                                     
   LPAW   =        T    paw PP                                                  
   EAUG   =  358.966                                                            
   DEXC   =     .000                                                            
   RMAX   =    3.038    core radius for proj-oper                               
   RAUG   =    1.300    factor for augmentation sphere                          
   RDEP   =    2.761    radius for radial grids                                 
   QCUT   =   -4.114; QGAM   =    8.228    optimization parameters              
                                                                                
   Description                                                                  
     l     E      TYP  RCUT    TYP  RCUT                                        
     2   .000     23  2.500                                                     
     2   .000     23  2.500                                                     
     0   .000     23  2.500                                                     
     0   .000     23  2.500                                                     
     1  -.200     23  2.600                                                     
     1  1.500     23  2.600                                                     
     3   .000     23  2.500                                                     
  local pseudopotential read in
  partial core-charges read in
  atomic valenz-charges read in
  non local Contribution for L=           2  read in
    real space projection operators read in
  non local Contribution for L=           2  read in
    real space projection operators read in
  non local Contribution for L=           0  read in
    real space projection operators read in
  non local Contribution for L=           0  read in
    real space projection operators read in
  non local Contribution for L=           1  read in
    real space projection operators read in
  non local Contribution for L=           1  read in
    real space projection operators read in
    PAW grid and wavefunctions read in
 
   number of l-projection  operators is LMAX  =           6
   number of lm-projection operators is LMMAX =          18
 
 Optimization of the real space projectors (new method)

 maximal supplied QI-value         = 25.13
 optimisation between [QCUT,QGAM] = [ 10.81, 21.61] = [ 32.71,130.83] Ry 
 Optimized for a Real-space Cutoff    1.23 Angstroem

   l    n(q)    QCUT    max X(q) W(low)/X(q) W(high)/X(q)  e(spline) 
   0      8    10.807     5.582    0.53E-04    0.84E-04    0.44E-07
   0      8    10.807    69.432    0.35E-03    0.71E-03    0.24E-06
   1      7    10.807     2.780    0.44E-04    0.88E-04    0.89E-07
   1      7    10.807     4.549    0.14E-03    0.28E-03    0.13E-06
 Optimization of the real space projectors (new method)

 maximal supplied QI-value         = 24.76
 optimisation between [QCUT,QGAM] = [ 10.64, 21.54] = [ 31.73,129.89] Ry 
 Optimized for a Real-space Cutoff    1.23 Angstroem

   l    n(q)    QCUT    max X(q) W(low)/X(q) W(high)/X(q)  e(spline) 
   0      8    10.645     4.192    0.69E-04    0.93E-04    0.58E-07
   0      8    10.645     8.473    0.40E-03    0.65E-03    0.17E-06
   1      7    10.645     2.474    0.80E-04    0.12E-03    0.30E-07
   1      7    10.645     3.912    0.24E-03    0.53E-03    0.16E-06
 Optimization of the real space projectors (new method)

 maximal supplied QI-value         = 14.36
 optimisation between [QCUT,QGAM] = [ 10.77, 21.69] = [ 32.49,131.70] Ry 
 Optimized for a Real-space Cutoff    1.46 Angstroem

   l    n(q)    QCUT    max X(q) W(low)/X(q) W(high)/X(q)  e(spline) 
   2      9    10.771     3.903    0.38E-04    0.12E-03    0.82E-07
   2      9    10.771    18.372    0.13E-03    0.32E-03    0.28E-06
   0     10    10.771    13.697    0.11E-04    0.86E-05    0.85E-08
   0     10    10.771    65.529    0.40E-04    0.12E-03    0.14E-06
   1      9    10.771     7.604    0.48E-04    0.31E-04    0.38E-07
   1      9    10.771    12.136    0.35E-03    0.16E-03    0.23E-06
 PAW_PBE C 08Apr2002                    :
 energy of atom  1       EATOM= -147.1560
 kinetic energy error for atom=    0.0116 (will be added to EATOM!!)
 PAW_PBE O 08Apr2002                    :
 energy of atom  2       EATOM= -432.3788
 kinetic energy error for atom=    0.0389 (will be added to EATOM!!)
  PAW_PBE Pt 04Feb2005                  :
 energy of atom  3       EATOM= -729.1182
 kinetic energy error for atom=    0.0051 (will be added to EATOM!!)
 
 
 POSCAR: C    O    Pt                            
  positions in direct lattice
  No initial velocities read in
 exchange correlation table for  LEXCH =        8
   RHO(1)=    0.500       N(1)  =     2000
   RHO(2)=  100.500       N(2)  =     4000

 VTST: version 3.2, (02/03/18)

 CHAIN: initializing optimizer
 
 OPT: Using VASP QUASI-newton optimizer
 CHAIN: Read ICHAIN            0
 
 POSCAR: C    O    Pt                            
  positions in direct lattice
  No initial velocities read in
 


--------------------------------------------------------------------------------------------------------


 ion  position               nearest neighbor table
   1  0.702  0.431  0.472-   3 1.16   2 1.96  36 2.00
   2  0.907  0.384  0.466-   1 1.96  38 2.02  36 2.65  37 2.73
   3  0.673  0.458  0.522-   1 1.16
   4  0.987  0.329  0.074-  15 2.81  16 2.81  12 2.81   5 2.81  11 2.81   6 2.81  18 2.81   8 2.81
                             7 2.81
   5  0.320  0.329  0.074-  13 2.81  10 2.81   4 2.81  12 2.81  16 2.81  17 2.81   8 2.81   9 2.81
                             6 2.81
   6  0.653  0.329  0.074-  14 2.81  18 2.81  11 2.81   4 2.81  17 2.81   7 2.81  10 2.81   9 2.81
                             5 2.81
   7  0.987  0.662  0.074-  18 2.81  21 2.81  19 2.81  12 2.81   8 2.81  10 2.81   9 2.81   6 2.81
                             4 2.81
   8  0.320  0.662  0.074-  16 2.81  19 2.81  10 2.81   7 2.81  20 2.81   4 2.81  11 2.81   5 2.81
                             9 2.81
   9  0.653  0.662  0.074-  17 2.81  20 2.81  21 2.81  11 2.81  12 2.81   7 2.81   6 2.81   5 2.81
                             8 2.81
  10  0.320  0.995  0.074-  13 2.81  19 2.81   5 2.81   8 2.81  12 2.81   7 2.81  14 2.81   6 2.81
                            11 2.81
  11  0.653  0.995  0.074-  14 2.81  20 2.81  15 2.81   9 2.81   6 2.81  12 2.81   4 2.81   8 2.81
                            10 2.81
  12  0.987  0.995  0.074-  15 2.81  21 2.81  13 2.81   7 2.81   4 2.81  10 2.81   5 2.81  11 2.81
                             9 2.81
  13  0.209  0.106  0.179-  27 2.78  25 2.78  26 2.80  10 2.81   5 2.81  12 2.81  19 2.81  15 2.81
                            21 2.81  16 2.81  17 2.81  14 2.81
  14  0.542  0.106  0.179-  23 2.74  26 2.77   6 2.81  11 2.81  20 2.81  15 2.81  10 2.81  18 2.81
                            19 2.81  17 2.81  13 2.81  24 2.85
  15  0.876  0.106  0.179-  28 2.75  25 2.77   4 2.81  12 2.81  11 2.81  21 2.81  13 2.81  20 2.81
                            14 2.81  16 2.81  18 2.81  24 2.88
  16  0.209  0.440  0.179-  25 2.75   8 2.81   4 2.81  19 2.81  18 2.81   5 2.81  15 2.81  20 2.81
                            13 2.81  17 2.81  22 2.86  29 2.88
  17  0.542  0.440  0.179-  30 2.72  26 2.80   9 2.81  20 2.81  21 2.81  18 2.81   6 2.81   5 2.81
                            14 2.81  16 2.81  13 2.81  29 2.82
  18  0.876  0.440  0.179-  30 2.71   7 2.81   6 2.81  21 2.81  16 2.81  19 2.81  17 2.81   4 2.81
                            14 2.81  15 2.81  22 2.88  24 2.88
  19  0.209  0.773  0.179-  23 2.74  27 2.80   8 2.81  10 2.81   7 2.81  16 2.81  13 2.81  18 2.81
                            21 2.81  14 2.81  20 2.81  22 2.91
  20  0.542  0.773  0.179-  28 2.74  23 2.79   9 2.81  11 2.81  17 2.81  14 2.81  15 2.81  21 2.81
                             8 2.81  16 2.81  19 2.81  29 2.89
  21  0.876  0.773  0.179-  28 2.69  30 2.73  27 2.77  12 2.81   7 2.81   9 2.81  18 2.81  15 2.81
                            19 2.81  13 2.81  17 2.81  20 2.81
  22  0.097  0.544  0.288-  37 2.68  25 2.73  31 2.74  38 2.78  24 2.81  30 2.83  23 2.85  29 2.85
                            16 2.86  18 2.88  27 2.88  19 2.91
  23  0.427  0.888  0.281-  26 2.72  19 2.74  14 2.74  24 2.78  27 2.78  20 2.79  32 2.81  22 2.85
                            31 2.87  35 2.87  28 2.91  29 2.93
  24  0.759  0.214  0.287-  32 2.69  26 2.74  36 2.76  23 2.78  30 2.80  22 2.81  38 2.82  25 2.83
                            14 2.85  28 2.86  15 2.88  18 2.88
  25  0.098  0.221  0.282-  22 2.73  16 2.75  15 2.77  13 2.78  38 2.78  29 2.79  27 2.82  24 2.83
                            28 2.83  26 2.86  34 2.87  33 2.88
  26  0.434  0.215  0.283-  23 2.72  24 2.74  36 2.76  14 2.77  29 2.78  30 2.80  17 2.80  13 2.80
                            27 2.82  33 2.83  25 2.86  35 2.86
  27  0.095  0.885  0.283-  28 2.73  34 2.76  21 2.77  13 2.78  37 2.78  23 2.78  19 2.80  30 2.82
                            26 2.82  25 2.82  35 2.88  22 2.88
  28  0.768  0.879  0.280-  21 2.69  27 2.73  20 2.74  15 2.75  30 2.77  29 2.81  39 2.81  25 2.83
                            32 2.84  24 2.86  34 2.89  23 2.91
  29  0.436  0.545  0.287-  39 2.69  31 2.71  33 2.73  30 2.76  26 2.78  25 2.79  28 2.81  17 2.82
                            22 2.85  16 2.88  20 2.89  23 2.93
  30  0.764  0.548  0.279-  18 2.71  17 2.72  21 2.73  29 2.76  28 2.77  26 2.80  24 2.80  27 2.82
                            22 2.83  39 2.88  36 2.88  37 2.91
  31  0.328  0.657  0.387-  39 2.70  29 2.71  22 2.74  33 2.76  32 2.78  37 2.81  38 2.85  23 2.87
                            35 2.88
  32  0.653  0.990  0.385-  24 2.69  39 2.74  31 2.78  38 2.81  23 2.81  35 2.84  28 2.84  34 2.87
                            36 2.88
  33  0.326  0.329  0.389-  36 2.68  29 2.73  38 2.75  31 2.76  39 2.79  35 2.80  34 2.83  26 2.83
                            25 2.88
  34  0.993  0.991  0.388-  35 2.72  38 2.74  27 2.76  37 2.76  39 2.81  33 2.83  32 2.87  25 2.87
                            28 2.89
  35  0.318  0.993  0.391-  34 2.72  37 2.73  36 2.78  33 2.80  32 2.84  26 2.86  23 2.87  27 2.88
                            31 2.88
  36  0.643  0.327  0.388-   1 2.00   2 2.65  33 2.68  26 2.76  24 2.76  35 2.78  39 2.81  32 2.88
                            30 2.88  37 2.93  38 2.99
  37  0.999  0.665  0.386-  22 2.68   2 2.73  35 2.73  34 2.76  27 2.78  31 2.81  30 2.91  39 2.92
                            38 2.92  36 2.93
  38  0.993  0.316  0.390-   2 2.02  34 2.74  33 2.75  25 2.78  22 2.78  32 2.81  24 2.82  31 2.85
                            37 2.92  36 2.99
  39  0.652  0.665  0.386-  29 2.69  31 2.70  32 2.74  33 2.79  36 2.81  34 2.81  28 2.81  30 2.88
                            37 2.92
 

IMPORTANT INFORMATION: All symmetrisations will be switched off!
NOSYMM: (Re-)initialisation of all symmetry stuff for point group C_1.

 
 
 KPOINTS: mesh auto                               

Automatic generation of k-mesh.
Space group operators:
 irot       det(A)        alpha          n_x          n_y          n_z        tau_x        tau_y        tau_z
    1     1.000000     0.000000     1.000000     0.000000     0.000000     0.000000     0.000000     0.000000
 
 Subroutine IBZKPT returns following result:
 ===========================================
 
 Found      4 irreducible k-points:
 
 Following reciprocal coordinates:
            Coordinates               Weight
  0.000000  0.000000  0.000000      1.000000
  0.500000  0.000000  0.000000      1.000000
 -0.000000  0.500000  0.000000      1.000000
  0.500000  0.500000  0.000000      1.000000
 
 Following cartesian coordinates:
            Coordinates               Weight
  0.000000  0.000000  0.000000      1.000000
  0.068522  0.000000  0.000000      1.000000
  0.034261  0.059342  0.000000      1.000000
  0.102783  0.059342  0.000000      1.000000
 


--------------------------------------------------------------------------------------------------------




 Dimension of arrays:
   k-points           NKPTS =      4   k-points in BZ     NKDIM =      4   number of bands    NBANDS=    228
   number of dos      NEDOS =    301   number of ions     NIONS =     39
   non local maximal  LDIM  =      6   non local SUM 2l+1 LMDIM =     18
   total plane-waves  NPLWV = 276480
   max r-space proj   IRMAX =   2756   max aug-charges    IRDMAX=  12646
   dimension x,y,z NGX =    48 NGY =   48 NGZ =  120
   dimension x,y,z NGXF=    96 NGYF=   96 NGZF=  240
   support grid    NGXF=    96 NGYF=   96 NGZF=  240
   ions per type =               1   2  36
   NGX,Y,Z   is equivalent  to a cutoff of   9.47,  9.47,  9.12 a.u.
   NGXF,Y,Z  is equivalent  to a cutoff of  18.94, 18.94, 18.24 a.u.

 SYSTEM =  metal                                   
 POSCAR =  C    O    Pt                            

 Startparameter for this run:
   NWRITE =      2    write-flag & timer
   PREC   = normal    normal or accurate (medium, high low for compatibility)
   ISTART =      0    job   : 0-new  1-cont  2-samecut
   ICHARG =      2    charge: 1-file 2-atom 10-const
   ISPIN  =      1    spin polarized calculation?
   LNONCOLLINEAR =      F non collinear calculations
   LSORBIT =      F    spin-orbit coupling
   INIWAV =      1    electr: 0-lowe 1-rand  2-diag
   LASPH  =      F    aspherical Exc in radial PAW
   METAGGA=      F    non-selfconsistent MetaGGA calc.

 Electronic Relaxation 1
   ENCUT  =  450.0 eV  33.07 Ry    5.75 a.u.  14.57 14.57 37.84*2*pi/ulx,y,z
   ENINI  =  450.0     initial cutoff
   ENAUG  =  644.9 eV  augmentation charge cutoff
   NELM   =     60;   NELMIN=  8; NELMDL= -5     # of ELM steps 
   EDIFF  = 0.1E-03   stopping-criterion for ELM
   LREAL  =      T    real-space projection
   NLSPLINE    = F    spline interpolate recip. space projectors
   LCOMPAT=      F    compatible to vasp.4.4
   GGA_COMPAT  = T    GGA compatible to vasp.4.4-vasp.4.6
   LMAXPAW     = -100 max onsite density
   LMAXMIX     =    2 max onsite mixed and CHGCAR
   VOSKOWN=      0    Vosko Wilk Nusair interpolation
   ROPT   =   -0.00050  -0.00050  -0.00050
 Ionic relaxation
   EDIFFG = -.5E-01   stopping-criterion for IOM
   NSW    =   5000    number of steps for IOM
   NBLOCK =      1;   KBLOCK =   5000    inner block; outer block 
   IBRION =      1    ionic relax: 0-MD 1-quasi-New 2-CG
   NFREE  =      0    steps in history (QN), initial steepest desc. (CG)
   ISIF   =      2    stress and relaxation
   IWAVPR =     11    prediction:  0-non 1-charg 2-wave 3-comb
   ISYM   =      0    0-nonsym 1-usesym 2-fastsym
   LCORR  =      T    Harris-Foulkes like correction to forces

   POTIM  = 0.2000    time-step for ionic-motion
   TEIN   =    0.0    initial temperature
   TEBEG  =    0.0;   TEEND  =   0.0 temperature during run
   SMASS  =  -3.00    Nose mass-parameter (am)
   estimated Nose-frequenzy (Omega)   =  0.10E-29 period in steps =****** mass=  -0.162E-26a.u.
   SCALEE = 1.0000    scale energy and forces
   NPACO  =    256;   APACO  = 16.0  distance and # of slots for P.C.
   PSTRESS=    0.0 pullay stress

  Mass of Ions in am
   POMASS =  12.01 16.00195.08
  Ionic Valenz
   ZVAL   =   4.00  6.00 10.00
  Atomic Wigner-Seitz radii
   RWIGS  =  -1.00 -1.00 -1.00
  virtual crystal weights 
   VCA    =   1.00  1.00  1.00
   NELECT =     376.0000    total number of electrons
   NUPDOWN=      -1.0000    fix difference up-down

 DOS related values:
   EMIN   =  10.00;   EMAX   =-10.00  energy-range for DOS
   EFERMI =   0.00
   ISMEAR =     1;   SIGMA  =   0.20  broadening in eV -4-tet -1-fermi 0-gaus

 Electronic relaxation 2 (details)
   IALGO  =     68    algorithm
   LDIAG  =      T    sub-space diagonalisation (order eigenvalues)
   LSUBROT=      F    optimize rotation matrix (better conditioning)
   TURBO    =      0    0=normal 1=particle mesh
   IRESTART =      0    0=no restart 2=restart with 2 vectors
   NREBOOT  =      0    no. of reboots
   NMIN     =      0    reboot dimension
   EREF     =   0.00    reference energy to select bands
   IMIX   =      4    mixing-type and parameters
     AMIX     =   0.40;   BMIX     =  1.00
     AMIX_MAG =   1.60;   BMIX_MAG =  1.00
     AMIN     =   0.10
     WC   =   100.;   INIMIX=   1;  MIXPRE=   1;  MAXMIX= -45

 Intra band minimization:
   WEIMIN = 0.0010     energy-eigenvalue tresh-hold
   EBREAK =  0.11E-06  absolut break condition
   DEPER  =   0.30     relativ break condition  

   TIME   =   0.40     timestep for ELM

  volume/ion in A,a.u.               =      34.49       232.77
  Fermi-wavevector in a.u.,A,eV,Ry     =   1.070385  2.022734 15.588510  1.145723
  Thomas-Fermi vector in A             =   2.206093
 
 Write flags
   LWAVE        =      F    write WAVECAR
   LDOWNSAMPLE  =      F    k-point downsampling of WAVECAR
   LCHARG       =      F    write CHGCAR
   LVTOT        =      F    write LOCPOT, total local potential
   LVHAR        =      F    write LOCPOT, Hartree potential only
   LELF         =      F    write electronic localiz. function (ELF)
   LORBIT       =      0    0 simple, 1 ext, 2 COOP (PROOUT), +10 PAW based schemes


 Dipole corrections
   LMONO  =      F    monopole corrections only (constant potential shift)
   LDIPOL =      F    correct potential (dipole corrections)
   IDIPOL =      0    1-x, 2-y, 3-z, 4-all directions 
   EPSILON=  1.0000000 bulk dielectric constant

 Exchange correlation treatment:
   GGA     =    --    GGA type
   LEXCH   =     8    internal setting for exchange type
   VOSKOWN=      0    Vosko Wilk Nusair interpolation
   LHFCALC =     F    Hartree Fock is set to
   LHFONE  =     F    Hartree Fock one center treatment
   AEXX    =    0.0000 exact exchange contribution

 Linear response parameters
   LEPSILON=     F    determine dielectric tensor
   LRPA    =     F    only Hartree local field effects (RPA)
   LNABLA  =     F    use nabla operator in PAW spheres
   LVEL    =     F    velocity operator in full k-point grid
   LINTERFAST=   F  fast interpolation
   KINTER  =     0    interpolate to denser k-point grid
   CSHIFT  =0.1000    complex shift for real part using Kramers Kronig
   OMEGAMAX=  -1.0    maximum frequency
   DEG_THRESHOLD= 0.2000000E-02 threshold for treating states as degnerate
   RTIME   =   -0.100 relaxation time in fs
  (WPLASMAI=    0.000 imaginary part of plasma frequency in eV, 0.658/RTIME)
   DFIELD  = 0.0000000 0.0000000 0.0000000 field for delta impulse in time
 
 Orbital magnetization related:
   ORBITALMAG=     F  switch on orbital magnetization
   LCHIMAG   =     F  perturbation theory with respect to B field
   DQ        =  0.001000  dq finite difference perturbation B field
   LLRAUG    =     F  two centre corrections for induced B field



--------------------------------------------------------------------------------------------------------


 quasi-Newton-method for relaxation of ions
   using selective dynamics as specified on POSCAR
 charge density and potential will be updated during run
 non-spin polarized calculation
 RMM-DIIS sequential band-by-band and
  variant of blocked Davidson during initial phase
 perform sub-space diagonalisation
    before iterative eigenvector-optimisation
 modified Broyden-mixing scheme, WC =      100.0
 initial mixing is a Kerker type mixing with AMIX =  0.4000 and BMIX =      1.0000
 Hartree-type preconditioning will be used
 using additional bands           40
 real space projection scheme for non local part
 use partial core corrections
 calculate Harris-corrections to forces 
   (improved forces if not selfconsistent)
 use gradient corrections 
 use of overlap-Matrix (Vanderbilt PP)
 Methfessel and Paxton  Order N= 1 SIGMA  =   0.20


--------------------------------------------------------------------------------------------------------


  energy-cutoff  :      450.00
  volume of cell :     1345.22
      direct lattice vectors                 reciprocal lattice vectors
     7.296955120 -4.212899000  0.000000000     0.137043463  0.000000000  0.000000000
     0.000000000  8.425798000  0.000000000     0.068521732  0.118683121  0.000000000
     0.000000000  0.000000000 21.879635000     0.000000000  0.000000000  0.045704602

  length of vectors
     8.425798004  8.425798000 21.879635000     0.137043463  0.137043463  0.045704602


 
 k-points in units of 2pi/SCALE and weight: mesh auto                               
   0.00000000  0.00000000  0.00000000       0.250
   0.06852173  0.00000000  0.00000000       0.250
   0.03426087  0.05934156  0.00000000       0.250
   0.10278260  0.05934156  0.00000000       0.250
 
 k-points in reciprocal lattice and weights: mesh auto                               
   0.00000000  0.00000000  0.00000000       0.250
   0.50000000  0.00000000  0.00000000       0.250
  -0.00000000  0.50000000  0.00000000       0.250
   0.50000000  0.50000000  0.00000000       0.250
 
 position of ions in fractional coordinates (direct lattice) 
   0.70153379  0.43069801  0.47249002
   0.90704331  0.38397756  0.46630460
   0.67339724  0.45755389  0.52237855
   0.98675500  0.32859100  0.07437600
   0.32008800  0.32859100  0.07437600
   0.65342200  0.32859100  0.07437600
   0.98675500  0.66192500  0.07437600
   0.32008800  0.66192500  0.07437600
   0.65342200  0.66192500  0.07437600
   0.32008800  0.99525800  0.07437600
   0.65342200  0.99525800  0.07437600
   0.98675500  0.99525800  0.07437600
   0.20897700  0.10636900  0.17918600
   0.54231100  0.10636900  0.17918600
   0.87564400  0.10636900  0.17918600
   0.20897700  0.43970300  0.17918600
   0.54231100  0.43970300  0.17918600
   0.87564400  0.43970300  0.17918600
   0.20897700  0.77303600  0.17918600
   0.54231100  0.77303600  0.17918600
   0.87564400  0.77303600  0.17918600
   0.09685950  0.54387640  0.28802120
   0.42700454  0.88799717  0.28111842
   0.75934763  0.21421369  0.28728653
   0.09813548  0.22106179  0.28164103
   0.43419794  0.21478267  0.28301572
   0.09513711  0.88499095  0.28262666
   0.76784491  0.87913300  0.27950565
   0.43596947  0.54521872  0.28704952
   0.76421251  0.54803589  0.27896976
   0.32756334  0.65682296  0.38683066
   0.65301598  0.99031396  0.38516616
   0.32623875  0.32919577  0.38905642
   0.99343636  0.99057101  0.38793066
   0.31797306  0.99305781  0.39102191
   0.64317089  0.32662072  0.38806488
   0.99887786  0.66528448  0.38642429
   0.99283260  0.31557215  0.38987776
   0.65201424  0.66455272  0.38635806
 
 position of ions in cartesian coordinates  (Angst):
   5.11906057  0.67348340 10.33790920
   6.61865430 -0.58596452 10.20257441
   4.91374946  1.01830206 11.42945206
   7.20030695 -1.38845776  1.62731973
   2.33566777  1.42014298  1.62731973
   4.76799101  0.01584050  1.62731973
   7.20030695  1.42014719  1.62731973
   2.33566777  4.22874793  1.62731973
   4.76799101  2.82444545  1.62731973
   2.33566777  7.03734445  1.62731973
   4.76799101  5.63304198  1.62731973
   7.20030695  4.22874371  1.62731973
   1.52489579  0.01584471  3.92052428
   3.95721903 -1.38845776  3.92052428
   6.38953497 -2.79275602  3.92052428
   1.52489579  2.82444966  3.92052428
   3.95721903  1.42014719  3.92052428
   6.38953497  0.01584893  3.92052428
   1.52489579  5.63304619  3.92052428
   3.95721903  4.22874371  3.92052428
   6.38953497  2.82444545  3.92052428
   0.70677946  4.17453340  6.30179876
   3.11583297  5.68315773  6.15076841
   5.54092558 -1.39413363  6.28572448
   0.71609021  1.44918708  6.16220290
   3.16832287 -0.01951668  6.19228066
   0.69421125  7.05595194  6.18376810
   5.60292982  4.17254407  6.11548164
   3.18124966  2.75720749  6.28053875
   5.57642435  1.39808963  6.10375650
   2.39021501  4.15426634  8.46371358
   4.76502827  5.59309507  8.42729495
   2.38054949  1.39932614  8.51241254
   7.24906054  4.16110419  8.48778116
   2.32023518  7.02771608  8.55541677
   4.69318911  0.04242622  8.49071787
   7.28876689  1.39738113  8.45482248
   7.24465491 -1.52375627  8.53038316
   4.75771864  2.85251680  8.45337329
 


--------------------------------------------------------------------------------------------------------


 k-point  1 :   0.0000 0.0000 0.0000  plane waves:   29241
 k-point  2 :   0.5000 0.0000 0.0000  plane waves:   29108
 k-point  3 :  -0.0000 0.5000 0.0000  plane waves:   29108
 k-point  4 :   0.5000 0.5000 0.0000  plane waves:   29108

 maximum and minimum number of plane-waves per node :     14624    14548

 maximum number of plane-waves:     29241
 maximum index in each direction: 
   IXMAX=   14   IYMAX=   14   IZMAX=   37
   IXMIN=  -15   IYMIN=  -15   IZMIN=  -37


 real space projection operators:
  total allocation   :      13568.73 KBytes
  max/ min on nodes  :       6789.20       6779.53


 parallel 3D FFT for wavefunctions:
    minimum data exchange during FFTs selected (reduces bandwidth)
 parallel 3D FFT for charge:
    minimum data exchange during FFTs selected (reduces bandwidth)


 total amount of memory used by VASP MPI-rank0   131964. kBytes
=======================================================================

   base      :      30000. kBytes
   nonlr-proj:      10156. kBytes
   fftplans  :      13556. kBytes
   grid      :      23353. kBytes
   one-center:        311. kBytes
   wavefun   :      54588. kBytes
 
     INWAV:  cpu time    0.0001: real time    0.0001
 Broyden mixing: mesh for mixing (old mesh)
   NGX = 29   NGY = 29   NGZ = 75
  (NGX  = 96   NGY  = 96   NGZ  =240)
  gives a total of  63075 points

 initial charge density was supplied:
 charge density of overlapping atoms calculated
 number of electron     376.0000000 magnetization 
 keeping initial charge density in first step


--------------------------------------------------------------------------------------------------------


 Maximum index for non-local projection operator         1325
 Maximum index for augmentation-charges         1558 (set IRDMAX)


--------------------------------------------------------------------------------------------------------


 First call to EWALD:  gamma=   0.161
 Maximum number of real-space cells 4x 4x 2
 Maximum number of reciprocal cells 2x 2x 5

    FEWALD:  cpu time    0.0024: real time    0.0024


--------------------------------------- Iteration      1(   1)  ---------------------------------------


    POTLOK:  cpu time    0.1815: real time    0.2604
    SETDIJ:  cpu time    0.0115: real time    0.0116
     EDDAV:  cpu time   12.1078: real time   12.2804
       DOS:  cpu time    0.0012: real time    0.0012
    --------------------------------------------
      LOOP:  cpu time   12.3019: real time   12.5536

 eigenvalue-minimisations  :  1824
 total energy-change (2. order) : 0.2421798E+04  (-0.1595332E+05)
 number of electron     376.0000000 magnetization 
 augmentation part      376.0000000 magnetization 

 Free energy of the ion-electron system (eV)
  ---------------------------------------------------
  alpha Z        PSCENC =       975.10247152
  Ewald energy   TEWEN  =     91743.01312319
  -Hartree energ DENC   =   -120832.31190977
  -exchange      EXHF   =         0.00000000
  -V(xc)+E(xc)   XCENC  =       189.78500362
  PAW double counting   =     24789.08602224   -23775.73976456
  entropy T*S    EENTRO =         0.02934304
  eigenvalues    EBANDS =      2072.93990535
  atomic energy  EATOM  =     27259.89416086
  Solvation  Ediel_sol  =         0.00000000
  ---------------------------------------------------
  free energy    TOTEN  =      2421.79835549 eV

  energy without entropy =     2421.76901245  energy(sigma->0) =     2421.78857447


--------------------------------------------------------------------------------------------------------




--------------------------------------- Iteration      1(   2)  ---------------------------------------


     EDDAV:  cpu time   13.3830: real time   13.5305
       DOS:  cpu time    0.0012: real time    0.0012
    --------------------------------------------
      LOOP:  cpu time   13.3842: real time   13.5317

 eigenvalue-minimisations  :  2112
 total energy-change (2. order) :-0.2484506E+04  (-0.2312031E+04)
 number of electron     376.0000000 magnetization 
 augmentation part      376.0000000 magnetization 

 Free energy of the ion-electron system (eV)
  ---------------------------------------------------
  alpha Z        PSCENC =       975.10247152
  Ewald energy   TEWEN  =     91743.01312319
  -Hartree energ DENC   =   -120832.31190977
  -exchange      EXHF   =         0.00000000
  -V(xc)+E(xc)   XCENC  =       189.78500362
  PAW double counting   =     24789.08602224   -23775.73976456
  entropy T*S    EENTRO =         0.00225954
  eigenvalues    EBANDS =      -411.53929071
  atomic energy  EATOM  =     27259.89416086
  Solvation  Ediel_sol  =         0.00000000
  ---------------------------------------------------
  free energy    TOTEN  =       -62.70792407 eV

  energy without entropy =      -62.71018361  energy(sigma->0) =      -62.70867725


--------------------------------------------------------------------------------------------------------




--------------------------------------- Iteration      1(   3)  ---------------------------------------


     EDDAV:  cpu time   13.7325: real time   13.8806
       DOS:  cpu time    0.0012: real time    0.0012
    --------------------------------------------
      LOOP:  cpu time   13.7337: real time   13.8818

 eigenvalue-minimisations  :  2184
 total energy-change (2. order) :-0.1781862E+03  (-0.1614109E+03)
 number of electron     376.0000000 magnetization 
 augmentation part      376.0000000 magnetization 

 Free energy of the ion-electron system (eV)
  ---------------------------------------------------
  alpha Z        PSCENC =       975.10247152
  Ewald energy   TEWEN  =     91743.01312319
  -Hartree energ DENC   =   -120832.31190977
  -exchange      EXHF   =         0.00000000
  -V(xc)+E(xc)   XCENC  =       189.78500362
  PAW double counting   =     24789.08602224   -23775.73976456
  entropy T*S    EENTRO =        -0.01087163
  eigenvalues    EBANDS =      -589.71240377
  atomic energy  EATOM  =     27259.89416086
  Solvation  Ediel_sol  =         0.00000000
  ---------------------------------------------------
  free energy    TOTEN  =      -240.89416830 eV

  energy without entropy =     -240.88329667  energy(sigma->0) =     -240.89054442


--------------------------------------------------------------------------------------------------------




--------------------------------------- Iteration      1(   4)  ---------------------------------------


     EDDAV:  cpu time   14.4058: real time   14.5297
       DOS:  cpu time    0.0012: real time    0.0012
    --------------------------------------------
      LOOP:  cpu time   14.4070: real time   14.5309

 eigenvalue-minimisations  :  2352
 total energy-change (2. order) :-0.7572085E+01  (-0.7304640E+01)
 number of electron     376.0000000 magnetization 
 augmentation part      376.0000000 magnetization 

 Free energy of the ion-electron system (eV)
  ---------------------------------------------------
  alpha Z        PSCENC =       975.10247152
  Ewald energy   TEWEN  =     91743.01312319
  -Hartree energ DENC   =   -120832.31190977
  -exchange      EXHF   =         0.00000000
  -V(xc)+E(xc)   XCENC  =       189.78500362
  PAW double counting   =     24789.08602224   -23775.73976456
  entropy T*S    EENTRO =        -0.00215481
  eigenvalues    EBANDS =      -597.29320535
  atomic energy  EATOM  =     27259.89416086
  Solvation  Ediel_sol  =         0.00000000
  ---------------------------------------------------
  free energy    TOTEN  =      -248.46625306 eV

  energy without entropy =     -248.46409825  energy(sigma->0) =     -248.46553479


--------------------------------------------------------------------------------------------------------




--------------------------------------- Iteration      1(   5)  ---------------------------------------


     EDDAV:  cpu time   14.6300: real time   14.7508
       DOS:  cpu time    0.0012: real time    0.0012
    CHARGE:  cpu time    0.7185: real time    0.7233
    MIXING:  cpu time    0.0092: real time    0.0092
    --------------------------------------------
      LOOP:  cpu time   15.3589: real time   15.4845

 eigenvalue-minimisations  :  2440
 total energy-change (2. order) :-0.2159242E+00  (-0.2138535E+00)
 number of electron     376.0000085 magnetization 
 augmentation part      105.7753783 magnetization 

 Broyden mixing:
  rms(total) = 0.27353E+01    rms(broyden)= 0.27349E+01
  rms(prec ) = 0.30508E+01
  weight for this iteration     100.00

 Free energy of the ion-electron system (eV)
  ---------------------------------------------------
  alpha Z        PSCENC =       975.10247152
  Ewald energy   TEWEN  =     91743.01312319
  -Hartree energ DENC   =   -120832.31190977
  -exchange      EXHF   =         0.00000000
  -V(xc)+E(xc)   XCENC  =       189.78500362
  PAW double counting   =     24789.08602224   -23775.73976456
  entropy T*S    EENTRO =        -0.00241433
  eigenvalues    EBANDS =      -597.50887006
  atomic energy  EATOM  =     27259.89416086
  Solvation  Ediel_sol  =         0.00000000
  ---------------------------------------------------
  free energy    TOTEN  =      -248.68217730 eV

  energy without entropy =     -248.67976296  energy(sigma->0) =     -248.68137252


--------------------------------------------------------------------------------------------------------




--------------------------------------- Iteration      1(   6)  ---------------------------------------


    POTLOK:  cpu time    0.1748: real time    0.1760
    SETDIJ:  cpu time    0.0109: real time    0.0110
    EDDIAG:  cpu time    1.9371: real time    1.9497
  RMM-DIIS:  cpu time    6.8496: real time    6.8967
    ORTHCH:  cpu time    0.2617: real time    0.2633
       DOS:  cpu time    0.0012: real time    0.0012
    CHARGE:  cpu time    0.6749: real time    0.6789
    MIXING:  cpu time    0.0074: real time    0.0075
    --------------------------------------------
      LOOP:  cpu time    9.9175: real time    9.9843

 eigenvalue-minimisations  :  1831
 total energy-change (2. order) : 0.2443734E+01  (-0.5449146E+01)
 number of electron     376.0000096 magnetization 
 augmentation part      112.9388871 magnetization 

 Broyden mixing:
  rms(total) = 0.29891E+01    rms(broyden)= 0.29882E+01
  rms(prec ) = 0.39610E+01
  weight for this iteration     100.00

 eigenvalues of (default mixing * dielectric matrix)
  average eigenvalue GAMMA=   0.4828
  0.4828

 Free energy of the ion-electron system (eV)
  ---------------------------------------------------
  alpha Z        PSCENC =       975.10247152
  Ewald energy   TEWEN  =     91743.01312319
  -Hartree energ DENC   =   -120363.15849382
  -exchange      EXHF   =         0.00000000
  -V(xc)+E(xc)   XCENC  =       182.66901704
  PAW double counting   =     26728.19641631   -25768.66863561
  entropy T*S    EENTRO =        -0.15457536
  eigenvalues    EBANDS =     -1003.13192773
  atomic energy  EATOM  =     27259.89416086
  Solvation  Ediel_sol  =         0.00000000
  ---------------------------------------------------
  free energy    TOTEN  =      -246.23844359 eV

  energy without entropy =     -246.08386824  energy(sigma->0) =     -246.18691847


--------------------------------------------------------------------------------------------------------




--------------------------------------- Iteration      1(   7)  ---------------------------------------


    POTLOK:  cpu time    0.1663: real time    0.1676
    SETDIJ:  cpu time    0.0109: real time    0.0110
    EDDIAG:  cpu time    1.9390: real time    1.9519
  RMM-DIIS:  cpu time    6.9088: real time    6.9597
    ORTHCH:  cpu time    0.2646: real time    0.2662
       DOS:  cpu time    0.0012: real time    0.0012
    CHARGE:  cpu time    0.7542: real time    0.7591
    MIXING:  cpu time    0.0052: real time    0.0053
    --------------------------------------------
      LOOP:  cpu time   10.0503: real time   10.1220

 eigenvalue-minimisations  :  1831
 total energy-change (2. order) : 0.5492486E+01  (-0.3254923E+01)
 number of electron     376.0000097 magnetization 
 augmentation part      111.3239113 magnetization 

 Broyden mixing:
  rms(total) = 0.19301E+01    rms(broyden)= 0.19292E+01
  rms(prec ) = 0.30101E+01
  weight for this iteration     100.00

 eigenvalues of (default mixing * dielectric matrix)
  average eigenvalue GAMMA=   0.6248
  0.9921  0.2574

 Free energy of the ion-electron system (eV)
  ---------------------------------------------------
  alpha Z        PSCENC =       975.10247152
  Ewald energy   TEWEN  =     91743.01312319
  -Hartree energ DENC   =   -120564.05751615
  -exchange      EXHF   =         0.00000000
  -V(xc)+E(xc)   XCENC  =       180.29854567
  PAW double counting   =     27378.83703930   -26426.61689639
  entropy T*S    EENTRO =        -0.06915154
  eigenvalues    EBANDS =      -787.14773365
  atomic energy  EATOM  =     27259.89416086
  Solvation  Ediel_sol  =         0.00000000
  ---------------------------------------------------
  free energy    TOTEN  =      -240.74595719 eV

  energy without entropy =     -240.67680565  energy(sigma->0) =     -240.72290667


--------------------------------------------------------------------------------------------------------




--------------------------------------- Iteration      1(   8)  ---------------------------------------


    POTLOK:  cpu time    0.1659: real time    0.1671
    SETDIJ:  cpu time    0.0112: real time    0.0113
    EDDIAG:  cpu time    2.0047: real time    2.0179
  RMM-DIIS:  cpu time    6.8750: real time    6.9245
    ORTHCH:  cpu time    0.2828: real time    0.2845
       DOS:  cpu time    0.0012: real time    0.0012
    CHARGE:  cpu time    0.7793: real time    0.7844
    MIXING:  cpu time    0.0059: real time    0.0059
    --------------------------------------------
      LOOP:  cpu time   10.1260: real time   10.1968

 eigenvalue-minimisations  :  1828
 total energy-change (2. order) :-0.4962074E+01  (-0.9064649E+00)
 number of electron     376.0000093 magnetization 
 augmentation part      112.1363881 magnetization 

 Broyden mixing:
  rms(total) = 0.23619E+01    rms(broyden)= 0.23617E+01
  rms(prec ) = 0.44278E+01
  weight for this iteration     100.00

 eigenvalues of (default mixing * dielectric matrix)
  average eigenvalue GAMMA=   0.5516
  1.2153  0.2892  0.1504

 Free energy of the ion-electron system (eV)
  ---------------------------------------------------
  alpha Z        PSCENC =       975.10247152
  Ewald energy   TEWEN  =     91743.01312319
  -Hartree energ DENC   =   -120494.17064475
  -exchange      EXHF   =         0.00000000
  -V(xc)+E(xc)   XCENC  =       179.15601230
  PAW double counting   =     28116.83284239   -27176.35206904
  entropy T*S    EENTRO =        -0.10085028
  eigenvalues    EBANDS =      -849.08307745
  atomic energy  EATOM  =     27259.89416086
  Solvation  Ediel_sol  =         0.00000000
  ---------------------------------------------------
  free energy    TOTEN  =      -245.70803125 eV

  energy without entropy =     -245.60718097  energy(sigma->0) =     -245.67441449


--------------------------------------------------------------------------------------------------------




--------------------------------------- Iteration      1(   9)  ---------------------------------------


    POTLOK:  cpu time    0.1723: real time    0.1735
    SETDIJ:  cpu time    0.0108: real time    0.0108
    EDDIAG:  cpu time    2.0512: real time    2.0647
  RMM-DIIS:  cpu time    6.8894: real time    6.9369
    ORTHCH:  cpu time    0.2776: real time    0.2796
       DOS:  cpu time    0.0012: real time    0.0012
    CHARGE:  cpu time    0.7438: real time    0.7494
    MIXING:  cpu time    0.0060: real time    0.0061
    --------------------------------------------
      LOOP:  cpu time   10.1524: real time   10.2222

 eigenvalue-minimisations  :  1831
 total energy-change (2. order) : 0.1388196E+02  (-0.4213264E+00)
 number of electron     376.0000094 magnetization 
 augmentation part      112.6370795 magnetization 

 Broyden mixing:
  rms(total) = 0.87741E+00    rms(broyden)= 0.87711E+00
  rms(prec ) = 0.12180E+01
  weight for this iteration     100.00

 eigenvalues of (default mixing * dielectric matrix)
  average eigenvalue GAMMA=   0.5273
  1.3092  0.3369  0.3369  0.1262

 Free energy of the ion-electron system (eV)
  ---------------------------------------------------
  alpha Z        PSCENC =       975.10247152
  Ewald energy   TEWEN  =     91743.01312319
  -Hartree energ DENC   =   -120461.00254107
  -exchange      EXHF   =         0.00000000
  -V(xc)+E(xc)   XCENC  =       178.60950613
  PAW double counting   =     28742.16664810   -27811.44828577
  entropy T*S    EENTRO =        -0.01383844
  eigenvalues    EBANDS =      -858.14731656
  atomic energy  EATOM  =     27259.89416086
  Solvation  Ediel_sol  =         0.00000000
  ---------------------------------------------------
  free energy    TOTEN  =      -231.82607202 eV

  energy without entropy =     -231.81223359  energy(sigma->0) =     -231.82145921


--------------------------------------------------------------------------------------------------------




--------------------------------------- Iteration      1(  10)  ---------------------------------------


    POTLOK:  cpu time    0.1719: real time    0.1733
    SETDIJ:  cpu time    0.0113: real time    0.0113
    EDDIAG:  cpu time    2.0670: real time    2.0818
  RMM-DIIS:  cpu time    6.6462: real time    6.6979
    ORTHCH:  cpu time    0.2786: real time    0.2805
       DOS:  cpu time    0.0013: real time    0.0013
    CHARGE:  cpu time    0.7219: real time    0.7273
    MIXING:  cpu time    0.0065: real time    0.0066
    --------------------------------------------
      LOOP:  cpu time    9.9048: real time    9.9800

 eigenvalue-minimisations  :  1831
 total energy-change (2. order) : 0.1093595E+01  (-0.1358781E+00)
 number of electron     376.0000094 magnetization 
 augmentation part      112.7394159 magnetization 

 Broyden mixing:
  rms(total) = 0.53861E+00    rms(broyden)= 0.53856E+00
  rms(prec ) = 0.71620E+00
  weight for this iteration     100.00

 eigenvalues of (default mixing * dielectric matrix)
  average eigenvalue GAMMA=   0.5543
  1.4139  0.5761  0.3989  0.1296  0.2531

 Free energy of the ion-electron system (eV)
  ---------------------------------------------------
  alpha Z        PSCENC =       975.10247152
  Ewald energy   TEWEN  =     91743.01312319
  -Hartree energ DENC   =   -120455.23370511
  -exchange      EXHF   =         0.00000000
  -V(xc)+E(xc)   XCENC  =       178.52952136
  PAW double counting   =     29039.19866390   -28112.60058471
  entropy T*S    EENTRO =         0.01491830
  eigenvalues    EBANDS =      -858.65104611
  atomic energy  EATOM  =     27259.89416086
  Solvation  Ediel_sol  =         0.00000000
  ---------------------------------------------------
  free energy    TOTEN  =      -230.73247680 eV

  energy without entropy =     -230.74739510  energy(sigma->0) =     -230.73744956


--------------------------------------------------------------------------------------------------------




--------------------------------------- Iteration      1(  11)  ---------------------------------------


    POTLOK:  cpu time    0.1735: real time    0.1749
    SETDIJ:  cpu time    0.0111: real time    0.0111
    EDDIAG:  cpu time    2.0947: real time    2.1096
  RMM-DIIS:  cpu time    7.0892: real time    7.1455
    ORTHCH:  cpu time    0.2744: real time    0.2764
       DOS:  cpu time    0.0011: real time    0.0011
    CHARGE:  cpu time    0.7254: real time    0.7307
    MIXING:  cpu time    0.0061: real time    0.0062
    --------------------------------------------
      LOOP:  cpu time   10.3755: real time   10.4554

 eigenvalue-minimisations  :  1831
 total energy-change (2. order) : 0.4246261E+00  (-0.4451718E-01)
 number of electron     376.0000094 magnetization 
 augmentation part      112.8821130 magnetization 

 Broyden mixing:
  rms(total) = 0.31517E+00    rms(broyden)= 0.31495E+00
  rms(prec ) = 0.40472E+00
  weight for this iteration     100.00

 eigenvalues of (default mixing * dielectric matrix)
  average eigenvalue GAMMA=   0.5779
  1.5322  0.8135  0.3811  0.3811  0.1284  0.2312

 Free energy of the ion-electron system (eV)
  ---------------------------------------------------
  alpha Z        PSCENC =       975.10247152
  Ewald energy   TEWEN  =     91743.01312319
  -Hartree energ DENC   =   -120445.00302100
  -exchange      EXHF   =         0.00000000
  -V(xc)+E(xc)   XCENC  =       178.53640628
  PAW double counting   =     29353.89943614   -28431.34685719
  entropy T*S    EENTRO =        -0.02453834
  eigenvalues    EBANDS =      -864.37903217
  atomic energy  EATOM  =     27259.89416086
  Solvation  Ediel_sol  =         0.00000000
  ---------------------------------------------------
  free energy    TOTEN  =      -230.30785070 eV

  energy without entropy =     -230.28331236  energy(sigma->0) =     -230.29967125


--------------------------------------------------------------------------------------------------------




--------------------------------------- Iteration      1(  12)  ---------------------------------------


    POTLOK:  cpu time    0.1774: real time    0.1787
    SETDIJ:  cpu time    0.0111: real time    0.0112
    EDDIAG:  cpu time    2.0276: real time    2.0428
  RMM-DIIS:  cpu time    6.8187: real time    6.8726
    ORTHCH:  cpu time    0.2728: real time    0.2747
       DOS:  cpu time    0.0013: real time    0.0013
    CHARGE:  cpu time    0.8007: real time    0.8063
    MIXING:  cpu time    0.0062: real time    0.0063
    --------------------------------------------
      LOOP:  cpu time   10.1158: real time   10.1938

 eigenvalue-minimisations  :  1842
 total energy-change (2. order) : 0.1441568E+00  (-0.1832601E-01)
 number of electron     376.0000094 magnetization 
 augmentation part      112.9462413 magnetization 

 Broyden mixing:
  rms(total) = 0.20746E+00    rms(broyden)= 0.20742E+00
  rms(prec ) = 0.27138E+00
  weight for this iteration     100.00

 eigenvalues of (default mixing * dielectric matrix)
  average eigenvalue GAMMA=   0.6513
  1.7819  1.0215  0.6342  0.4778  0.1288  0.2415  0.2732

 Free energy of the ion-electron system (eV)
  ---------------------------------------------------
  alpha Z        PSCENC =       975.10247152
  Ewald energy   TEWEN  =     91743.01312319
  -Hartree energ DENC   =   -120434.28890670
  -exchange      EXHF   =         0.00000000
  -V(xc)+E(xc)   XCENC  =       178.50447409
  PAW double counting   =     29579.70427242   -28659.90756007
  entropy T*S    EENTRO =        -0.01869391
  eigenvalues    EBANDS =      -872.16703533
  atomic energy  EATOM  =     27259.89416086
  Solvation  Ediel_sol  =         0.00000000
  ---------------------------------------------------
  free energy    TOTEN  =      -230.16369393 eV

  energy without entropy =     -230.14500002  energy(sigma->0) =     -230.15746263


--------------------------------------------------------------------------------------------------------




--------------------------------------- Iteration      1(  13)  ---------------------------------------


    POTLOK:  cpu time    0.1770: real time    0.1785
    SETDIJ:  cpu time    0.0108: real time    0.0109
    EDDIAG:  cpu time    2.0279: real time    2.0432
  RMM-DIIS:  cpu time    7.0577: real time    7.1131
    ORTHCH:  cpu time    0.2809: real time    0.2829
       DOS:  cpu time    0.0013: real time    0.0013
    CHARGE:  cpu time    0.7345: real time    0.7396
    MIXING:  cpu time    0.0068: real time    0.0068
    --------------------------------------------
      LOOP:  cpu time   10.2969: real time   10.3763

 eigenvalue-minimisations  :  1830
 total energy-change (2. order) : 0.1407336E-01  (-0.1218967E-01)
 number of electron     376.0000093 magnetization 
 augmentation part      112.9515206 magnetization 

 Broyden mixing:
  rms(total) = 0.18350E+00    rms(broyden)= 0.18349E+00
  rms(prec ) = 0.22139E+00
  weight for this iteration     100.00

 eigenvalues of (default mixing * dielectric matrix)
  average eigenvalue GAMMA=   0.6910
  2.0179  1.1083  0.9661  0.4414  0.1288  0.3702  0.2700  0.2253

 Free energy of the ion-electron system (eV)
  ---------------------------------------------------
  alpha Z        PSCENC =       975.10247152
  Ewald energy   TEWEN  =     91743.01312319
  -Hartree energ DENC   =   -120433.91076492
  -exchange      EXHF   =         0.00000000
  -V(xc)+E(xc)   XCENC  =       178.40877951
  PAW double counting   =     29835.67020777   -28918.91894120
  entropy T*S    EENTRO =        -0.01271719
  eigenvalues    EBANDS =      -869.39594011
  atomic energy  EATOM  =     27259.89416086
  Solvation  Ediel_sol  =         0.00000000
  ---------------------------------------------------
  free energy    TOTEN  =      -230.14962058 eV

  energy without entropy =     -230.13690338  energy(sigma->0) =     -230.14538151


--------------------------------------------------------------------------------------------------------




--------------------------------------- Iteration      1(  14)  ---------------------------------------


    POTLOK:  cpu time    0.1542: real time    0.1554
    SETDIJ:  cpu time    0.0109: real time    0.0110
    EDDIAG:  cpu time    1.6098: real time    1.6204
  RMM-DIIS:  cpu time    6.6322: real time    6.6808
    ORTHCH:  cpu time    0.2785: real time    0.2803
       DOS:  cpu time    0.0013: real time    0.0013
    CHARGE:  cpu time    0.7186: real time    0.7235
    MIXING:  cpu time    0.0077: real time    0.0077
    --------------------------------------------
      LOOP:  cpu time    9.4132: real time    9.4804

 eigenvalue-minimisations  :  1832
 total energy-change (2. order) : 0.3979162E-01  (-0.8446084E-02)
 number of electron     376.0000094 magnetization 
 augmentation part      112.9272854 magnetization 

 Broyden mixing:
  rms(total) = 0.90888E-01    rms(broyden)= 0.90871E-01
  rms(prec ) = 0.11493E+00
  weight for this iteration     100.00

 eigenvalues of (default mixing * dielectric matrix)
  average eigenvalue GAMMA=   0.7357
  2.4096  1.2898  0.9302  0.6132  0.4505  0.1288  0.3123  0.2629  0.2238

 Free energy of the ion-electron system (eV)
  ---------------------------------------------------
  alpha Z        PSCENC =       975.10247152
  Ewald energy   TEWEN  =     91743.01312319
  -Hartree energ DENC   =   -120437.48569734
  -exchange      EXHF   =         0.00000000
  -V(xc)+E(xc)   XCENC  =       178.33395752
  PAW double counting   =     30004.90483050   -29090.09210396
  entropy T*S    EENTRO =        -0.00646312
  eigenvalues    EBANDS =      -863.77410815
  atomic energy  EATOM  =     27259.89416086
  Solvation  Ediel_sol  =         0.00000000
  ---------------------------------------------------
  free energy    TOTEN  =      -230.10982896 eV

  energy without entropy =     -230.10336584  energy(sigma->0) =     -230.10767459


--------------------------------------------------------------------------------------------------------




--------------------------------------- Iteration      1(  15)  ---------------------------------------


    POTLOK:  cpu time    0.1826: real time    0.1839
    SETDIJ:  cpu time    0.0114: real time    0.0114
    EDDIAG:  cpu time    2.0733: real time    2.0876
  RMM-DIIS:  cpu time    6.9191: real time    6.9681
    ORTHCH:  cpu time    0.2588: real time    0.2603
       DOS:  cpu time    0.0012: real time    0.0012
    CHARGE:  cpu time    0.6468: real time    0.6507
    MIXING:  cpu time    0.0079: real time    0.0080
    --------------------------------------------
      LOOP:  cpu time   10.1012: real time   10.1712

 eigenvalue-minimisations  :  1829
 total energy-change (2. order) : 0.3772500E-02  (-0.3784147E-02)
 number of electron     376.0000094 magnetization 
 augmentation part      112.9293491 magnetization 

 Broyden mixing:
  rms(total) = 0.79420E-01    rms(broyden)= 0.79401E-01
  rms(prec ) = 0.96735E-01
  weight for this iteration     100.00

 eigenvalues of (default mixing * dielectric matrix)
  average eigenvalue GAMMA=   0.7128
  2.5314  1.2891  0.8134  0.8134  0.4409  0.1288  0.3587  0.2723  0.2574  0.2227

 Free energy of the ion-electron system (eV)
  ---------------------------------------------------
  alpha Z        PSCENC =       975.10247152
  Ewald energy   TEWEN  =     91743.01312319
  -Hartree energ DENC   =   -120436.46863426
  -exchange      EXHF   =         0.00000000
  -V(xc)+E(xc)   XCENC  =       178.31089797
  PAW double counting   =     30104.15542323   -29190.42469374
  entropy T*S    EENTRO =        -0.00448988
  eigenvalues    EBANDS =      -863.68431535
  atomic energy  EATOM  =     27259.89416086
  Solvation  Ediel_sol  =         0.00000000
  ---------------------------------------------------
  free energy    TOTEN  =      -230.10605646 eV

  energy without entropy =     -230.10156658  energy(sigma->0) =     -230.10455983


--------------------------------------------------------------------------------------------------------




--------------------------------------- Iteration      1(  16)  ---------------------------------------


    POTLOK:  cpu time    0.1609: real time    0.1619
    SETDIJ:  cpu time    0.0122: real time    0.0123
    EDDIAG:  cpu time    1.8307: real time    1.8466
  RMM-DIIS:  cpu time    6.6388: real time    6.6873
    ORTHCH:  cpu time    0.2700: real time    0.2717
       DOS:  cpu time    0.0013: real time    0.0013
    CHARGE:  cpu time    0.7796: real time    0.7852
    MIXING:  cpu time    0.0078: real time    0.0079
    --------------------------------------------
      LOOP:  cpu time    9.7014: real time    9.7742

 eigenvalue-minimisations  :  1829
 total energy-change (2. order) : 0.8728011E-02  (-0.1139616E-02)
 number of electron     376.0000093 magnetization 
 augmentation part      112.9373398 magnetization 

 Broyden mixing:
  rms(total) = 0.30513E-01    rms(broyden)= 0.30499E-01
  rms(prec ) = 0.37471E-01
  weight for this iteration     100.00

 eigenvalues of (default mixing * dielectric matrix)
  average eigenvalue GAMMA=   0.6933
  2.5169  1.2643  0.8482  0.8482  0.4840  0.4840  0.1288  0.3179  0.2733  0.2218
  0.2390

 Free energy of the ion-electron system (eV)
  ---------------------------------------------------
  alpha Z        PSCENC =       975.10247152
  Ewald energy   TEWEN  =     91743.01312319
  -Hartree energ DENC   =   -120436.89139685
  -exchange      EXHF   =         0.00000000
  -V(xc)+E(xc)   XCENC  =       178.31817700
  PAW double counting   =     30130.57828135   -29217.12829394
  entropy T*S    EENTRO =        -0.00812418
  eigenvalues    EBANDS =      -862.97572740
  atomic energy  EATOM  =     27259.89416086
  Solvation  Ediel_sol  =         0.00000000
  ---------------------------------------------------
  free energy    TOTEN  =      -230.09732845 eV

  energy without entropy =     -230.08920427  energy(sigma->0) =     -230.09462039


--------------------------------------------------------------------------------------------------------




--------------------------------------- Iteration      1(  17)  ---------------------------------------


    POTLOK:  cpu time    0.1813: real time    0.1826
    SETDIJ:  cpu time    0.0116: real time    0.0117
    EDDIAG:  cpu time    2.0447: real time    2.0586
  RMM-DIIS:  cpu time    7.0544: real time    7.1045
    ORTHCH:  cpu time    0.2826: real time    0.2844
       DOS:  cpu time    0.0012: real time    0.0013
    CHARGE:  cpu time    0.7960: real time    0.8016
    MIXING:  cpu time    0.0083: real time    0.0083
    --------------------------------------------
      LOOP:  cpu time   10.3801: real time   10.4529

 eigenvalue-minimisations  :  1821
 total energy-change (2. order) : 0.9904764E-03  (-0.2387962E-03)
 number of electron     376.0000094 magnetization 
 augmentation part      112.9359158 magnetization 

 Broyden mixing:
  rms(total) = 0.18075E-01    rms(broyden)= 0.18070E-01
  rms(prec ) = 0.21751E-01
  weight for this iteration     100.00

 eigenvalues of (default mixing * dielectric matrix)
  average eigenvalue GAMMA=   0.7258
  2.4745  1.2209  1.2209  1.0269  0.7861  0.4545  0.1288  0.3690  0.3086  0.2666
  0.2324  0.2201

 Free energy of the ion-electron system (eV)
  ---------------------------------------------------
  alpha Z        PSCENC =       975.10247152
  Ewald energy   TEWEN  =     91743.01312319
  -Hartree energ DENC   =   -120437.54024021
  -exchange      EXHF   =         0.00000000
  -V(xc)+E(xc)   XCENC  =       178.32282878
  PAW double counting   =     30128.59364190   -29215.08962228
  entropy T*S    EENTRO =        -0.00791107
  eigenvalues    EBANDS =      -862.38479068
  atomic energy  EATOM  =     27259.89416086
  Solvation  Ediel_sol  =         0.00000000
  ---------------------------------------------------
  free energy    TOTEN  =      -230.09633797 eV

  energy without entropy =     -230.08842691  energy(sigma->0) =     -230.09370095


--------------------------------------------------------------------------------------------------------




--------------------------------------- Iteration      1(  18)  ---------------------------------------


    POTLOK:  cpu time    0.1683: real time    0.1696
    SETDIJ:  cpu time    0.0106: real time    0.0107
    EDDIAG:  cpu time    2.0285: real time    2.0427
  RMM-DIIS:  cpu time    7.0260: real time    7.0784
    ORTHCH:  cpu time    0.2777: real time    0.2795
       DOS:  cpu time    0.0013: real time    0.0013
    CHARGE:  cpu time    0.7640: real time    0.7694
    MIXING:  cpu time    0.0081: real time    0.0081
    --------------------------------------------
      LOOP:  cpu time   10.2845: real time   10.3597

 eigenvalue-minimisations  :  1816
 total energy-change (2. order) :-0.2931264E-03  (-0.1057033E-03)
 number of electron     376.0000094 magnetization 
 augmentation part      112.9306182 magnetization 

 Broyden mixing:
  rms(total) = 0.15114E-01    rms(broyden)= 0.15108E-01
  rms(prec ) = 0.18202E-01
  weight for this iteration     100.00

 eigenvalues of (default mixing * dielectric matrix)
  average eigenvalue GAMMA=   0.7373
  2.4656  1.4885  1.4885  0.8943  0.8943  0.4440  0.4440  0.1288  0.3277  0.3003
  0.2594  0.2302  0.2196

 Free energy of the ion-electron system (eV)
  ---------------------------------------------------
  alpha Z        PSCENC =       975.10247152
  Ewald energy   TEWEN  =     91743.01312319
  -Hartree energ DENC   =   -120438.58369530
  -exchange      EXHF   =         0.00000000
  -V(xc)+E(xc)   XCENC  =       178.32601366
  PAW double counting   =     30123.51175520   -29209.88790599
  entropy T*S    EENTRO =        -0.00731405
  eigenvalues    EBANDS =      -861.46524019
  atomic energy  EATOM  =     27259.89416086
  Solvation  Ediel_sol  =         0.00000000
  ---------------------------------------------------
  free energy    TOTEN  =      -230.09663110 eV

  energy without entropy =     -230.08931704  energy(sigma->0) =     -230.09419308


--------------------------------------------------------------------------------------------------------




--------------------------------------- Iteration      1(  19)  ---------------------------------------


    POTLOK:  cpu time    0.1621: real time    0.1635
    SETDIJ:  cpu time    0.0105: real time    0.0105
    EDDIAG:  cpu time    2.0524: real time    2.0664
  RMM-DIIS:  cpu time    6.0796: real time    6.1245
    ORTHCH:  cpu time    0.2707: real time    0.2834
       DOS:  cpu time    0.0012: real time    0.0012
    --------------------------------------------
      LOOP:  cpu time    8.5765: real time    8.6495

 eigenvalue-minimisations  :  1513
 total energy-change (2. order) :-0.8063262E-04  (-0.5094849E-04)
 number of electron     376.0000094 magnetization 
 augmentation part      112.9306182 magnetization 

 Free energy of the ion-electron system (eV)
  ---------------------------------------------------
  alpha Z        PSCENC =       975.10247152
  Ewald energy   TEWEN  =     91743.01312319
  -Hartree energ DENC   =   -120439.51956322
  -exchange      EXHF   =         0.00000000
  -V(xc)+E(xc)   XCENC  =       178.33169201
  PAW double counting   =     30122.79088355   -29209.11859200
  entropy T*S    EENTRO =        -0.00748405
  eigenvalues    EBANDS =      -860.58340361
  atomic energy  EATOM  =     27259.89416086
  Solvation  Ediel_sol  =         0.00000000
  ---------------------------------------------------
  free energy    TOTEN  =      -230.09671173 eV

  energy without entropy =     -230.08922768  energy(sigma->0) =     -230.09421705


--------------------------------------------------------------------------------------------------------




 average (electrostatic) potential at core
  the test charge radii are     0.6991  0.7215  1.2059
  (the norm of the test charge is              1.0000)
       1 -56.2213       2 -74.4445       3 -76.1524       4 -72.3570       5 -72.3575
       6 -72.3324       7 -72.3518       8 -72.3741       9 -72.3621      10 -72.3161
      11 -72.3546      12 -72.3363      13 -72.9304      14 -73.0369      15 -72.9991
      16 -73.0065      17 -73.0463      18 -72.9869      19 -73.0205      20 -73.0123
      21 -73.0944      22 -72.9688      23 -72.9757      24 -72.9730      25 -73.0199
      26 -73.0472      27 -73.0686      28 -73.0261      29 -73.0192      30 -73.0109
      31 -72.4687      32 -72.4090      33 -72.5073      34 -72.4360      35 -72.3155
      36 -73.2665      37 -72.5320      38 -73.1473      39 -72.5008
 
 
 
 E-fermi :   1.0634     XC(G=0):  -6.6149     alpha+bet : -6.8913


 k-point     1 :       0.0000    0.0000    0.0000
  band No.  band energies     occupation 
      1     -22.0428      2.00000
      2     -16.4855      2.00000
      3      -8.5024      2.00000
      4      -8.1272      2.00000
      5      -6.8482      2.00000
      6      -5.9202      2.00000
      7      -5.8652      2.00000
      8      -5.7919      2.00000
      9      -5.7584      2.00000
     10      -5.7271      2.00000
     11      -5.6932      2.00000
     12      -5.6487      2.00000
     13      -5.6084      2.00000
     14      -5.5332      2.00000
     15      -5.3884      2.00000
     16      -5.2163      2.00000
     17      -5.1654      2.00000
     18      -5.1480      2.00000
     19      -5.0969      2.00000
     20      -5.0793      2.00000
     21      -5.0263      2.00000
     22      -5.0101      2.00000
     23      -4.6810      2.00000
     24      -4.6527      2.00000
     25      -4.6166      2.00000
     26      -4.6085      2.00000
     27      -4.5729      2.00000
     28      -4.5421      2.00000
     29      -4.4374      2.00000
     30      -4.4137      2.00000
     31      -4.3907      2.00000
     32      -4.3565      2.00000
     33      -4.3458      2.00000
     34      -4.2940      2.00000
     35      -4.2172      2.00000
     36      -4.1934      2.00000
     37      -4.1626      2.00000
     38      -4.1412      2.00000
     39      -4.1182      2.00000
     40      -4.1039      2.00000
     41      -4.0969      2.00000
     42      -4.0851      2.00000
     43      -4.0770      2.00000
     44      -4.0597      2.00000
     45      -4.0126      2.00000
     46      -3.9951      2.00000
     47      -3.6005      2.00000
     48      -3.5931      2.00000
     49      -3.5074      2.00000
     50      -3.4704      2.00000
     51      -3.4661      2.00000
     52      -3.4494      2.00000
     53      -3.4292      2.00000
     54      -3.4030      2.00000
     55      -3.3891      2.00000
     56      -3.3530      2.00000
     57      -3.3003      2.00000
     58      -3.2638      2.00000
     59      -3.2064      2.00000
     60      -3.1758      2.00000
     61      -2.9470      2.00000
     62      -2.8264      2.00000
     63      -2.7470      2.00000
     64      -2.6859      2.00000
     65      -2.6469      2.00000
     66      -2.6224      2.00000
     67      -2.5934      2.00000
     68      -2.5469      2.00000
     69      -2.5300      2.00000
     70      -2.5093      2.00000
     71      -2.4816      2.00000
     72      -2.4667      2.00000
     73      -2.4537      2.00000
     74      -2.4383      2.00000
     75      -2.4185      2.00000
     76      -2.3933      2.00000
     77      -2.3866      2.00000
     78      -2.3759      2.00000
     79      -2.3628      2.00000
     80      -2.3559      2.00000
     81      -2.3362      2.00000
     82      -2.2892      2.00000
     83      -2.2749      2.00000
     84      -2.2673      2.00000
     85      -2.2391      2.00000
     86      -2.1946      2.00000
     87      -2.1817      2.00000
     88      -2.1553      2.00000
     89      -2.1394      2.00000
     90      -2.0728      2.00000
     91      -2.0710      2.00000
     92      -2.0436      2.00000
     93      -2.0301      2.00000
     94      -2.0103      2.00000
     95      -1.9810      2.00000
     96      -1.9303      2.00000
     97      -1.9078      2.00000
     98      -1.8794      2.00000
     99      -1.8237      2.00000
    100      -1.7790      2.00000
    101      -1.7144      2.00000
    102      -1.6626      2.00000
    103      -1.6559      2.00000
    104      -1.6193      2.00000
    105      -1.5798      2.00000
    106      -1.5699      2.00000
    107      -1.5625      2.00000
    108      -1.5538      2.00000
    109      -1.5408      2.00000
    110      -1.5194      2.00000
    111      -1.5152      2.00000
    112      -1.5091      2.00000
    113      -1.4633      2.00000
    114      -1.3459      2.00000
    115      -1.3009      2.00000
    116      -1.1889      2.00000
    117      -1.1059      2.00000
    118      -1.0632      2.00000
    119      -1.0500      2.00000
    120      -1.0056      2.00000
    121      -0.9767      2.00000
    122      -0.9701      2.00000
    123      -0.9647      2.00000
    124      -0.9209      2.00000
    125      -0.8971      2.00000
    126      -0.8582      2.00000
    127      -0.8322      2.00000
    128      -0.8002      2.00000
    129      -0.7130      2.00000
    130      -0.6988      2.00000
    131      -0.6920      2.00000
    132      -0.6722      2.00000
    133      -0.6642      2.00000
    134      -0.6157      2.00000
    135      -0.5744      2.00000
    136      -0.4928      2.00000
    137      -0.4209      2.00000
    138      -0.3998      2.00000
    139      -0.3923      2.00000
    140      -0.3896      2.00000
    141      -0.2982      2.00000
    142      -0.2854      2.00000
    143      -0.2488      2.00000
    144      -0.2050      2.00000
    145      -0.1739      2.00000
    146      -0.1604      2.00000
    147      -0.1061      2.00000
    148      -0.0757      2.00000
    149      -0.0215      2.00000
    150       0.0366      2.00000
    151       0.0579      2.00000
    152       0.0879      2.00000
    153       0.0991      2.00000
    154       0.1265      2.00000
    155       0.1337      2.00000
    156       0.1703      2.00000
    157       0.1810      2.00000
    158       0.2293      2.00000
    159       0.2312      2.00000
    160       0.2518      2.00000
    161       0.2858      2.00000
    162       0.2970      2.00000
    163       0.3151      2.00000
    164       0.3254      2.00000
    165       0.3451      2.00000
    166       0.3615      2.00001
    167       0.4010      2.00003
    168       0.4063      2.00003
    169       0.4207      2.00005
    170       0.4607      2.00017
    171       0.4792      2.00029
    172       0.5313      2.00110
    173       0.5348      2.00119
    174       0.5737      2.00291
    175       0.5837      2.00360
    176       0.6053      2.00561
    177       0.6306      2.00907
    178       0.6438      2.01150
    179       0.6623      2.01571
    180       0.6836      2.02185
    181       0.7121      2.03232
    182       0.7359      2.04269
    183       0.7755      2.06046
    184       0.7833      2.06351
    185       0.7866      2.06467
    186       0.7896      2.06569
    187       0.7964      2.06770
    188       0.8069      2.06997
    189       0.8134      2.07073
    190       0.8228      2.07077
    191       0.8290      2.07000
    192       0.8510      2.06086
    193       0.8706      2.04202
    194       0.8713      2.04110
    195       0.9112      1.95869
    196       1.0505      1.10862
    197       1.0726      0.92215
    198       1.1441      0.37487
    199       1.1688      0.23100
    200       1.1877      0.14138
    201       1.2134      0.04788
    202       1.2274      0.01004
    203       1.2316      0.00035
    204       1.3590     -0.05723
    205       1.4469     -0.02068
    206       1.8899     -0.00000
    207       1.9665     -0.00000
    208       2.0359     -0.00000
    209       2.0512     -0.00000
    210       2.1886     -0.00000
    211       2.5124     -0.00000
    212       3.5105     -0.00000
    213       4.0551     -0.00000
    214       4.3455     -0.00000
    215       4.3959     -0.00000
    216       4.4161     -0.00000
    217       4.5876     -0.00000
    218       4.8474     -0.00000
    219       5.4386     -0.00000
    220       5.6761     -0.00000
    221       5.8206     -0.00000
    222       5.8499     -0.00000
    223       5.8835     -0.00000
    224       5.9163     -0.00000
    225       5.9920     -0.00000
    226       6.1416     -0.00000
    227       6.5486      0.00000
    228       6.8840      0.00000

 k-point     2 :       0.5000    0.0000    0.0000
  band No.  band energies     occupation 
      1     -22.0427      2.00000
      2     -16.4852      2.00000
      3      -8.4552      2.00000
      4      -7.3146      2.00000
      5      -7.2820      2.00000
      6      -6.1238      2.00000
      7      -6.0357      2.00000
      8      -5.9168      2.00000
      9      -5.8612      2.00000
     10      -5.6645      2.00000
     11      -5.4800      2.00000
     12      -5.4310      2.00000
     13      -5.3252      2.00000
     14      -5.2534      2.00000
     15      -5.0165      2.00000
     16      -4.9511      2.00000
     17      -4.9380      2.00000
     18      -4.9071      2.00000
     19      -4.8859      2.00000
     20      -4.8784      2.00000
     21      -4.8768      2.00000
     22      -4.8599      2.00000
     23      -4.8383      2.00000
     24      -4.8104      2.00000
     25      -4.7764      2.00000
     26      -4.7556      2.00000
     27      -4.7172      2.00000
     28      -4.7011      2.00000
     29      -4.6702      2.00000
     30      -4.5779      2.00000
     31      -4.4147      2.00000
     32      -4.3950      2.00000
     33      -4.3744      2.00000
     34      -4.3550      2.00000
     35      -4.3083      2.00000
     36      -4.1470      2.00000
     37      -4.0894      2.00000
     38      -4.0664      2.00000
     39      -4.0370      2.00000
     40      -4.0189      2.00000
     41      -4.0005      2.00000
     42      -3.9756      2.00000
     43      -3.9014      2.00000
     44      -3.8100      2.00000
     45      -3.7832      2.00000
     46      -3.7248      2.00000
     47      -3.7193      2.00000
     48      -3.6866      2.00000
     49      -3.6304      2.00000
     50      -3.6088      2.00000
     51      -3.4816      2.00000
     52      -3.4660      2.00000
     53      -3.4341      2.00000
     54      -3.4153      2.00000
     55      -3.3785      2.00000
     56      -3.3389      2.00000
     57      -3.2521      2.00000
     58      -3.2114      2.00000
     59      -3.1971      2.00000
     60      -3.1812      2.00000
     61      -3.1302      2.00000
     62      -3.0816      2.00000
     63      -3.0621      2.00000
     64      -3.0352      2.00000
     65      -2.9821      2.00000
     66      -2.9646      2.00000
     67      -2.9034      2.00000
     68      -2.8866      2.00000
     69      -2.8586      2.00000
     70      -2.8091      2.00000
[...]
     89      -2.1681      2.00000
     90      -2.1635      2.00000
     91      -2.1460      2.00000
     92      -2.1132      2.00000
     93      -2.0929      2.00000
     94      -2.0153      2.00000
     95      -1.9886      2.00000
     96      -1.9722      2.00000
     97      -1.9412      2.00000
     98      -1.9274      2.00000
     99      -1.8911      2.00000
    100      -1.8361      2.00000
    101      -1.8014      2.00000
    102      -1.7800      2.00000
    103      -1.7678      2.00000
    104      -1.7296      2.00000
    105      -1.7073      2.00000
    106      -1.6993      2.00000
    107      -1.6726      2.00000
    108      -1.6410      2.00000
    109      -1.6274      2.00000
    110      -1.5558      2.00000
    111      -1.5016      2.00000
    112      -1.4722      2.00000
    113      -1.4447      2.00000
    114      -1.3887      2.00000
    115      -1.3328      2.00000
    116      -1.2966      2.00000
    117      -1.2563      2.00000
    118      -1.1885      2.00000
    119      -1.1513      2.00000
    120      -1.1153      2.00000
    121      -1.0724      2.00000
    122      -1.0550      2.00000
    123      -1.0502      2.00000
    124      -1.0386      2.00000
    125      -1.0099      2.00000
    126      -0.9921      2.00000
    127      -0.9685      2.00000
    128      -0.9336      2.00000
    129      -0.9141      2.00000
    130      -0.9045      2.00000
    131      -0.8741      2.00000
    132      -0.8239      2.00000
    133      -0.7804      2.00000
    134      -0.7488      2.00000
    135      -0.7343      2.00000
    136      -0.6984      2.00000
    137      -0.6763      2.00000
    138      -0.6609      2.00000
    139      -0.6061      2.00000
    140      -0.5729      2.00000
    141      -0.4980      2.00000
    142      -0.4712      2.00000
    143      -0.4070      2.00000
    144      -0.2993      2.00000
    145      -0.2802      2.00000
    146      -0.2353      2.00000
    147      -0.1727      2.00000
    148      -0.1465      2.00000
    149      -0.1038      2.00000
    150      -0.0799      2.00000
    151      -0.0409      2.00000
    152       0.0170      2.00000
    153       0.0270      2.00000
    154       0.0509      2.00000
    155       0.0752      2.00000
    156       0.0931      2.00000
    157       0.1048      2.00000
    158       0.1587      2.00000
    159       0.1747      2.00000
    160       0.2118      2.00000
    161       0.2264      2.00000
    162       0.2431      2.00000
    163       0.3036      2.00000
    164       0.3424      2.00000
    165       0.3580      2.00000
    166       0.3720      2.00001
    167       0.5164      2.00054
    168       0.5690      2.00193
    169       0.5839      2.00268
    170       0.6128      2.00495
    171       0.6307      2.00703
    172       0.6621      2.01243
    173       0.6825      2.01740
    174       0.7665      2.05045
    175       0.7759      2.05473
    176       0.7977      2.06373
    177       0.8402      2.07041
    178       0.8543      2.06660
    179       0.8946      2.02720
    180       0.9098      1.99778
    181       0.9238      1.96216
    182       0.9883      1.67644
    183       1.0251      1.42502
    184       1.0660      1.09443
    185       1.0688      1.07144
    186       1.0892      0.89846
    187       1.1153      0.68434
    188       1.1274      0.58943
    189       1.1420      0.48266
    190       1.1574      0.37788
    191       1.2955     -0.06441
    192       1.3201     -0.07088
    193       1.3435     -0.06790
    194       1.3703     -0.05832
    195       1.4024     -0.04376
    196       1.4742     -0.01678
    197       1.5910     -0.00169
    198       1.7018     -0.00009
    199       1.8033     -0.00000
    200       1.9704     -0.00000
    201       2.2430     -0.00000
    202       2.3375     -0.00000
    203       2.7631     -0.00000
    204       2.9284     -0.00000
    205       2.9400     -0.00000
    206       2.9559     -0.00000
    207       2.9991     -0.00000
    208       3.1951     -0.00000
    209       3.3752     -0.00000
    210       3.5034     -0.00000
    211       3.5512     -0.00000
    212       3.6110     -0.00000
    213       3.6964     -0.00000
    214       3.7992     -0.00000
    215       3.9509     -0.00000
    216       4.1566     -0.00000
    217       4.2107     -0.00000
    218       4.3982     -0.00000
    219       4.4155     -0.00000
    220       4.5843     -0.00000
    221       4.6760     -0.00000
    222       4.8432     -0.00000
    223       5.1752     -0.00000
    224       5.5341     -0.00000
    225       6.0242     -0.00000
    226       6.5255     -0.00000
    227       6.5861      0.00000
    228       6.6282      0.00000


--------------------------------------------------------------------------------------------------------


 soft charge-density along one line, spin component           1
         0         1         2         3         4         5         6         7         8         9
 total charge-density along one line
 
 pseudopotential strength for first ion, spin component:           1
 10.093   0.015   0.004   0.011  -0.000  -0.004  -0.010   0.001
  0.015  -0.002  -0.000  -0.000  -0.000  -0.000  -0.000   0.000
  0.004  -0.000  -4.243  -0.007   0.001  -0.010  -0.002   0.000
  0.011  -0.000  -0.007  -4.258   0.005  -0.002  -0.016   0.001
 -0.000  -0.000   0.001   0.005  -4.240   0.000   0.001  -0.009
 -0.004  -0.000  -0.010  -0.002   0.000  -0.770  -0.000   0.000
 -0.010  -0.000  -0.002  -0.016   0.001  -0.000  -0.770   0.000
  0.001   0.000   0.000   0.001  -0.009   0.000   0.000  -0.770
 total augmentation occupancy for first ion, spin component:           1
  1.631  -0.873   0.021   0.019  -0.063   0.034   0.088  -0.029
 -0.873   1.250  -0.207  -0.575   0.119  -0.083  -0.236   0.044
  0.021  -0.207   0.841   0.184  -0.007   0.114   0.052  -0.007
  0.019  -0.575   0.184   1.329  -0.030   0.052   0.247  -0.016
 -0.063   0.119  -0.007  -0.030   0.797  -0.008  -0.017   0.101
  0.034  -0.083   0.114   0.052  -0.008   0.020   0.021  -0.004
  0.088  -0.236   0.052   0.247  -0.017   0.021   0.071  -0.009
 -0.029   0.044  -0.007  -0.016   0.101  -0.004  -0.009   0.015


------------------------ aborting loop because EDIFF is reached ----------------------------------------


    CHARGE:  cpu time    0.8482: real time    0.8538
    FORLOC:  cpu time    0.0526: real time    0.0529
    FORNL :  cpu time    3.4865: real time    3.5116
    STRESS:  cpu time   10.3690: real time   10.4500
    FORCOR:  cpu time    0.2101: real time    0.2116
    FORHAR:  cpu time    0.0960: real time    0.0966
    MIXING:  cpu time    0.0064: real time    0.0065
    OFIELD:  cpu time    0.0001: real time    0.0001

  FORCE on cell =-STRESS in cart. coord.  units (eV):
  Direction    XX          YY          ZZ          XY          YZ          ZX
  --------------------------------------------------------------------------------------
  Alpha Z   975.10247   975.10247   975.10247
  Ewald  111507.42824111494.80078************  -209.40458   236.10640   -96.33302
  Hartree118255.08678118217.27577************  -136.76552    99.53727   -49.89795
  E(xc)   -1666.12000 -1665.87836 -1673.43651    -0.48221     0.68782    -0.29562
  Local  ************************240444.53061   335.53535  -312.94550   137.27676
  n-local   124.46600   124.02426    91.37069    -1.41404     1.09421     0.34203
  augment  1895.38884  1893.39317  1932.23074     2.80322    -4.14717     1.26519
  Kinetic  5524.21099  5514.93600  5600.62686    10.29282   -20.48702     8.84569
  Fock        0.00000     0.00000     0.00000     0.00000     0.00000     0.00000
  -------------------------------------------------------------------------------------
  Total     -35.59983   -37.67583    -1.98879     0.56505    -0.15398     1.20309
  in kB     -42.39999   -44.87254    -2.36869     0.67298    -0.18340     1.43290
  external pressure =      -29.88 kB  Pullay stress =        0.00 kB


 VOLUME and BASIS-vectors are now :
 -----------------------------------------------------------------------------
  energy-cutoff  :      450.00
  volume of cell :     1345.22
      direct lattice vectors                 reciprocal lattice vectors
     7.296955120 -4.212899000  0.000000000     0.137043463  0.000000000  0.000000000
     0.000000000  8.425798000  0.000000000     0.068521732  0.118683121  0.000000000
     0.000000000  0.000000000 21.879635000     0.000000000  0.000000000  0.045704602

  length of vectors
     8.425798004  8.425798000 21.879635000     0.137043463  0.137043463  0.045704602


 FORCES acting on ions
    electron-ion (+dipol)            ewald-force                    non-local-force                 convergence-correction
 -----------------------------------------------------------------------------------------------
   0.377E+01 0.133E+02 -.877E+03   -.394E+01 -.182E+02 0.864E+03   0.301E+00 0.315E+01 0.109E+02   0.257E-02 0.180E-01 0.716E-01
   -.808E+02 0.564E+02 -.159E+04   0.827E+02 -.544E+02 0.162E+04   -.132E+01 -.175E+01 -.224E+02   -.149E-01 0.275E-01 0.493E-01
   0.668E+02 -.104E+03 -.156E+04   -.777E+02 0.124E+03 0.162E+04   0.108E+02 -.202E+02 -.580E+02   0.156E-01 -.160E-01 -.586E-02
   -.665E+00 -.381E+00 0.234E+04   0.582E+00 0.450E+00 -.234E+04   0.530E-01 -.444E-01 -.117E+01   0.160E-01 -.473E-01 -.421E-01
   0.617E+00 -.100E+01 0.234E+04   -.578E+00 0.970E+00 -.234E+04   -.228E-01 -.175E-01 -.113E+01   -.222E-01 -.484E-02 -.366E-01
   -.418E+00 0.771E+00 0.234E+04   0.332E+00 -.823E+00 -.234E+04   0.431E-01 -.445E-02 -.114E+01   -.363E-02 0.352E-01 -.445E-01
   -.113E+01 0.126E+01 0.234E+04   0.117E+01 -.128E+01 -.234E+04   -.225E-01 0.232E-02 -.116E+01   0.933E-02 0.106E+00 -.157E-01
   0.619E+00 0.290E+00 0.234E+04   -.663E+00 -.335E+00 -.234E+04   0.229E-02 0.313E-01 -.122E+01   0.427E-01 0.227E-01 -.409E-01
   0.108E+01 -.549E+00 0.234E+04   -.115E+01 0.475E+00 -.234E+04   0.175E-01 0.110E-01 -.121E+01   0.601E-01 0.656E-01 -.579E-02
   0.777E-01 0.569E+00 0.234E+04   0.864E-01 -.639E+00 -.234E+04   -.674E-01 0.718E-01 -.108E+01   -.764E-01 -.180E-01 -.318E-01
   0.207E+00 -.149E+00 0.234E+04   -.191E+00 0.342E+00 -.234E+04   -.300E-01 -.386E-01 -.123E+01   0.137E-01 -.101E+00 -.278E-01
   -.331E+00 -.826E+00 0.234E+04   0.414E+00 0.837E+00 -.234E+04   -.260E-01 0.415E-01 -.104E+01   -.394E-01 -.583E-01 0.620E-02
   -.837E+00 -.244E+01 0.863E+03   0.850E+00 0.249E+01 -.863E+03   0.676E-01 -.381E-01 -.575E+00   -.969E-01 -.473E-01 -.343E-02
   -.576E+01 0.273E+01 0.865E+03   0.572E+01 -.270E+01 -.865E+03   0.175E+00 0.677E-01 -.249E+00   -.277E-01 -.436E-01 0.177E-01
   0.115E+01 -.965E+01 0.860E+03   -.109E+01 0.974E+01 -.860E+03   -.815E-02 0.134E+00 -.346E+00   -.625E-02 -.135E+00 0.309E-02
   -.216E+01 -.830E+01 0.855E+03   0.212E+01 0.832E+01 -.855E+03   0.896E-01 0.912E-01 -.172E+00   0.202E-01 -.173E-01 -.116E-01
   0.926E+01 -.284E+01 0.869E+03   -.942E+01 0.284E+01 -.869E+03   -.565E-01 -.418E-01 -.403E+00   0.451E-01 0.702E-01 0.235E-01
   -.981E+01 0.107E+02 0.861E+03   0.983E+01 -.109E+02 -.860E+03   0.982E-01 -.152E+00 -.244E+00   0.870E-02 0.760E-01 0.285E-01
   0.303E+01 0.106E+02 0.857E+03   -.295E+01 -.106E+02 -.857E+03   -.211E+00 -.155E+00 -.286E+00   -.367E-01 0.641E-01 -.126E-01
   0.104E+02 0.562E+00 0.858E+03   -.105E+02 -.511E+00 -.858E+03   -.844E-01 -.808E-01 -.332E+00   0.893E-01 -.269E-01 -.123E-01
   -.533E+01 0.795E+00 0.875E+03   0.537E+01 -.712E+00 -.875E+03   0.119E+00 -.113E+00 -.712E+00   0.379E-02 0.600E-01 0.130E-01
   -.108E+02 -.587E+01 -.660E+03   0.108E+02 0.572E+01 0.660E+03   0.151E+00 0.271E+00 -.568E+00   -.255E-01 0.456E-01 0.104E+00
   0.277E+01 0.193E+02 -.628E+03   -.289E+01 -.191E+02 0.628E+03   0.206E+00 -.742E+00 0.825E+00   0.133E-01 0.957E-02 0.445E-01
   -.997E+01 0.119E+02 -.661E+03   0.964E+01 -.115E+02 0.661E+03   0.587E+00 -.300E+00 -.669E+00   -.118E-01 -.278E-01 0.932E-01
   0.110E+01 0.108E+02 -.629E+03   -.144E+01 -.999E+01 0.630E+03   0.258E+00 -.838E+00 0.113E+00   -.404E-01 -.673E-01 0.225E-01
   0.192E+02 0.150E+01 -.632E+03   -.186E+02 -.168E+01 0.632E+03   -.791E+00 0.306E+00 0.199E+00   -.398E-02 -.417E-02 0.469E-01
   -.931E+01 0.512E+00 -.637E+03   0.932E+01 -.637E+00 0.637E+03   0.247E+00 -.203E+00 0.385E+00   -.846E-01 0.265E-01 0.150E-01
   0.476E+01 -.166E+02 -.615E+03   -.472E+01 0.166E+02 0.615E+03   -.257E+00 0.433E+00 0.104E+01   0.364E-01 -.747E-01 0.269E-02
   0.103E+02 -.194E+02 -.649E+03   -.104E+02 0.193E+02 0.649E+03   -.244E+00 0.489E+00 -.535E+00   0.942E-01 -.218E-02 0.858E-01
   -.102E+02 -.436E+00 -.600E+03   0.101E+02 0.102E+00 0.600E+03   0.164E+00 0.191E+00 0.113E+01   0.199E-01 0.972E-01 0.311E-01
   -.194E+02 -.287E+02 -.217E+04   0.200E+02 0.288E+02 0.217E+04   -.723E+00 0.321E+00 0.149E+01   0.258E-01 -.717E-02 0.604E-01
   0.189E+02 0.330E+02 -.213E+04   -.194E+02 -.336E+02 0.213E+04   0.397E+00 0.615E+00 0.158E+01   0.191E-01 -.370E-01 0.430E-01
   0.470E+02 -.161E+01 -.216E+04   -.473E+02 0.156E+01 0.216E+04   -.157E+00 -.898E-01 0.100E+01   0.277E-01 0.180E-01 0.604E-01
   0.669E+01 -.263E+01 -.217E+04   -.648E+01 0.225E+01 0.217E+04   -.402E+00 0.592E+00 0.953E+00   -.377E-01 -.432E-01 0.194E-01
   0.971E+01 0.267E+02 -.220E+04   -.993E+01 -.268E+02 0.220E+04   0.430E+00 -.812E-01 0.758E+00   -.305E-01 -.113E-01 0.563E-01
   0.588E+02 0.548E+02 -.196E+04   -.614E+02 -.532E+02 0.196E+04   0.245E+01 -.138E+01 -.231E+01   0.293E-01 0.154E-01 0.336E-01
   -.487E+02 -.579E+02 -.208E+04   0.503E+02 0.601E+02 0.208E+04   -.175E+01 -.203E+01 0.239E+01   -.164E-01 0.262E-01 0.343E-01
   -.603E+02 0.932E+02 -.205E+04   0.604E+02 -.938E+02 0.205E+04   -.254E+00 0.833E+00 -.370E+00   -.211E-01 0.564E-02 0.474E-01
   -.112E+02 -.646E+02 -.211E+04   0.111E+02 0.659E+02 0.211E+04   0.581E+00 -.135E+01 0.133E+01   0.174E-01 0.185E-01 0.240E-01
 -----------------------------------------------------------------------------------------------
   -.108E+02 0.221E+02 0.737E+02   0.391E-13 0.185E-12 0.909E-12   0.108E+02 -.220E+02 -.744E+02   0.141E-01 0.171E-01 0.746E+00
 
 
 POSITION                                       TOTAL-FORCE (eV/Angst)
 -----------------------------------------------------------------------------------
      5.11411      0.63755     10.33619         0.135954     -1.728354     -1.961355
      6.63248     -0.57744     10.19149         0.493475      0.310760     -0.094688
      4.92421      1.01619     11.40478        -0.010009      0.640062      1.408747
      7.20031     -1.38846      1.62732        -0.015163     -0.026056      0.178345
      2.33567      1.42014      1.62732        -0.007074     -0.057018      0.151348
      4.76799      0.01584      1.62732        -0.048124     -0.025205      0.086278
      7.20031      1.42015      1.62732         0.021851      0.082411      0.142466
      2.33567      4.22875      1.62732        -0.000071      0.005463      0.192000
      4.76799      2.82445      1.62732         0.009067     -0.000175      0.135169
      2.33567      7.03734      1.62732         0.019182     -0.018990      0.018718
      4.76799      5.63304      1.62732        -0.000833      0.051132      0.124579
      7.20031      4.22874      1.62732         0.016886     -0.008889      0.039231
      1.52490      0.01584      3.92052        -0.017128     -0.030585     -0.217380
      3.95722     -1.38846      3.92052         0.103689      0.055464     -0.149512
      6.38953     -2.79276      3.92052         0.037626      0.089490     -0.143133
      1.52490      2.82445      3.92052         0.067083      0.092974      0.127969
      3.95722      1.42015      3.92052        -0.170920      0.020996     -0.188386
      6.38953      0.01585      3.92052         0.132221     -0.222111      0.045293
      1.52490      5.63305      3.92052        -0.161346     -0.088910     -0.030985
      3.95722      4.22874      3.92052        -0.133643     -0.060365     -0.094546
      6.38953      2.82445      3.92052         0.162825      0.025381     -0.570195
      0.71023      4.18200      6.26970         0.075203      0.166496     -0.740447
      3.11821      5.66070      6.16435         0.100146     -0.523445      0.289632
      5.55235     -1.39529      6.26015         0.241260      0.003471     -0.556976
      0.71204      1.44400      6.17941        -0.131082     -0.110543      0.475495
      3.15642     -0.01343      6.19399        -0.195811      0.120131      0.099689
      0.70306      7.04317      6.18611         0.170290     -0.305218      0.043494
      5.59381      4.19077      6.13591        -0.181241      0.401724      0.468281
      3.16997      2.77244      6.24727        -0.251321      0.370462     -0.715272
      5.58497      1.39405      6.12786         0.148257     -0.048826      0.622476
      2.38747      4.17299      8.46821        -0.093188      0.405380      0.059611
      4.76066      5.58812      8.42817        -0.091419     -0.033762      0.043759
      2.36360      1.39077      8.50933        -0.409665     -0.125325     -0.171812
      7.23992      4.16640      8.48448        -0.234293      0.159956     -0.059042
      2.32686      7.01901      8.54252         0.182108     -0.224743     -0.355119
      4.69366      0.05650      8.52264        -0.107699      0.280500      0.603901
      7.28040      1.40624      8.45914        -0.185641      0.201430      0.065977
      7.23794     -1.51529      8.56207        -0.117318      0.191444      0.669082
      4.78039      2.85103      8.45615         0.445866     -0.036607     -0.042695
 -----------------------------------------------------------------------------------
    total drift:                                0.043252      0.122885      0.008645
  FORCES: max atom, RMS     2.617748    0.616500
  Number: max atom                 1
  FORCE total and by dimension    3.850042    1.961355


--------------------------------------------------------------------------------------------------------



  FREE ENERGIE OF THE ION-ELECTRON SYSTEM (eV)
  ---------------------------------------------------
  free  energy   TOTEN  =      -230.46985173 eV

  energy  without entropy=     -230.45793686  energy(sigma->0) =     -230.46588011
 
 d Force = 0.9239788E-01[-0.605E-04, 0.185E+00]  d Energy = 0.9774508E-01-0.535E-02
 d Force =-0.7401764E+01[-0.793E+01,-0.687E+01]  d Ewald  =-0.7395315E+01-0.645E-02


--------------------------------------------------------------------------------------------------------


    POTLOK:  cpu time    0.1993: real time    0.2473


--------------------------------------------------------------------------------------------------------


 stress matrix after NEB project (eV)
    -35.59983      0.56505      1.20309
      0.56505    -37.67583     -0.15398
      1.20309     -0.15398     -1.98879
  FORCES: max atom, RMS     2.617748    0.616500
  FORCE total and by dimension    3.850042    1.961355
  Stress total and by dimension   51.907154   37.675834
 Quasi-Newton relaxation of ions (Broydens 2nd method)
  g(Force)  = 0.286E+00   g(Stress)= 0.000E+00

 retain information from N=  2 steps
 eigenvalues of (default step * inverse Hessian matrix)
  average eigenvalue of G=   0.8310
 eigenvalue spectrum of G is  0.4036  1.2584
  RESET_HESSIAN           0


--------------------------------------------------------------------------------------------------------


    WAVPRE:  cpu time    0.0810: real time    0.2845
    FEWALD:  cpu time    0.0015: real time    0.0015

 real space projection operators:
  total allocation   :      13561.19 KBytes
  max/ min on nodes  :       6790.75       6770.44

    ORTHCH:  cpu time    1.4480: real time    1.4640
     LOOP+:  cpu time  108.7748: real time  109.9625


--------------------------------------- Iteration      4(   1)  ---------------------------------------


    POTLOK:  cpu time    0.1822: real time    0.2210
    SETDIJ:  cpu time    0.0115: real time    0.0115
