<?xml version="1.0" encoding="ISO-8859-1"?>
<modeling>
 <generator>
  <i name="program" type="string"> vasp </i>
  <i name="version" type="string">5.4.4  </i>
  <i name="subversion" type="string">16052018 (build Apr 24 2014 20:13:14) complex standard parallel Constrained Minimization Technique (TS), Periodic NBO, VASPsol, libbeef, VASP2WANNIER90, Constrained Cell Relaxation </i>
  <i name="platform" type="string">Center for Computational Chemistry </i>
  <i name="user" type="string">phu </i>
  <i name="host" type="string">node11 </i>
  <i name="date" type="string">2025 11 24 </i>
  <i name="time" type="string">22:06:31 </i>
 </generator>
 <incar>
  <i type="string" name="SYSTEM"> metal</i>
  <i type="int" name="ISTART">     0</i>
  <i type="string" name="PREC">normal</i>
  <i type="string" name="ALGO">Fast</i>
  <i type="int" name="NSIM">     4</i>
  <i type="int" name="ISPIN">     1</i>
  <i type="int" name="NELMIN">     8</i>
  <i type="int" name="IBRION">     1</i>
  <i name="EDIFFG">     -0.05000000</i>
  <i type="int" name="NSW">  5000</i>
  <i type="int" name="ISIF">     2</i>
  <i type="int" name="ISYM">     0</i>
  <i name="ENCUT">    450.00000000</i>
  <i name="POTIM">      0.20000000</i>
  <i type="string" name="LREAL">A</i>
  <i type="int" name="ISMEAR">     1</i>
  <i name="SIGMA">      0.20000000</i>
  <i type="logical" name="LWAVE"> F  </i>
  <i type="logical" name="LCHARG"> F  </i>
  <v type="int" name="KPOINT_BSE">    -1     0     0     0</v>
  <i type="int" name="VOSKOWN">     0</i>
 </incar>
 <structure name="primitive_cell" >
  <crystal>
   <varray name="basis" >
    <v>       7.29695512      -4.21289900       0.00000000 </v>
    <v>       0.00000000       8.42579800       0.00000000 </v>
    <v>       0.00000000       0.00000000      21.87963500 </v>
   </varray>
   <i name="volume">   1345.21837528 </i>
   <varray name="rec_basis" >
    <v>       0.13704346       0.00000000       0.00000000 </v>
    <v>       0.06852173       0.11868312       0.00000000 </v>
    <v>       0.00000000       0.00000000       0.04570460 </v>
   </varray>
  </crystal>
  <varray name="positions" >
   <v>      -0.29846621       0.43069801       0.47249002 </v>
   <v>      -0.32660276       0.45755389      -0.47762145 </v>
   <v>      -0.09295669       0.38397756       0.46630460 </v>
   <v>      -0.35682911       0.32662072       0.38806488 </v>
   <v>      -0.34798576      -0.33544728       0.38635806 </v>
   <v>      -0.00112214      -0.33471552       0.38642429 </v>
   <v>       0.32623875       0.32919577       0.38905642 </v>
   <v>      -0.00716740       0.31557215       0.38987776 </v>
   <v>       0.31797306      -0.00694219       0.39102191 </v>
   <v>      -0.34698402      -0.00968604       0.38516616 </v>
   <v>      -0.23578749      -0.45196411       0.27896976 </v>
   <v>      -0.00656364      -0.00942899       0.38793066 </v>
   <v>      -0.24065237       0.21421369       0.28728653 </v>
   <v>       0.43419794       0.21478267       0.28301572 </v>
   <v>       0.32756334      -0.34317704       0.38683066 </v>
   <v>       0.43596947      -0.45478128       0.28704952 </v>
   <v>       0.09685950      -0.45612360       0.28802120 </v>
   <v>       0.09513711      -0.11500905       0.28262666 </v>
   <v>      -0.23215509      -0.12086700       0.27950565 </v>
   <v>       0.42700454      -0.11200283       0.28111842 </v>
   <v>       0.09813548       0.22106179       0.28164103 </v>
   <v>      -0.45768900       0.43970300       0.17918600 </v>
   <v>      -0.12435600       0.43970300       0.17918600 </v>
   <v>      -0.45768900       0.10636900       0.17918600 </v>
   <v>      -0.12435600      -0.22696400       0.17918600 </v>
   <v>       0.20897700       0.10636900       0.17918600 </v>
   <v>      -0.12435600       0.10636900       0.17918600 </v>
   <v>      -0.45768900      -0.22696400       0.17918600 </v>
   <v>       0.20897700      -0.22696400       0.17918600 </v>
   <v>       0.20897700       0.43970300       0.17918600 </v>
   <v>      -0.34657800       0.32859100       0.07437600 </v>
   <v>      -0.34657800      -0.33807500       0.07437600 </v>
   <v>      -0.01324500      -0.33807500       0.07437600 </v>
   <v>       0.32008800       0.32859100       0.07437600 </v>
   <v>      -0.01324500       0.32859100       0.07437600 </v>
   <v>       0.32008800      -0.00474200       0.07437600 </v>
   <v>      -0.34657800      -0.00474200       0.07437600 </v>
   <v>      -0.01324500      -0.00474200       0.07437600 </v>
   <v>       0.32008800      -0.33807500       0.07437600 </v>
  </varray>
 </structure>
 <varray name="primitive_index" >
  <v type="int" >        1 </v>
  <v type="int" >        3 </v>
  <v type="int" >        2 </v>
  <v type="int" >       36 </v>
  <v type="int" >       39 </v>
  <v type="int" >       37 </v>
  <v type="int" >       33 </v>
  <v type="int" >       38 </v>
  <v type="int" >       35 </v>
  <v type="int" >       32 </v>
  <v type="int" >       30 </v>
  <v type="int" >       34 </v>
  <v type="int" >       24 </v>
  <v type="int" >       26 </v>
  <v type="int" >       31 </v>
  <v type="int" >       29 </v>
  <v type="int" >       22 </v>
  <v type="int" >       27 </v>
  <v type="int" >       28 </v>
  <v type="int" >       23 </v>
  <v type="int" >       25 </v>
  <v type="int" >       17 </v>
  <v type="int" >       18 </v>
  <v type="int" >       14 </v>
  <v type="int" >       21 </v>
  <v type="int" >       13 </v>
  <v type="int" >       15 </v>
  <v type="int" >       20 </v>
  <v type="int" >       19 </v>
  <v type="int" >       16 </v>
  <v type="int" >        6 </v>
  <v type="int" >        9 </v>
  <v type="int" >        7 </v>
  <v type="int" >        5 </v>
  <v type="int" >        4 </v>
  <v type="int" >       10 </v>
  <v type="int" >       11 </v>
  <v type="int" >       12 </v>
  <v type="int" >        8 </v>
 </varray>
 <kpoints>
  <generation param="Gamma">
   <v type="int" name="divisions">       2        2        1 </v>
   <v name="usershift">      0.00000000       0.00000000       0.00000000 </v>
   <v name="genvec1">      0.50000000       0.00000000       0.00000000 </v>
   <v name="genvec2">     -0.00000000       0.50000000       0.00000000 </v>
   <v name="genvec3">      0.00000000       0.00000000       1.00000000 </v>
   <v name="shift">      0.00000000       0.00000000       0.00000000 </v>
  </generation>
  <varray name="kpointlist" >
   <v>       0.00000000       0.00000000       0.00000000 </v>
   <v>       0.50000000       0.00000000       0.00000000 </v>
   <v>      -0.00000000       0.50000000       0.00000000 </v>
   <v>       0.50000000       0.50000000       0.00000000 </v>
  </varray>
  <varray name="weights" >
   <v>       0.25000000 </v>
   <v>       0.25000000 </v>
   <v>       0.25000000 </v>
   <v>       0.25000000 </v>
  </varray>
 </kpoints>
 <parameters>
  <separator name="general" >
   <i type="string" name="SYSTEM">metal</i>
   <i type="logical" name="LCOMPAT"> F  </i>
  </separator>
  <separator name="electronic" >
   <i type="string" name="PREC">normal</i>
   <i name="ENMAX">    450.00000000</i>
   <i name="ENAUG">    644.87300000</i>
   <i name="EDIFF">      0.00010000</i>
   <i type="int" name="IALGO">    68</i>
   <i type="int" name="IWAVPR">    11</i>
   <i type="int" name="NBANDS">   228</i>
   <i name="NELECT">    376.00000000</i>
   <i type="int" name="TURBO">     0</i>
   <i type="int" name="IRESTART">     0</i>
   <i type="int" name="NREBOOT">     0</i>
   <i type="int" name="NMIN">     0</i>
   <i name="EREF">      0.00000000</i>
   <separator name="electronic smearing" >
    <i type="int" name="ISMEAR">     1</i>
    <i name="SIGMA">      0.20000000</i>
    <i name="KSPACING">      0.50000000</i>
    <i type="logical" name="KGAMMA"> T  </i>
   </separator>
   <separator name="electronic projectors" >
    <i type="logical" name="LREAL"> T  </i>
    <v name="ROPT">     -0.00050000     -0.00050000     -0.00050000</v>
    <i type="int" name="LMAXPAW">  -100</i>
    <i type="int" name="LMAXMIX">     2</i>
    <i type="logical" name="NLSPLINE"> F  </i>
   </separator>
   <separator name="electronic startup" >
    <i type="int" name="ISTART">     0</i>
    <i type="int" name="ICHARG">     2</i>
    <i type="int" name="INIWAV">     1</i>
   </separator>
   <separator name="electronic spin" >
    <i type="int" name="ISPIN">     1</i>
    <i type="logical" name="LNONCOLLINEAR"> F  </i>
    <v name="MAGMOM">      1.00000000      1.00000000      1.00000000      1.00000000      1.00000000      1.00000000      1.00000000      1.00000000      1.00000000      1.00000000      1.00000000      1.00000000      1.00000000      1.00000000      1.00000000      1.00000000      1.00000000      1.00000000      1.00000000      1.00000000
      1.00000000      1.00000000      1.00000000      1.00000000      1.00000000      1.00000000      1.00000000      1.00000000      1.00000000      1.00000000      1.00000000      1.00000000      1.00000000      1.00000000      1.00000000      1.00000000      1.00000000      1.00000000      1.00000000</v>
    <i name="NUPDOWN">     -1.00000000</i>
    <i type="logical" name="LSORBIT"> F  </i>
    <v name="SAXIS">      0.00000000      0.00000000      1.00000000</v>
    <i type="logical" name="LSPIRAL"> F  </i>
    <v name="QSPIRAL">      0.00000000      0.00000000      0.00000000</v>
    <i type="logical" name="LZEROZ"> F  </i>
   </separator>
   <separator name="electronic exchange-correlation" >
    <i type="logical" name="LASPH"> F  </i>
    <i type="logical" name="LMETAGGA"> F  </i>
   </separator>
   <separator name="electronic convergence" >
    <i type="int" name="NELM">    60</i>
    <i type="int" name="NELMDL">    -5</i>
    <i type="int" name="NELMIN">     8</i>
    <i name="ENINI">    450.00000000</i>
    <separator name="electronic convergence detail" >
     <i type="logical" name="LDIAG"> T  </i>
     <i type="logical" name="LSUBROT"> F  </i>
     <i name="WEIMIN">      0.00100000</i>
     <i name="EBREAK">      0.00000011</i>
     <i name="DEPER">      0.30000000</i>
     <i type="int" name="NRMM">     4</i>
     <i name="TIME">      0.40000000</i>
    </separator>
   </separator>
   <separator name="electronic mixer" >
    <i name="AMIX">      0.40000000</i>
    <i name="BMIX">      1.00000000</i>
    <i name="AMIN">      0.10000000</i>
    <i name="AMIX_MAG">      1.60000000</i>
    <i name="BMIX_MAG">      1.00000000</i>
    <separator name="electronic mixer details" >
     <i type="int" name="IMIX">     4</i>
     <i type="logical" name="MIXFIRST"> F  </i>
     <i type="int" name="MAXMIX">   -45</i>
     <i name="WC">    100.00000000</i>
     <i type="int" name="INIMIX">     1</i>
     <i type="int" name="MIXPRE">     1</i>
     <i type="int" name="MREMOVE">     5</i>
    </separator>
   </separator>
   <separator name="electronic dipolcorrection" >
    <i type="logical" name="LDIPOL"> F  </i>
    <i type="logical" name="LMONO"> F  </i>
    <i type="int" name="IDIPOL">     0</i>
    <i name="EPSILON">      1.00000000</i>
    <v name="DIPOL">   -100.00000000   -100.00000000   -100.00000000</v>
    <i name="EFIELD">      0.00000000</i>
   </separator>
  </separator>
  <separator name="grids" >
   <i type="int" name="NGX">    48</i>
   <i type="int" name="NGY">    48</i>
   <i type="int" name="NGZ">   120</i>
   <i type="int" name="NGXF">    96</i>
   <i type="int" name="NGYF">    96</i>
   <i type="int" name="NGZF">   240</i>
   <i type="logical" name="ADDGRID"> F  </i>
  </separator>
  <separator name="ionic" >
   <i type="int" name="NSW">  5000</i>
   <i type="int" name="IBRION">     1</i>
   <i type="int" name="MDALGO">     0</i>
   <i type="int" name="ISIF">     2</i>
   <i name="PSTRESS">      0.00000000</i>
   <i name="EDIFFG">     -0.05000000</i>
   <i type="int" name="NFREE">     0</i>
   <i name="POTIM">      0.20000000</i>
   <i name="SMASS">     -3.00000000</i>
   <i name="SCALEE">      1.00000000</i>
  </separator>
  <separator name="ionic md" >
   <i name="TEBEG">      0.00010000</i>
   <i name="TEEND">      0.00010000</i>
   <i type="int" name="NBLOCK">     1</i>
   <i type="int" name="KBLOCK">  5000</i>
   <i type="int" name="NPACO">   256</i>
   <i name="APACO">     16.00000000</i>
  </separator>
  <separator name="symmetry" >
   <i type="int" name="ISYM">     0</i>
   <i name="SYMPREC">      0.00001000</i>
  </separator>
  <separator name="dos" >
   <i type="int" name="LORBIT">     0</i>
   <v name="RWIGS">     -1.00000000     -1.00000000     -1.00000000</v>
   <i type="int" name="NEDOS">   301</i>
   <i name="EMIN">     10.00000000</i>
   <i name="EMAX">    -10.00000000</i>
   <i name="EFERMI">      0.00000000</i>
  </separator>
  <separator name="writing" >
   <i type="int" name="NWRITE">     2</i>
   <i type="logical" name="LWAVE"> F  </i>
   <i type="logical" name="LDOWNSAMPLE"> F  </i>
   <i type="logical" name="LCHARG"> F  </i>
   <i type="logical" name="LPARD"> F  </i>
   <i type="logical" name="LVTOT"> F  </i>
   <i type="logical" name="LVHAR"> F  </i>
   <i type="logical" name="LELF"> F  </i>
   <i type="logical" name="LOPTICS"> F  </i>
   <v name="STM">      0.00000000      0.00000000      0.00000000      0.00000000      0.00000000      0.00000000      0.00000000</v>
  </separator>
  <separator name="performance" >
   <i type="int" name="NPAR">     4</i>
   <i type="int" name="NSIM">     4</i>
   <i type="int" name="NBLK">    -1</i>
   <i type="logical" name="LPLANE"> T  </i>
   <i type="logical" name="LSCALAPACK"> T  </i>
   <i type="logical" name="LSCAAWARE"> F  </i>
   <i type="logical" name="LSCALU"> F  </i>
   <i type="logical" name="LASYNC"> F  </i>
   <i type="logical" name="LORBITALREAL"> F  </i>
  </separator>
  <separator name="miscellaneous" >
   <i type="int" name="IDIOT">     3</i>
   <i type="int" name="ISPECIAL">     0</i>
   <i type="logical" name="LMUSIC"> F  </i>
   <v name="POMASS">     12.01100000     16.00000000    195.08000000</v>
   <v name="DARWINR">      0.00000000      0.00000000      0.00000000</v>
   <v name="DARWINV">      1.00000000      1.00000000      1.00000000</v>
   <i type="logical" name="LCORR"> T  </i>
  </separator>
  <i type="logical" name="GGA_COMPAT"> T  </i>
  <i type="logical" name="LBERRY"> F  </i>
  <i type="int" name="ICORELEVEL">     0</i>
  <i type="logical" name="LDAU"> F  </i>
  <i type="int" name="I_CONSTRAINED_M">     0</i>
  <separator name="electronic exchange-correlation" >
   <i type="string" name="GGA">--</i>
   <i type="int" name="VOSKOWN">     0</i>
   <i type="logical" name="LHFCALC"> F  </i>
   <i type="string" name="PRECFOCK"></i>
   <i type="logical" name="LSYMGRAD"> F  </i>
   <i type="logical" name="LHFONE"> F  </i>
   <i type="logical" name="LRHFCALC"> F  </i>
   <i type="logical" name="LTHOMAS"> F  </i>
   <i type="logical" name="LMODELHF"> F  </i>
   <i name="ENCUT4O">     -1.00000000</i>
   <i type="int" name="EXXOEP">     0</i>
   <i type="int" name="FOURORBIT">     0</i>
   <i name="AEXX">      0.00000000</i>
   <i name="HFALPHA">      0.00000000</i>
   <i name="MCALPHA">      0.00000000</i>
   <i name="ALDAX">      1.00000000</i>
   <i name="AGGAX">      1.00000000</i>
   <i name="ALDAC">      1.00000000</i>
   <i name="AGGAC">      1.00000000</i>
   <i type="int" name="NKREDX">     1</i>
   <i type="int" name="NKREDY">     1</i>
   <i type="int" name="NKREDZ">     1</i>
   <i type="logical" name="SHIFTRED"> F  </i>
   <i type="logical" name="ODDONLY"> F  </i>
   <i type="logical" name="EVENONLY"> F  </i>
   <i type="int" name="LMAXFOCK">     0</i>
   <i type="int" name="NMAXFOCKAE">     0</i>
   <i type="logical" name="LFOCKAEDFT"> F  </i>
   <i name="HFSCREEN">      0.00000000</i>
   <i name="HFSCREENC">      0.00000000</i>
   <i type="int" name="NBANDSGWLOW">     0</i>
  </separator>
  <separator name="vdW DFT" >
   <i type="logical" name="LUSE_VDW"> F  </i>
   <i name="Zab_VDW">     -0.84910000</i>
   <i name="PARAM1">      0.12340000</i>
   <i name="PARAM2">      1.00000000</i>
   <i name="PARAM3">      0.00000000</i>
  </separator>
  <separator name="model GW" >
   <i type="int" name="MODEL_GW">     0</i>
   <i name="MODEL_EPS0">     20.69566731</i>
   <i name="MODEL_ALPHA">      1.00000000</i>
  </separator>
  <separator name="linear response parameters" >
   <i type="logical" name="LEPSILON"> F  </i>
   <i type="logical" name="LRPA"> F  </i>
   <i type="logical" name="LNABLA"> F  </i>
   <i type="logical" name="LVEL"> F  </i>
   <i type="int" name="KINTER">     0</i>
   <i name="CSHIFT">      0.10000000</i>
   <i name="OMEGAMAX">     -1.00000000</i>
   <i name="DEG_THRESHOLD">      0.00200000</i>
   <i name="RTIME">     -0.10000000</i>
   <i name="WPLASMAI">      0.00000000</i>
   <v name="DFIELD">      0.00000000      0.00000000      0.00000000</v>
   <v name="WPLASMA">      0.00000000      0.00000000      0.00000000      0.00000000      0.00000000      0.00000000      0.00000000      0.00000000      0.00000000</v>
  </separator>
  <separator name="orbital magnetization" >
   <i type="logical" name="NUCIND"> F  </i>
   <v name="MAGPOS">      0.00000000      0.00000000      0.00000000</v>
   <i type="logical" name="LNICSALL"> T  </i>
   <i type="logical" name="ORBITALMAG"> F  </i>
   <i type="logical" name="LMAGBLOCH"> F  </i>
   <i type="logical" name="LCHIMAG"> F  </i>
   <i type="logical" name="LGAUGE"> T  </i>
   <i type="int" name="MAGATOM">     0</i>
   <v name="MAGDIPOL">      0.00000000      0.00000000      0.00000000</v>
   <v name="AVECCONST">      0.00000000      0.00000000      0.00000000</v>
  </separator>
  <separator name="response functions" >
   <i type="logical" name="LADDER"> F  </i>
   <i type="logical" name="LRPAFORCE"> F  </i>
   <i type="logical" name="LFXC"> F  </i>
   <i type="logical" name="LHARTREE"> T  </i>
   <i type="int" name="IBSE">     0</i>
   <v type="int" name="KPOINT">    -1     0     0     0</v>
   <i type="logical" name="LTCTE"> F  </i>
   <i type="logical" name="LTETE"> F  </i>
   <i type="logical" name="LTRIPLET"> F  </i>
   <i type="logical" name="LFXCEPS"> F  </i>
   <i type="logical" name="LFXHEG"> F  </i>
   <i type="int" name="NATURALO">     2</i>
   <i type="logical" name="L2ORDER"> F  </i>
   <i type="logical" name="LMP2LT"> F  </i>
   <i type="logical" name="LUSEW"> F  </i>
   <i name="ENCUTGW">     -2.00000000</i>
   <i name="ENCUTGWSOFT">     -2.00000000</i>
   <i name="ENCUTLF">     -1.00000000</i>
   <i type="int" name="LMAXMP2">    -1</i>
   <i name="SCISSOR">      0.00000000</i>
   <i type="int" name="NOMEGA">     0</i>
   <i type="int" name="NOMEGAR">     0</i>
   <i type="int" name="NBANDSGW">    -1</i>
   <i type="int" name="NBANDSO">    -1</i>
   <i type="int" name="NBANDSV">    -1</i>
   <i type="int" name="NELM">     1</i>
   <i type="int" name="NELMHF">     1</i>
   <i type="int" name="DIM">     3</i>
   <i type="int" name="ANTIRES">     0</i>
   <i name="OMEGAMAX">    -30.00000000</i>
   <i name="OMEGAMIN">    -30.00000000</i>
   <i name="OMEGATL">   -200.00000000</i>
   <i type="int" name="OMEGAGRID">   140</i>
   <i name="CSHIFT">     -0.10000000</i>
   <i type="logical" name="SELFENERGY"> F  </i>
   <i type="logical" name="LSPECTRAL"> F  </i>
   <i type="logical" name="LSPECTRALGW"> F  </i>
   <i type="logical" name="LSINGLES"> F  </i>
   <i type="logical" name="LFERMIGW"> F  </i>
   <i type="logical" name="ODDONLYGW"> F  </i>
   <i type="logical" name="EVENONLYGW"> F  </i>
   <i type="int" name="NKREDLFX">     1</i>
   <i type="int" name="NKREDLFY">     1</i>
   <i type="int" name="NKREDLFZ">     1</i>
   <i type="int" name="MAXMEM">  2800</i>
   <i type="int" name="TELESCOPE">     0</i>
   <i type="int" name="TAUPAR">     1</i>
   <i type="int" name="OMEGAPAR">    -1</i>
   <i name="LAMBDA">      1.00000000</i>
  </separator>
  <separator name="External order field" >
   <i name="OFIELD_KAPPA">      0.00000000</i>
   <v name="OFIELD_K">      0.00000000      0.00000000      0.00000000</v>
   <i name="OFIELD_Q6_NEAR">      0.00000000</i>
   <i name="OFIELD_Q6_FAR">      0.00000000</i>
   <i name="OFIELD_A">      0.00000000</i>
  </separator>
  <separator name="solvation model" >
   <i type="logical" name="LSOL"> F  </i>
  </separator>
 </parameters>
 <atominfo>
  <atoms>      39 </atoms>
  <types>       3 </types>
  <array name="atoms" >
   <dimension dim="1">ion</dimension>
   <field type="string">element</field>
   <field type="int">atomtype</field>
   <set>
    <rc><c>C </c><c>   1</c></rc>
    <rc><c>O </c><c>   2</c></rc>
    <rc><c>O </c><c>   2</c></rc>
    <rc><c>Pt</c><c>   3</c></rc>
    <rc><c>Pt</c><c>   3</c></rc>
    <rc><c>Pt</c><c>   3</c></rc>
    <rc><c>Pt</c><c>   3</c></rc>
    <rc><c>Pt</c><c>   3</c></rc>
    <rc><c>Pt</c><c>   3</c></rc>
    <rc><c>Pt</c><c>   3</c></rc>
    <rc><c>Pt</c><c>   3</c></rc>
    <rc><c>Pt</c><c>   3</c></rc>
    <rc><c>Pt</c><c>   3</c></rc>
    <rc><c>Pt</c><c>   3</c></rc>
    <rc><c>Pt</c><c>   3</c></rc>
    <rc><c>Pt</c><c>   3</c></rc>
    <rc><c>Pt</c><c>   3</c></rc>
    <rc><c>Pt</c><c>   3</c></rc>
    <rc><c>Pt</c><c>   3</c></rc>
    <rc><c>Pt</c><c>   3</c></rc>
    <rc><c>Pt</c><c>   3</c></rc>
    <rc><c>Pt</c><c>   3</c></rc>
    <rc><c>Pt</c><c>   3</c></rc>
    <rc><c>Pt</c><c>   3</c></rc>
    <rc><c>Pt</c><c>   3</c></rc>
    <rc><c>Pt</c><c>   3</c></rc>
    <rc><c>Pt</c><c>   3</c></rc>
    <rc><c>Pt</c><c>   3</c></rc>
    <rc><c>Pt</c><c>   3</c></rc>
    <rc><c>Pt</c><c>   3</c></rc>
    <rc><c>Pt</c><c>   3</c></rc>
    <rc><c>Pt</c><c>   3</c></rc>
    <rc><c>Pt</c><c>   3</c></rc>
    <rc><c>Pt</c><c>   3</c></rc>
    <rc><c>Pt</c><c>   3</c></rc>
    <rc><c>Pt</c><c>   3</c></rc>
    <rc><c>Pt</c><c>   3</c></rc>
    <rc><c>Pt</c><c>   3</c></rc>
    <rc><c>Pt</c><c>   3</c></rc>
   </set>
  </array>
  <array name="atomtypes" >
   <dimension dim="1">type</dimension>
   <field type="int">atomspertype</field>
   <field type="string">element</field>
   <field>mass</field>
   <field>valence</field>
   <field type="string">pseudopotential</field>
   <set>
    <rc><c>   1</c><c>C </c><c>     12.01100000</c><c>      4.00000000</c><c> PAW_PBE C 08Apr2002                    </c></rc>
    <rc><c>   2</c><c>O </c><c>     16.00000000</c><c>      6.00000000</c><c> PAW_PBE O 08Apr2002                    </c></rc>
    <rc><c>  36</c><c>Pt</c><c>    195.08000000</c><c>     10.00000000</c><c>  PAW_PBE Pt 04Feb2005                  </c></rc>
   </set>
  </array>
 </atominfo>
 <structure name="initialpos" >
  <crystal>
   <varray name="basis" >
    <v>       7.29695512      -4.21289900       0.00000000 </v>
    <v>       0.00000000       8.42579800       0.00000000 </v>
    <v>       0.00000000       0.00000000      21.87963500 </v>
   </varray>
   <i name="volume">   1345.21837528 </i>
   <varray name="rec_basis" >
    <v>       0.13704346       0.00000000       0.00000000 </v>
    <v>       0.06852173       0.11868312       0.00000000 </v>
    <v>       0.00000000       0.00000000       0.04570460 </v>
   </varray>
  </crystal>
  <varray name="positions" >
   <v>       0.70153379       0.43069801       0.47249002 </v>
   <v>       0.90704331       0.38397756       0.46630460 </v>
   <v>       0.67339724       0.45755389       0.52237855 </v>
   <v>       0.98675500       0.32859100       0.07437600 </v>
   <v>       0.32008800       0.32859100       0.07437600 </v>
   <v>       0.65342200       0.32859100       0.07437600 </v>
   <v>       0.98675500       0.66192500       0.07437600 </v>
   <v>       0.32008800       0.66192500       0.07437600 </v>
   <v>       0.65342200       0.66192500       0.07437600 </v>
   <v>       0.32008800       0.99525800       0.07437600 </v>
   <v>       0.65342200       0.99525800       0.07437600 </v>
   <v>       0.98675500       0.99525800       0.07437600 </v>
   <v>       0.20897700       0.10636900       0.17918600 </v>
   <v>       0.54231100       0.10636900       0.17918600 </v>
   <v>       0.87564400       0.10636900       0.17918600 </v>
   <v>       0.20897700       0.43970300       0.17918600 </v>
   <v>       0.54231100       0.43970300       0.17918600 </v>
   <v>       0.87564400       0.43970300       0.17918600 </v>
   <v>       0.20897700       0.77303600       0.17918600 </v>
   <v>       0.54231100       0.77303600       0.17918600 </v>
   <v>       0.87564400       0.77303600       0.17918600 </v>
   <v>       0.09685950       0.54387640       0.28802120 </v>
   <v>       0.42700454       0.88799717       0.28111842 </v>
   <v>       0.75934763       0.21421369       0.28728653 </v>
   <v>       0.09813548       0.22106179       0.28164103 </v>
   <v>       0.43419794       0.21478267       0.28301572 </v>
   <v>       0.09513711       0.88499095       0.28262666 </v>
   <v>       0.76784491       0.87913300       0.27950565 </v>
   <v>       0.43596947       0.54521872       0.28704952 </v>
   <v>       0.76421251       0.54803589       0.27896976 </v>
   <v>       0.32756334       0.65682296       0.38683066 </v>
   <v>       0.65301598       0.99031396       0.38516616 </v>
   <v>       0.32623875       0.32919577       0.38905642 </v>
   <v>       0.99343636       0.99057101       0.38793066 </v>
   <v>       0.31797306       0.99305781       0.39102191 </v>
   <v>       0.64317089       0.32662072       0.38806488 </v>
   <v>       0.99887786       0.66528448       0.38642429 </v>
   <v>       0.99283260       0.31557215       0.38987776 </v>
   <v>       0.65201424       0.66455272       0.38635806 </v>
  </varray>
  <varray name="selective"  type="logical" >
   <v type="logical" >  T  T  T </v>
   <v type="logical" >  T  T  T </v>
   <v type="logical" >  T  T  T </v>
   <v type="logical" >  F  F  F </v>
   <v type="logical" >  F  F  F </v>
   <v type="logical" >  F  F  F </v>
   <v type="logical" >  F  F  F </v>
   <v type="logical" >  F  F  F </v>
   <v type="logical" >  F  F  F </v>
   <v type="logical" >  F  F  F </v>
   <v type="logical" >  F  F  F </v>
   <v type="logical" >  F  F  F </v>
   <v type="logical" >  F  F  F </v>
   <v type="logical" >  F  F  F </v>
   <v type="logical" >  F  F  F </v>
   <v type="logical" >  F  F  F </v>
   <v type="logical" >  F  F  F </v>
   <v type="logical" >  F  F  F </v>
   <v type="logical" >  F  F  F </v>
   <v type="logical" >  F  F  F </v>
   <v type="logical" >  F  F  F </v>
   <v type="logical" >  T  T  T </v>
   <v type="logical" >  T  T  T </v>
   <v type="logical" >  T  T  T </v>
   <v type="logical" >  T  T  T </v>
   <v type="logical" >  T  T  T </v>
   <v type="logical" >  T  T  T </v>
   <v type="logical" >  T  T  T </v>
   <v type="logical" >  T  T  T </v>
   <v type="logical" >  T  T  T </v>
   <v type="logical" >  T  T  T </v>
   <v type="logical" >  T  T  T </v>
   <v type="logical" >  T  T  T </v>
   <v type="logical" >  T  T  T </v>
   <v type="logical" >  T  T  T </v>
   <v type="logical" >  T  T  T </v>
   <v type="logical" >  T  T  T </v>
   <v type="logical" >  T  T  T </v>
   <v type="logical" >  T  T  T </v>
  </varray>
  <nose>
   <v>      -3.00000000       0.00000000       0.00010000       0.00010000 </v>
  </nose>
 </structure>
 <calculation>
  <scstep>
   <time name="dav">   12.11   12.28</time>
   <time name="total">   12.30   12.55</time>
   <energy>
    <i name="alphaZ">    975.10247152 </i>
    <i name="ewald">  91743.01312319 </i>
    <i name="hartreedc">-120832.31190977 </i>
    <i name="XCdc">    189.78500362 </i>
    <i name="pawpsdc">  24789.08602224 </i>
    <i name="pawaedc"> -23775.73976456 </i>
    <i name="eentropy">      0.02934304 </i>
    <i name="bandstr">   2072.93990535 </i>
    <i name="atom">  27259.89416086 </i>
    <i name="e_fr_energy">   2421.79835549 </i>
    <i name="e_wo_entrp">   2421.76901245 </i>
    <i name="e_0_energy">   2421.78857447 </i>
   </energy>
  </scstep>
  <scstep>
   <time name="dav">   13.38   13.53</time>
   <time name="total">   13.38   13.53</time>
   <energy>
    <i name="e_fr_energy">    -62.70792407 </i>
    <i name="e_wo_entrp">    -62.71018361 </i>
    <i name="e_0_energy">    -62.70867725 </i>
   </energy>
  </scstep>
  <scstep>
   <time name="dav">   13.73   13.88</time>
   <time name="total">   13.73   13.88</time>
   <energy>
    <i name="e_fr_energy">   -240.89416830 </i>
    <i name="e_wo_entrp">   -240.88329667 </i>
    <i name="e_0_energy">   -240.89054442 </i>
   </energy>
  </scstep>
  <scstep>
   <time name="dav">   14.41   14.53</time>
   <time name="total">   14.41   14.53</time>
   <energy>
    <i name="e_fr_energy">   -248.46625306 </i>
    <i name="e_wo_entrp">   -248.46409825 </i>
    <i name="e_0_energy">   -248.46553479 </i>
   </energy>
  </scstep>
  <scstep>
   <time name="dav">   14.63   14.75</time>
   <time name="total">   15.36   15.48</time>
   <energy>
    <i name="e_fr_energy">   -248.68217730 </i>
    <i name="e_wo_entrp">   -248.67976296 </i>
    <i name="e_0_energy">   -248.68137252 </i>
   </energy>
  </scstep>
  <scstep>
   <time name="diag">    1.94    1.95</time>
   <time name="diis">    6.85    6.90</time>
   <time name="orth">    0.26    0.26</time>
   <time name="total">    9.92    9.98</time>
   <energy>
    <i name="e_fr_energy">   -246.23844359 </i>
    <i name="e_wo_entrp">   -246.08386824 </i>
    <i name="e_0_energy">   -246.18691847 </i>
   </energy>
  </scstep>
  <scstep>
   <time name="diag">    1.94    1.95</time>
   <time name="diis">    6.91    6.96</time>
   <time name="orth">    0.26    0.27</time>
   <time name="total">   10.05   10.12</time>
   <energy>
    <i name="e_fr_energy">   -240.74595719 </i>
    <i name="e_wo_entrp">   -240.67680565 </i>
    <i name="e_0_energy">   -240.72290667 </i>
   </energy>
  </scstep>
  <scstep>
   <time name="diag">    2.00    2.02</time>
   <time name="diis">    6.88    6.92</time>
   <time name="orth">    0.28    0.28</time>
   <time name="total">   10.13   10.20</time>
   <energy>
    <i name="e_fr_energy">   -245.70803125 </i>
    <i name="e_wo_entrp">   -245.60718097 </i>
    <i name="e_0_energy">   -245.67441449 </i>
   </energy>
  </scstep>
  <scstep>
   <time name="diag">    2.05    2.06</time>
   <time name="diis">    6.89    6.94</time>
   <time name="orth">    0.28    0.28</time>
   <time name="total">   10.15   10.22</time>
   <energy>
    <i name="e_fr_energy">   -231.82607202 </i>
    <i name="e_wo_entrp">   -231.81223359 </i>
    <i name="e_0_energy">   -231.82145921 </i>
   </energy>
  </scstep>
  <scstep>
   <time name="diag">    2.07    2.08</time>
   <time name="diis">    6.65    6.70</time>
   <time name="orth">    0.28    0.28</time>
   <time name="total">    9.90    9.98</time>
   <energy>
    <i name="e_fr_energy">   -230.73247680 </i>
    <i name="e_wo_entrp">   -230.74739510 </i>
    <i name="e_0_energy">   -230.73744956 </i>
   </energy>
  </scstep>
  <scstep>
   <time name="diag">    2.09    2.11</time>
   <time name="diis">    7.09    7.15</time>
   <time name="orth">    0.27    0.28</time>
   <time name="total">   10.38   10.46</time>
   <energy>
    <i name="e_fr_energy">   -230.30785070 </i>
    <i name="e_wo_entrp">   -230.28331236 </i>
    <i name="e_0_energy">   -230.29967125 </i>
   </energy>
  </scstep>
  <scstep>
   <time name="diag">    2.03    2.04</time>
   <time name="diis">    6.82    6.87</time>
   <time name="orth">    0.27    0.27</time>
   <time name="total">   10.12   10.19</time>
   <energy>
    <i name="e_fr_energy">   -230.16369393 </i>
    <i name="e_wo_entrp">   -230.14500002 </i>
    <i name="e_0_energy">   -230.15746263 </i>
   </energy>
  </scstep>
  <scstep>
   <time name="diag">    2.03    2.04</time>
   <time name="diis">    7.06    7.11</time>
   <time name="orth">    0.28    0.28</time>
   <time name="total">   10.30   10.38</time>
   <energy>
    <i name="e_fr_energy">   -230.14962058 </i>
    <i name="e_wo_entrp">   -230.13690338 </i>
    <i name="e_0_energy">   -230.14538151 </i>
   </energy>
  </scstep>
  <scstep>
   <time name="diag">    1.61    1.62</time>
   <time name="diis">    6.63    6.68</time>
   <time name="orth">    0.28    0.28</time>
   <time name="total">    9.41    9.48</time>
   <energy>
    <i name="e_fr_energy">   -230.10982896 </i>
    <i name="e_wo_entrp">   -230.10336584 </i>
    <i name="e_0_energy">   -230.10767459 </i>
   </energy>
  </scstep>
  <scstep>
   <time name="diag">    2.07    2.09</time>
   <time name="diis">    6.92    6.97</time>
   <time name="orth">    0.26    0.26</time>
   <time name="total">   10.10   10.17</time>
   <energy>
    <i name="e_fr_energy">   -230.10605646 </i>
    <i name="e_wo_entrp">   -230.10156658 </i>
    <i name="e_0_energy">   -230.10455983 </i>
   </energy>
  </scstep>
  <scstep>
   <time name="diag">    1.83    1.85</time>
   <time name="diis">    6.64    6.69</time>
   <time name="orth">    0.27    0.27</time>
   <time name="total">    9.70    9.77</time>
   <energy>
    <i name="e_fr_energy">   -230.09732845 </i>
    <i name="e_wo_entrp">   -230.08920427 </i>
    <i name="e_0_energy">   -230.09462039 </i>
   </energy>
  </scstep>
  <scstep>
   <time name="diag">    2.04    2.06</time>
   <time name="diis">    7.05    7.10</time>
   <time name="orth">    0.28    0.28</time>
   <time name="total">   10.38   10.45</time>
   <energy>
    <i name="e_fr_energy">   -230.09633797 </i>
    <i name="e_wo_entrp">   -230.08842691 </i>
    <i name="e_0_energy">   -230.09370095 </i>
   </energy>
  </scstep>
  <scstep>
   <time name="diag">    2.03    2.04</time>
   <time name="diis">    7.03    7.08</time>
   <time name="orth">    0.28    0.28</time>
   <time name="total">   10.28   10.36</time>
   <energy>
    <i name="e_fr_energy">   -230.09663110 </i>
    <i name="e_wo_entrp">   -230.08931704 </i>
    <i name="e_0_energy">   -230.09419308 </i>
   </energy>
  </scstep>
  <scstep>
   <time name="diag">    2.05    2.07</time>
   <time name="diis">    6.08    6.12</time>
   <time name="orth">    0.27    0.28</time>
   <time name="total">    8.58    8.65</time>
   <energy>
    <i name="alphaZ">    975.10247152 </i>
    <i name="ewald">  91743.01312319 </i>
    <i name="hartreedc">-120439.51956322 </i>
    <i name="XCdc">    178.33169201 </i>
    <i name="pawpsdc">  30122.79088355 </i>
    <i name="pawaedc"> -29209.11859200 </i>
    <i name="eentropy">     -0.00748405 </i>
    <i name="bandstr">   -860.58340361 </i>
    <i name="atom">  27259.89416086 </i>
    <i name="e_fr_energy">   -230.09671173 </i>
    <i name="e_wo_entrp">   -230.08922768 </i>
    <i name="e_0_energy">   -230.09421705 </i>
   </energy>
  </scstep>
  <structure>
   <crystal>
    <varray name="basis" >
     <v>       7.29695512      -4.21289900       0.00000000 </v>
     <v>       0.00000000       8.42579800       0.00000000 </v>
     <v>       0.00000000       0.00000000      21.87963500 </v>
    </varray>
    <i name="volume">   1345.21837528 </i>
    <varray name="rec_basis" >
     <v>       0.13704346       0.00000000       0.00000000 </v>
     <v>       0.06852173       0.11868312       0.00000000 </v>
     <v>       0.00000000       0.00000000       0.04570460 </v>
    </varray>
   </crystal>
   <varray name="positions" >
    <v>       0.70153379       0.43069801       0.47249002 </v>
    <v>       0.90704331       0.38397756       0.46630460 </v>
    <v>       0.67339724       0.45755389       0.52237855 </v>
    <v>       0.98675500       0.32859100       0.07437600 </v>
    <v>       0.32008800       0.32859100       0.07437600 </v>
    <v>       0.65342200       0.32859100       0.07437600 </v>
    <v>       0.98675500       0.66192500       0.07437600 </v>
    <v>       0.32008800       0.66192500       0.07437600 </v>
    <v>       0.65342200       0.66192500       0.07437600 </v>
    <v>       0.32008800       0.99525800       0.07437600 </v>
    <v>       0.65342200       0.99525800       0.07437600 </v>
    <v>       0.98675500       0.99525800       0.07437600 </v>
    <v>       0.20897700       0.10636900       0.17918600 </v>
    <v>       0.54231100       0.10636900       0.17918600 </v>
    <v>       0.87564400       0.10636900       0.17918600 </v>
    <v>       0.20897700       0.43970300       0.17918600 </v>
    <v>       0.54231100       0.43970300       0.17918600 </v>
    <v>       0.87564400       0.43970300       0.17918600 </v>
    <v>       0.20897700       0.77303600       0.17918600 </v>
    <v>       0.54231100       0.77303600       0.17918600 </v>
    <v>       0.87564400       0.77303600       0.17918600 </v>
    <v>       0.09685950       0.54387640       0.28802120 </v>
    <v>       0.42700454       0.88799717       0.28111842 </v>
    <v>       0.75934763       0.21421369       0.28728653 </v>
    <v>       0.09813548       0.22106179       0.28164103 </v>
    <v>       0.43419794       0.21478267       0.28301572 </v>
    <v>       0.09513711       0.88499095       0.28262666 </v>
    <v>       0.76784491       0.87913300       0.27950565 </v>
    <v>       0.43596947       0.54521872       0.28704952 </v>
    <v>       0.76421251       0.54803589       0.27896976 </v>
    <v>       0.32756334       0.65682296       0.38683066 </v>
    <v>       0.65301598       0.99031396       0.38516616 </v>
    <v>       0.32623875       0.32919577       0.38905642 </v>
    <v>       0.99343636       0.99057101       0.38793066 </v>
    <v>       0.31797306       0.99305781       0.39102191 </v>
    <v>       0.64317089       0.32662072       0.38806488 </v>
    <v>       0.99887786       0.66528448       0.38642429 </v>
    <v>       0.99283260       0.31557215       0.38987776 </v>
    <v>       0.65201424       0.66455272       0.38635806 </v>
   </varray>
  </structure>
  <varray name="forces" >
   <v>      -0.06585764      -1.55899566      -1.09835057 </v>
   <v>       0.48359128       0.24306309      -0.49362155 </v>
   <v>       0.19789357       0.23333108       0.02354478 </v>
   <v>      -0.02734690      -0.02015856       0.19055522 </v>
   <v>       0.00409867      -0.06433464       0.15786273 </v>
   <v>      -0.05185513      -0.03893088       0.07488744 </v>
   <v>       0.02665372       0.08872208       0.14593582 </v>
   <v>      -0.00115885      -0.00644803       0.21653178 </v>
   <v>       0.00348952       0.00450582       0.12622068 </v>
   <v>       0.02090050      -0.01014795       0.00690546 </v>
   <v>       0.00447818       0.05916358       0.13129260 </v>
   <v>       0.02225110      -0.01257006       0.02208428 </v>
   <v>       0.02216951      -0.03587085      -0.22424965 </v>
   <v>       0.16630398       0.07588707      -0.21549898 </v>
   <v>       0.00227906       0.15673219      -0.14716435 </v>
   <v>       0.11169113       0.15944492       0.20418946 </v>
   <v>      -0.25159414       0.05079498      -0.24906473 </v>
   <v>       0.18233495      -0.29164546       0.07169901 </v>
   <v>      -0.20984909      -0.12823565       0.01697612 </v>
   <v>      -0.19699483      -0.08914272      -0.06044877 </v>
   <v>       0.20981056      -0.01745174      -0.74947335 </v>
   <v>       0.12968990       0.28040116      -1.18459942 </v>
   <v>       0.06642285      -0.82248303       0.50746318 </v>
   <v>       0.43239118      -0.05439050      -0.95913666 </v>
   <v>      -0.13833170      -0.19425725       0.60353800 </v>
   <v>      -0.46865443       0.22911089       0.03722769 </v>
   <v>       0.33880110      -0.46885037       0.09221380 </v>
   <v>      -0.34941741       0.67794437       0.75245499 </v>
   <v>      -0.41879715       0.55042568      -1.24771020 </v>
   <v>       0.33512124      -0.16226467       0.85724442 </v>
   <v>      -0.09062696       0.70000629       0.18313268 </v>
   <v>      -0.16420735      -0.21409262       0.02497852 </v>
   <v>      -0.62131577      -0.34083797      -0.07567229 </v>
   <v>      -0.32983284       0.17735196      -0.12658023 </v>
   <v>       0.23025200      -0.31465659      -0.45430688 </v>
   <v>       0.09725857       0.56699848       1.31990107 </v>
   <v>      -0.31027614       0.32530015       0.16895431 </v>
   <v>      -0.25896728       0.31804070       1.21219085 </v>
   <v>       0.86720101      -0.05145930       0.13789274 </v>
  </varray>
  <varray name="stress" >
   <v>     -41.01238270       0.67672595       1.78836477 </v>
   <v>       0.67672603     -43.85396151      -1.14533591 </v>
   <v>       1.78836460      -1.14533585      -4.32369390 </v>
  </varray>
  <energy>
   <i name="e_fr_energy">   -230.09671173 </i>
   <i name="e_wo_entrp">   -230.09421705 </i>
   <i name="e_0_energy">     -0.00748405 </i>
  </energy>
  <time name="totalsc">  225.39  227.77</time>
 </calculation>
 <calculation>
  <scstep>
   <time name="dav">   12.21   12.34</time>
   <time name="total">   13.20   13.38</time>
   <energy>
    <i name="alphaZ">    975.10247152 </i>
    <i name="ewald">  91690.97690525 </i>
    <i name="hartreedc">-120390.23379014 </i>
    <i name="XCdc">    178.23744888 </i>
    <i name="pawpsdc">  30124.15089993 </i>
    <i name="pawaedc"> -29210.47283859 </i>
    <i name="eentropy">     -0.01356539 </i>
    <i name="bandstr">   -857.96568192 </i>
    <i name="atom">  27259.89416086 </i>
    <i name="e_fr_energy">   -230.32398959 </i>
    <i name="e_wo_entrp">   -230.31042419 </i>
    <i name="e_0_energy">   -230.31946779 </i>
   </energy>
  </scstep>
  <scstep>
   <time name="diag">    2.00    2.02</time>
   <time name="diis">    7.06    7.13</time>
   <time name="orth">    0.28    0.28</time>
   <time name="total">   10.38   10.47</time>
   <energy>
    <i name="e_fr_energy">   -230.39584377 </i>
    <i name="e_wo_entrp">   -230.39542301 </i>
    <i name="e_0_energy">   -230.39570352 </i>
   </energy>
  </scstep>
  <scstep>
   <time name="diag">    2.06    2.08</time>
   <time name="diis">    7.02    7.08</time>
   <time name="orth">    0.27    0.27</time>
   <time name="total">   10.34   10.43</time>
   <energy>
    <i name="e_fr_energy">   -230.38157940 </i>
    <i name="e_wo_entrp">   -230.36585196 </i>
    <i name="e_0_energy">   -230.37633692 </i>
   </energy>
  </scstep>
  <scstep>
   <time name="diag">    2.03    2.05</time>
   <time name="diis">    7.20    7.26</time>
   <time name="orth">    0.27    0.27</time>
   <time name="total">   10.44   10.53</time>
   <energy>
    <i name="e_fr_energy">   -230.38237950 </i>
    <i name="e_wo_entrp">   -230.37242453 </i>
    <i name="e_0_energy">   -230.37906118 </i>
   </energy>
  </scstep>
  <scstep>
   <time name="diag">    2.06    2.08</time>
   <time name="diis">    7.13    7.19</time>
   <time name="orth">    0.27    0.27</time>
   <time name="total">   10.43   10.51</time>
   <energy>
    <i name="e_fr_energy">   -230.37456405 </i>
    <i name="e_wo_entrp">   -230.36510492 </i>
    <i name="e_0_energy">   -230.37141101 </i>
   </energy>
  </scstep>
  <scstep>
   <time name="diag">    2.03    2.04</time>
   <time name="diis">    7.06    7.12</time>
   <time name="orth">    0.27    0.28</time>
   <time name="total">   10.29   10.37</time>
   <energy>
    <i name="e_fr_energy">   -230.37406008 </i>
    <i name="e_wo_entrp">   -230.36266587 </i>
    <i name="e_0_energy">   -230.37026201 </i>
   </energy>
  </scstep>
  <scstep>
   <time name="diag">    2.07    2.08</time>
   <time name="diis">    7.00    7.06</time>
   <time name="orth">    0.27    0.27</time>
   <time name="total">   10.30   10.39</time>
   <energy>
    <i name="e_fr_energy">   -230.37269026 </i>
    <i name="e_wo_entrp">   -230.36270934 </i>
    <i name="e_0_energy">   -230.36936329 </i>
   </energy>
  </scstep>
  <scstep>
   <time name="diag">    1.98    2.00</time>
   <time name="diis">    6.45    6.50</time>
   <time name="orth">    0.25    0.25</time>
   <time name="total">    9.54    9.62</time>
   <energy>
    <i name="e_fr_energy">   -230.37228040 </i>
    <i name="e_wo_entrp">   -230.36083617 </i>
    <i name="e_0_energy">   -230.36846566 </i>
   </energy>
  </scstep>
  <scstep>
   <time name="diag">    2.02    2.03</time>
   <time name="diis">    4.81    4.85</time>
   <time name="orth">    0.27    0.27</time>
   <time name="total">    8.02    8.07</time>
   <energy>
    <i name="e_fr_energy">   -230.37209031 </i>
    <i name="e_wo_entrp">   -230.36114001 </i>
    <i name="e_0_energy">   -230.36844021 </i>
   </energy>
  </scstep>
  <scstep>
   <time name="diag">    1.90    1.92</time>
   <time name="diis">    4.03    4.06</time>
   <time name="orth">    0.27    0.27</time>
   <time name="total">    6.39    6.44</time>
   <energy>
    <i name="alphaZ">    975.10247152 </i>
    <i name="ewald">  91690.97690525 </i>
    <i name="hartreedc">-120386.56590907 </i>
    <i name="XCdc">    178.19735242 </i>
    <i name="pawpsdc">  30108.42846227 </i>
    <i name="pawaedc"> -29194.62197838 </i>
    <i name="eentropy">     -0.01082460 </i>
    <i name="bandstr">   -861.77274693 </i>
    <i name="atom">  27259.89416086 </i>
    <i name="e_fr_energy">   -230.37210665 </i>
    <i name="e_wo_entrp">   -230.36128205 </i>
    <i name="e_0_energy">   -230.36849845 </i>
   </energy>
  </scstep>
  <structure>
   <crystal>
    <varray name="basis" >
     <v>       7.29695512      -4.21289900       0.00000000 </v>
     <v>       0.00000000       8.42579800       0.00000000 </v>
     <v>       0.00000000       0.00000000      21.87963500 </v>
    </varray>
    <i name="volume">   1345.21837528 </i>
    <varray name="rec_basis" >
     <v>       0.13704346       0.00000000       0.00000000 </v>
     <v>       0.06852173       0.11868312       0.00000000 </v>
     <v>       0.00000000       0.00000000       0.04570460 </v>
    </varray>
   </crystal>
   <varray name="positions" >
    <v>       0.70135963       0.42704046       0.47152131 </v>
    <v>       0.90832218       0.38517367       0.46586924 </v>
    <v>       0.67392058       0.45834994       0.52239932 </v>
    <v>       0.98675500       0.32859100       0.07437600 </v>
    <v>       0.32008800       0.32859100       0.07437600 </v>
    <v>       0.65342200       0.32859100       0.07437600 </v>
    <v>       0.98675500       0.66192500       0.07437600 </v>
    <v>       0.32008800       0.66192500       0.07437600 </v>
    <v>       0.65342200       0.66192500       0.07437600 </v>
    <v>       0.32008800       0.99525800       0.07437600 </v>
    <v>       0.65342200       0.99525800       0.07437600 </v>
    <v>       0.98675500       0.99525800       0.07437600 </v>
    <v>       0.20897700       0.10636900       0.17918600 </v>
    <v>       0.54231100       0.10636900       0.17918600 </v>
    <v>       0.87564400       0.10636900       0.17918600 </v>
    <v>       0.20897700       0.43970300       0.17918600 </v>
    <v>       0.54231100       0.43970300       0.17918600 </v>
    <v>       0.87564400       0.43970300       0.17918600 </v>
    <v>       0.20897700       0.77303600       0.17918600 </v>
    <v>       0.54231100       0.77303600       0.17918600 </v>
    <v>       0.87564400       0.77303600       0.17918600 </v>
    <v>       0.09720247       0.54469007       0.28697643 </v>
    <v>       0.42718020       0.88620131       0.28156598 </v>
    <v>       0.76049111       0.21466086       0.28644061 </v>
    <v>       0.09776966       0.22043398       0.28217333 </v>
    <v>       0.43295856       0.21468770       0.28304855 </v>
    <v>       0.09603309       0.88436516       0.28270799 </v>
    <v>       0.76692086       0.88022363       0.28016929 </v>
    <v>       0.43486195       0.54592557       0.28594909 </v>
    <v>       0.76509875       0.54810739       0.27972582 </v>
    <v>       0.32732368       0.65830631       0.38699217 </v>
    <v>       0.65258172       0.98960652       0.38518819 </v>
    <v>       0.32459565       0.32759362       0.38898968 </v>
    <v>       0.99256411       0.99054106       0.38781902 </v>
    <v>       0.31858197       0.99264162       0.39062123 </v>
    <v>       0.64342809       0.32804788       0.38922898 </v>
    <v>       0.99805732       0.66561923       0.38657330 </v>
    <v>       0.99214775       0.31595811       0.39094687 </v>
    <v>       0.65430758       0.66558153       0.38647967 </v>
   </varray>
  </structure>
  <varray name="forces" >
   <v>      -0.34190367      -0.54434282       1.81177761 </v>
   <v>       0.41816758       0.35664123      -0.14537904 </v>
   <v>       0.61832423      -0.61537173      -2.33730013 </v>
   <v>      -0.01804065      -0.02276173       0.18400881 </v>
   <v>      -0.00360826      -0.05730985       0.15246086 </v>
   <v>      -0.04899040      -0.02898677       0.08716100 </v>
   <v>       0.02277245       0.08140043       0.14236860 </v>
   <v>      -0.00150110       0.00130973       0.19948402 </v>
   <v>       0.00517990       0.00012180       0.13235162 </v>
   <v>       0.02094002      -0.01684443       0.01370044 </v>
   <v>      -0.00035240       0.05453171       0.12594090 </v>
   <v>       0.01822420      -0.00956109       0.02930401 </v>
   <v>      -0.00903092      -0.03191629      -0.23085717 </v>
   <v>       0.12271484       0.06102372      -0.16519283 </v>
   <v>       0.02673603       0.10796047      -0.15068976 </v>
   <v>       0.07975505       0.11265840       0.14856722 </v>
   <v>      -0.19502164       0.02900642      -0.20885006 </v>
   <v>       0.14705222      -0.24572895       0.04957012 </v>
   <v>      -0.17643391      -0.10083392      -0.01592908 </v>
   <v>      -0.15302548      -0.06866802      -0.08542274 </v>
   <v>       0.17717942       0.01642325      -0.62505533 </v>
   <v>       0.08828763       0.19171407      -0.85950165 </v>
   <v>       0.10159673      -0.61321987       0.35294404 </v>
   <v>       0.28635119      -0.00948359      -0.65715028 </v>
   <v>      -0.12865674      -0.13373564       0.51734179 </v>
   <v>      -0.26622740       0.15474854       0.09215578 </v>
   <v>       0.21536328      -0.34773335       0.05257181 </v>
   <v>      -0.22088265       0.47877863       0.54926523 </v>
   <v>      -0.29760788       0.42943386      -0.85557978 </v>
   <v>       0.19350872      -0.08460829       0.70381372 </v>
   <v>      -0.09224355       0.48551741       0.08961994 </v>
   <v>      -0.11170499      -0.07814831       0.03679831 </v>
   <v>      -0.46121007      -0.18379705      -0.15094532 </v>
   <v>      -0.25854263       0.17451057      -0.07984862 </v>
   <v>       0.20269806      -0.24474965      -0.38470550 </v>
   <v>      -0.13060881       0.29109063       0.60038125 </v>
   <v>      -0.22134726       0.24008854       0.09832248 </v>
   <v>      -0.15988731       0.21657099       0.77164325 </v>
   <v>       0.55197619      -0.04572907       0.01085450 </v>
  </varray>
  <varray name="stress" >
   <v>     -42.26972156       1.05599870       2.48494944 </v>
   <v>       1.05599874     -45.20043130      -1.75410045 </v>
   <v>       2.48494948      -1.75410041      -6.96526576 </v>
  </varray>
  <energy>
   <i name="e_fr_energy">   -230.37210665 </i>
   <i name="e_wo_entrp">   -230.36849845 </i>
   <i name="e_0_energy">     -0.01082460 </i>
  </energy>
  <time name="totalsc">  116.16  117.62</time>
 </calculation>
 <calculation>
  <scstep>
   <time name="dav">   12.14   12.24</time>
   <time name="total">   13.16   13.31</time>
   <energy>
    <i name="alphaZ">    975.10247152 </i>
    <i name="ewald">  91698.37222007 </i>
    <i name="hartreedc">-120390.04382873 </i>
    <i name="XCdc">    178.34120263 </i>
    <i name="pawpsdc">  30108.41312865 </i>
    <i name="pawaedc"> -29194.60580690 </i>
    <i name="eentropy">     -0.01353849 </i>
    <i name="bandstr">   -865.90429244 </i>
    <i name="atom">  27259.89416086 </i>
    <i name="e_fr_energy">   -230.44428282 </i>
    <i name="e_wo_entrp">   -230.43074433 </i>
    <i name="e_0_energy">   -230.43976999 </i>
   </energy>
  </scstep>
  <scstep>
   <time name="diag">    2.00    2.02</time>
   <time name="diis">    6.90    6.95</time>
   <time name="orth">    0.28    0.28</time>
   <time name="total">   10.14   10.22</time>
   <energy>
    <i name="e_fr_energy">   -230.48146647 </i>
    <i name="e_wo_entrp">   -230.47370733 </i>
    <i name="e_0_energy">   -230.47888009 </i>
   </energy>
  </scstep>
  <scstep>
   <time name="diag">    2.02    2.03</time>
   <time name="diis">    7.46    7.51</time>
   <time name="orth">    0.28    0.28</time>
   <time name="total">   10.77   10.85</time>
   <energy>
    <i name="e_fr_energy">   -230.47763799 </i>
    <i name="e_wo_entrp">   -230.46235013 </i>
    <i name="e_0_energy">   -230.47254204 </i>
   </energy>
  </scstep>
  <scstep>
   <time name="diag">    2.05    2.07</time>
   <time name="diis">    7.21    7.26</time>
   <time name="orth">    0.28    0.28</time>
   <time name="total">   10.55   10.62</time>
   <energy>
    <i name="e_fr_energy">   -230.47453686 </i>
    <i name="e_wo_entrp">   -230.46230676 </i>
    <i name="e_0_energy">   -230.47046016 </i>
   </energy>
  </scstep>
  <scstep>
   <time name="diag">    2.08    2.09</time>
   <time name="diis">    7.18    7.23</time>
   <time name="orth">    0.27    0.28</time>
   <time name="total">   10.50   10.58</time>
   <energy>
    <i name="e_fr_energy">   -230.47301224 </i>
    <i name="e_wo_entrp">   -230.46357967 </i>
    <i name="e_0_energy">   -230.46986805 </i>
   </energy>
  </scstep>
  <scstep>
   <time name="diag">    2.04    2.06</time>
   <time name="diis">    7.21    7.26</time>
   <time name="orth">    0.26    0.26</time>
   <time name="total">   10.49   10.57</time>
   <energy>
    <i name="e_fr_energy">   -230.47096426 </i>
    <i name="e_wo_entrp">   -230.45826747 </i>
    <i name="e_0_energy">   -230.46673200 </i>
   </energy>
  </scstep>
  <scstep>
   <time name="diag">    2.03    2.04</time>
   <time name="diis">    7.11    7.16</time>
   <time name="orth">    0.26    0.26</time>
   <time name="total">   10.31   10.39</time>
   <energy>
    <i name="e_fr_energy">   -230.47014311 </i>
    <i name="e_wo_entrp">   -230.45828022 </i>
    <i name="e_0_energy">   -230.46618881 </i>
   </energy>
  </scstep>
  <scstep>
   <time name="diag">    2.08    2.09</time>
   <time name="diis">    5.72    5.76</time>
   <time name="orth">    0.27    0.27</time>
   <time name="total">    9.09    9.16</time>
   <energy>
    <i name="e_fr_energy">   -230.46992021 </i>
    <i name="e_wo_entrp">   -230.45785801 </i>
    <i name="e_0_energy">   -230.46589948 </i>
   </energy>
  </scstep>
  <scstep>
   <time name="diag">    2.05    2.06</time>
   <time name="diis">    4.39    4.42</time>
   <time name="orth">    0.27    0.28</time>
   <time name="total">    6.91    6.96</time>
   <energy>
    <i name="alphaZ">    975.10247152 </i>
    <i name="ewald">  91698.37222007 </i>
    <i name="hartreedc">-120399.06970668 </i>
    <i name="XCdc">    178.45827631 </i>
    <i name="pawpsdc">  30115.11758870 </i>
    <i name="pawaedc"> -29201.30524332 </i>
    <i name="eentropy">     -0.01191487 </i>
    <i name="bandstr">   -857.02770433 </i>
    <i name="atom">  27259.89416086 </i>
    <i name="e_fr_energy">   -230.46985173 </i>
    <i name="e_wo_entrp">   -230.45793686 </i>
    <i name="e_0_energy">   -230.46588011 </i>
   </energy>
  </scstep>
  <structure>
   <crystal>
    <varray name="basis" >
     <v>       7.29695512      -4.21289900       0.00000000 </v>
     <v>       0.00000000       8.42579800       0.00000000 </v>
     <v>       0.00000000       0.00000000      21.87963500 </v>
    </varray>
    <i name="volume">   1345.21837528 </i>
    <varray name="rec_basis" >
     <v>       0.13704346       0.00000000       0.00000000 </v>
     <v>       0.06852173       0.11868312       0.00000000 </v>
     <v>       0.00000000       0.00000000       0.04570460 </v>
    </varray>
   </crystal>
   <varray name="positions" >
    <v>       0.70085601       0.42609426       0.47241134 </v>
    <v>       0.90893813       0.38593659       0.46579782 </v>
    <v>       0.67483136       0.45802034       0.52125113 </v>
    <v>       0.98675500       0.32859100       0.07437600 </v>
    <v>       0.32008800       0.32859100       0.07437600 </v>
    <v>       0.65342200       0.32859100       0.07437600 </v>
    <v>       0.98675500       0.66192500       0.07437600 </v>
    <v>       0.32008800       0.66192500       0.07437600 </v>
    <v>       0.65342200       0.66192500       0.07437600 </v>
    <v>       0.32008800       0.99525800       0.07437600 </v>
    <v>       0.65342200       0.99525800       0.07437600 </v>
    <v>       0.98675500       0.99525800       0.07437600 </v>
    <v>       0.20897700       0.10636900       0.17918600 </v>
    <v>       0.54231100       0.10636900       0.17918600 </v>
    <v>       0.87564400       0.10636900       0.17918600 </v>
    <v>       0.20897700       0.43970300       0.17918600 </v>
    <v>       0.54231100       0.43970300       0.17918600 </v>
    <v>       0.87564400       0.43970300       0.17918600 </v>
    <v>       0.20897700       0.77303600       0.17918600 </v>
    <v>       0.54231100       0.77303600       0.17918600 </v>
    <v>       0.87564400       0.77303600       0.17918600 </v>
    <v>       0.09733252       0.54499965       0.28655420 </v>
    <v>       0.42732985       0.88549389       0.28173937 </v>
    <v>       0.76091289       0.21485965       0.28611779 </v>
    <v>       0.09758015       0.22016863       0.28242747 </v>
    <v>       0.43256642       0.21468903       0.28309383 </v>
    <v>       0.09635031       0.88408019       0.28273381 </v>
    <v>       0.76659550       0.88067170       0.28043911 </v>
    <v>       0.43442358       0.54625418       0.28552879 </v>
    <v>       0.76538378       0.54814198       0.28007156 </v>
    <v>       0.32718780       0.65885772       0.38703620 </v>
    <v>       0.65241718       0.98942456       0.38520627 </v>
    <v>       0.32391630       0.32701949       0.38891553 </v>
    <v>       0.99218328       0.99057326       0.38777979 </v>
    <v>       0.31888054       0.99247870       0.39043225 </v>
    <v>       0.64323571       0.32832302       0.38952392 </v>
    <v>       0.99773128       0.66576247       0.38662160 </v>
    <v>       0.99191224       0.31611662       0.39132594 </v>
    <v>       0.65512063       0.66592972       0.38648501 </v>
   </varray>
  </structure>
  <varray name="forces" >
   <v>       0.13595368      -1.72835432      -1.96135476 </v>
   <v>       0.49347531       0.31075955      -0.09468758 </v>
   <v>      -0.01000937       0.64006247       1.40874726 </v>
   <v>      -0.01516302      -0.02605556       0.17834455 </v>
   <v>      -0.00707415      -0.05701805       0.15134799 </v>
   <v>      -0.04812435      -0.02520507       0.08627780 </v>
   <v>       0.02185085       0.08241064       0.14246605 </v>
   <v>      -0.00007105       0.00546339       0.19200016 </v>
   <v>       0.00906661      -0.00017466       0.13516932 </v>
   <v>       0.01918200      -0.01898982       0.01871847 </v>
   <v>      -0.00083250       0.05113238       0.12457895 </v>
   <v>       0.01688603      -0.00888912       0.03923056 </v>
   <v>      -0.01712824      -0.03058484      -0.21737981 </v>
   <v>       0.10368881       0.05546351      -0.14951179 </v>
   <v>       0.03762648       0.08948966      -0.14313347 </v>
   <v>       0.06708343       0.09297425       0.12796883 </v>
   <v>      -0.17092004       0.02099596      -0.18838572 </v>
   <v>       0.13222104      -0.22211132       0.04529306 </v>
   <v>      -0.16134637      -0.08891035      -0.03098533 </v>
   <v>      -0.13364292      -0.06036505      -0.09454579 </v>
   <v>       0.16282478       0.02538143      -0.57019471 </v>
   <v>       0.07520282       0.16649650      -0.74044655 </v>
   <v>       0.10014647      -0.52344517       0.28963247 </v>
   <v>       0.24125993       0.00347081      -0.55697566 </v>
   <v>      -0.13108214      -0.11054303       0.47549477 </v>
   <v>      -0.19581133       0.12013115       0.09968913 </v>
   <v>       0.17028974      -0.30521795       0.04349386 </v>
   <v>      -0.18124145       0.40172418       0.46828117 </v>
   <v>      -0.25132105       0.37046180      -0.71527166 </v>
   <v>       0.14825704      -0.04882617       0.62247611 </v>
   <v>      -0.09318762       0.40538009       0.05961105 </v>
   <v>      -0.09141886      -0.03376224       0.04375903 </v>
   <v>      -0.40966460      -0.12532531      -0.17181210 </v>
   <v>      -0.23429255       0.15995579      -0.05904245 </v>
   <v>       0.18210791      -0.22474278      -0.35511872 </v>
   <v>      -0.10769870       0.28049969       0.60390104 </v>
   <v>      -0.18564119       0.20142978       0.06597734 </v>
   <v>      -0.11731783       0.19144427       0.66908210 </v>
   <v>       0.44586638      -0.03660651      -0.04269495 </v>
  </varray>
  <varray name="stress" >
   <v>     -42.39998984       0.67298328       1.43289506 </v>
   <v>       0.67298322     -44.87254082      -0.18339603 </v>
   <v>       1.43289523      -0.18339617      -2.36868698 </v>
  </varray>
  <energy>
   <i name="e_fr_energy">   -230.46985173 </i>
   <i name="e_wo_entrp">   -230.46588011 </i>
   <i name="e_0_energy">     -0.01191487 </i>
  </energy>
  <time name="totalsc">  108.77  109.96</time>
 </calculation>
 <calculation>
  <scstep>
