metal                                   
           1
     7.296955   -4.212899    0.000000
     0.000000    8.425798    0.000000
     0.000000    0.000000   21.879635
   C    O    Pt
   1   2  36
Direct configuration=     1
   0.70153379  0.43069801  0.47249002
   0.90704331  0.38397756  0.46630460
   0.67339724  0.45755389  0.52237855
   0.98675500  0.32859100  0.07437600
   0.32008800  0.32859100  0.07437600
   0.65342200  0.32859100  0.07437600
   0.98675500  0.66192500  0.07437600
   0.32008800  0.66192500  0.07437600
   0.65342200  0.66192500  0.07437600
   0.32008800  0.99525800  0.07437600
   0.65342200  0.99525800  0.07437600
   0.98675500  0.99525800  0.07437600
   0.20897700  0.10636900  0.17918600
   0.54231100  0.10636900  0.17918600
   0.87564400  0.10636900  0.17918600
   0.20897700  0.43970300  0.17918600
   0.54231100  0.43970300  0.17918600
   0.87564400  0.43970300  0.17918600
   0.20897700  0.77303600  0.17918600
   0.54231100  0.77303600  0.17918600
   0.87564400  0.77303600  0.17918600
   0.09685950  0.54387640  0.28802120
   0.42700454  0.88799717  0.28111842
   0.75934763  0.21421369  0.28728653
   0.09813548  0.22106179  0.28164103
   0.43419794  0.21478267  0.28301572
   0.09513711  0.88499095  0.28262666
   0.76784491  0.87913300  0.27950565
   0.43596947  0.54521872  0.28704952
   0.76421251  0.54803589  0.27896976
   0.32756334  0.65682296  0.38683066
   0.65301598  0.99031396  0.38516616
   0.32623875  0.32919577  0.38905642
   0.99343636  0.99057101  0.38793066
   0.31797306  0.99305781  0.39102191
   0.64317089  0.32662072  0.38806488
   0.99887786  0.66528448  0.38642429
   0.99283260  0.31557215  0.38987776
   0.65201424  0.66455272  0.38635806
Direct configuration=     2
   0.70135963  0.42704046  0.47152131
   0.90832218  0.38517367  0.46586924
   0.67392058  0.45834994  0.52239932
   0.98675500  0.32859100  0.07437600
   0.32008800  0.32859100  0.07437600
   0.65342200  0.32859100  0.07437600
   0.98675500  0.66192500  0.07437600
   0.32008800  0.66192500  0.07437600
   0.65342200  0.66192500  0.07437600
   0.32008800  0.99525800  0.07437600
   0.65342200  0.99525800  0.07437600
   0.98675500  0.99525800  0.07437600
   0.20897700  0.10636900  0.17918600
   0.54231100  0.10636900  0.17918600
   0.87564400  0.10636900  0.17918600
   0.20897700  0.43970300  0.17918600
   0.54231100  0.43970300  0.17918600
   0.87564400  0.43970300  0.17918600
   0.20897700  0.77303600  0.17918600
   0.54231100  0.77303600  0.17918600
   0.87564400  0.77303600  0.17918600
   0.09720247  0.54469007  0.28697643
   0.42718020  0.88620131  0.28156598
   0.76049111  0.21466086  0.28644061
   0.09776966  0.22043398  0.28217333
   0.43295856  0.21468770  0.28304855
   0.09603309  0.88436516  0.28270799
   0.76692086  0.88022363  0.28016929
   0.43486195  0.54592557  0.28594909
   0.76509875  0.54810739  0.27972582
   0.32732368  0.65830631  0.38699217
   0.65258172  0.98960652  0.38518819
   0.32459565  0.32759362  0.38898968
   0.99256411  0.99054106  0.38781902
   0.31858197  0.99264162  0.39062123
   0.64342809  0.32804788  0.38922898
   0.99805732  0.66561923  0.38657330
   0.99214775  0.31595811  0.39094687
   0.65430758  0.66558153  0.38647967
Direct configuration=     3
   0.70085601  0.42609426  0.47241134
   0.90893813  0.38593659  0.46579782
   0.67483136  0.45802034  0.52125113
   0.98675500  0.32859100  0.07437600
   0.32008800  0.32859100  0.07437600
   0.65342200  0.32859100  0.07437600
   0.98675500  0.66192500  0.07437600
   0.32008800  0.66192500  0.07437600
   0.65342200  0.66192500  0.07437600
   0.32008800  0.99525800  0.07437600
   0.65342200  0.99525800  0.07437600
   0.98675500  0.99525800  0.07437600
   0.20897700  0.10636900  0.17918600
   0.54231100  0.10636900  0.17918600
   0.87564400  0.10636900  0.17918600
   0.20897700  0.43970300  0.17918600
   0.54231100  0.43970300  0.17918600
   0.87564400  0.43970300  0.17918600
   0.20897700  0.77303600  0.17918600
   0.54231100  0.77303600  0.17918600
   0.87564400  0.77303600  0.17918600
   0.09733252  0.54499965  0.28655420
   0.42732985  0.88549389  0.28173937
   0.76091289  0.21485965  0.28611779
   0.09758015  0.22016863  0.28242747
   0.43256642  0.21468903  0.28309383
   0.09635031  0.88408019  0.28273381
   0.76659550  0.88067170  0.28043911
   0.43442358  0.54625418  0.28552879
   0.76538378  0.54814198  0.28007156
   0.32718780  0.65885772  0.38703620
   0.65241718  0.98942456  0.38520627
   0.32391630  0.32701949  0.38891553
   0.99218328  0.99057326  0.38777979
   0.31888054  0.99247870  0.39043225
   0.64323571  0.32832302  0.38952392
   0.99773128  0.66576247  0.38662160
   0.99191224  0.31611662  0.39132594
   0.65512063  0.66592972  0.38648501
