       N       E                     dE             d eps       ncg     rms          rms(c)
DAV:   1     0.242062302736E+04    0.24206E+04   -0.15949E+05  1824   0.129E+03
DAV:   2    -0.635222320717E+02   -0.24841E+04   -0.23109E+04  2120   0.286E+02
DAV:   3    -0.240796443230E+03   -0.17727E+03   -0.16100E+03  2192   0.688E+01
DAV:   4    -0.248231692260E+03   -0.74352E+01   -0.71658E+01  2352   0.135E+01
DAV:   5    -0.248442979540E+03   -0.21129E+00   -0.20988E+00  2328   0.235E+00    0.274E+01
RMM:   6    -0.246357321356E+03    0.20857E+01   -0.55544E+01  1831   0.149E+01    0.285E+01
RMM:   7    -0.243459304077E+03    0.28980E+01   -0.32673E+01  1826   0.890E+00    0.203E+01
RMM:   8    -0.242698066302E+03    0.76124E+00   -0.92607E+00  1830   0.470E+00    0.218E+01
RMM:   9    -0.231329596356E+03    0.11368E+02   -0.48755E+00  1831   0.365E+00    0.729E+00
RMM:  10    -0.230482387834E+03    0.84721E+00   -0.11573E+00  1831   0.174E+00    0.397E+00
RMM:  11    -0.230290925108E+03    0.19146E+00   -0.35380E-01  1832   0.941E-01    0.279E+00
RMM:  12    -0.230222814372E+03    0.68111E-01   -0.19743E-01  1841   0.705E-01    0.199E+00
RMM:  13    -0.230198631556E+03    0.24183E-01   -0.11094E-01  1832   0.572E-01    0.155E+00
RMM:  14    -0.230167693311E+03    0.30938E-01   -0.66748E-02  1831   0.445E-01    0.743E-01
RMM:  15    -0.230163680098E+03    0.40132E-02   -0.15139E-02  1831   0.207E-01    0.546E-01
RMM:  16    -0.230159102770E+03    0.45773E-02   -0.48288E-03  1832   0.121E-01    0.191E-01
RMM:  17    -0.230158932811E+03    0.16996E-03   -0.11972E-03  1820   0.580E-02    0.131E-01
RMM:  18    -0.230159111169E+03   -0.17836E-03   -0.64929E-04  1661   0.442E-02    0.101E-01
RMM:  19    -0.230159039612E+03    0.71557E-04   -0.19809E-04  1038   0.260E-02
   1 F= -.23015904E+03 E0= -.23014578E+03  d E =-.230159E+03
       N       E                     dE             d eps       ncg     rms          rms(c)
DAV:   1    -0.230324846774E+03   -0.16574E+00   -0.23767E+01  1856   0.921E+00    0.760E-01
RMM:   2    -0.230401174468E+03   -0.76328E-01   -0.51693E-01  1832   0.144E+00    0.195E+00
RMM:   3    -0.230365228856E+03    0.35946E-01   -0.44543E-02  1849   0.365E-01    0.565E-01
RMM:   4    -0.230372050587E+03   -0.68217E-02   -0.82603E-03  1861   0.153E-01    0.900E-01
RMM:   5    -0.230361159837E+03    0.10891E-01   -0.34988E-03  1842   0.954E-02    0.365E-01
RMM:   6    -0.230360319305E+03    0.84053E-03   -0.40394E-03  1825   0.108E-01    0.264E-01
RMM:   7    -0.230360250696E+03    0.68609E-04   -0.36606E-03  1828   0.105E-01    0.228E-01
RMM:   8    -0.230359594735E+03    0.65596E-03   -0.13418E-03  1818   0.629E-02    0.104E-01
RMM:   9    -0.230359506072E+03    0.88663E-04   -0.27422E-04  1085   0.299E-02
   2 F= -.23035951E+03 E0= -.23034745E+03  d E =-.200466E+00
       N       E                     dE             d eps       ncg     rms          rms(c)
DAV:   1    -0.230414789726E+03   -0.55195E-01   -0.13501E+01  1840   0.699E+00    0.552E-01
RMM:   2    -0.230461374124E+03   -0.46584E-01   -0.38862E-01  1845   0.112E+00    0.952E-01
RMM:   3    -0.230452562494E+03    0.88116E-02   -0.18593E-02  1845   0.236E-01    0.743E-01
RMM:   4    -0.230446555289E+03    0.60072E-02   -0.47201E-03  1846   0.113E-01    0.444E-01
RMM:   5    -0.230444675195E+03    0.18801E-02   -0.30997E-03  1830   0.889E-02    0.341E-01
RMM:   6    -0.230444938645E+03   -0.26345E-03   -0.51918E-03  1828   0.118E-01    0.318E-01
RMM:   7    -0.230443337049E+03    0.16016E-02   -0.26465E-03  1827   0.871E-02    0.150E-01
RMM:   8    -0.230443098100E+03    0.23895E-03   -0.65372E-04  1665   0.436E-02    0.780E-02
RMM:   9    -0.230443033915E+03    0.64185E-04   -0.13644E-04  1004   0.221E-02
   3 F= -.23044303E+03 E0= -.23043168E+03  d E =-.835278E-01
