 vasp.5.4.4 16052018 (build Apr 24 2014 20:13:14) complex standard
 Contain Constrained Minimization Technique (TS), Periodic NBO, VASPsol, libbeef, VASP2WANNIER90, Constrained Cell Relaxation
 executed on Center for Computational Chemistry by phu@node09 date 2025.09.27 22:59:41
 running on    8 total cores
 distrk:  each k-point on    8 cores,    1 groups
 distr:  one band on NCORES_PER_BAND=   2 cores,    4 groups


--------------------------------------------------------------------------------------------------------


 INCAR:
 POTCAR:   PAW_PBE C 08Apr2002                    
 POTCAR:   PAW_PBE O 08Apr2002                    
 POTCAR:    PAW_PBE Pt 04Feb2005                  
 POTCAR:   PAW_PBE C 08Apr2002                    
   VRHFIN =C: s2p2                                                              
   LEXCH  = PE                                                                  
   EATOM  =   147.1560 eV,   10.8157 Ry                                         
                                                                                
   TITEL  = PAW_PBE C 08Apr2002                                                 
   LULTRA =        F    use ultrasoft PP ?                                      
   IUNSCR =        0    unscreen: 0-lin 1-nonlin 2-no                           
   RPACOR =     .000    partial core radius                                     
   POMASS =   12.011; ZVAL   =    4.000    mass and valenz                      
   RCORE  =    1.500    outmost cutoff radius                                   
   RWIGS  =    1.630; RWIGS  =     .863    wigner-seitz radius (au A)           
   ENMAX  =  400.000; ENMIN  =  300.000 eV                                      
   ICORE  =        2    local potential                                         
   LCOR   =        T    correct aug charges                                     
   LPAW   =        T    paw PP                                                  
   EAUG   =  644.873                                                            
   DEXC   =     .000                                                            
   RMAX   =    2.266    core radius for proj-oper                               
   RAUG   =    1.300    factor for augmentation sphere                          
   RDEP   =    1.501    radius for radial grids                                 
   RDEPT  =    1.300    core radius for aug-charge                              
   QCUT   =   -5.516; QGAM   =   11.032    optimization parameters              
                                                                                
   Description                                                                  
     l     E      TYP  RCUT    TYP  RCUT                                        
     0   .000     23  1.200                                                     
     0   .000     23  1.200                                                     
     1   .000     23  1.500                                                     
     1  2.500     23  1.500                                                     
     2   .000      7  1.500                                                     
  local pseudopotential read in
  atomic valenz-charges read in
  non local Contribution for L=           0  read in
    real space projection operators read in
  non local Contribution for L=           0  read in
    real space projection operators read in
  non local Contribution for L=           1  read in
    real space projection operators read in
  non local Contribution for L=           1  read in
    real space projection operators read in
    PAW grid and wavefunctions read in
 
   number of l-projection  operators is LMAX  =           4
   number of lm-projection operators is LMMAX =           8
 
 POTCAR:   PAW_PBE O 08Apr2002                    
   VRHFIN =O: s2p4                                                              
   LEXCH  = PE                                                                  
   EATOM  =   432.3788 eV,   31.7789 Ry                                         
                                                                                
   TITEL  = PAW_PBE O 08Apr2002                                                 
   LULTRA =        F    use ultrasoft PP ?                                      
   IUNSCR =        0    unscreen: 0-lin 1-nonlin 2-no                           
   RPACOR =     .000    partial core radius                                     
   POMASS =   16.000; ZVAL   =    6.000    mass and valenz                      
   RCORE  =    1.520    outmost cutoff radius                                   
   RWIGS  =    1.550; RWIGS  =     .820    wigner-seitz radius (au A)           
   ENMAX  =  400.000; ENMIN  =  300.000 eV                                      
   ICORE  =        2    local potential                                         
   LCOR   =        T    correct aug charges                                     
   LPAW   =        T    paw PP                                                  
   EAUG   =  605.392                                                            
   DEXC   =     .000                                                            
   RMAX   =    2.264    core radius for proj-oper                               
   RAUG   =    1.300    factor for augmentation sphere                          
   RDEP   =    1.550    radius for radial grids                                 
   QCUT   =   -5.520; QGAM   =   11.041    optimization parameters              
                                                                                
   Description                                                                  
     l     E      TYP  RCUT    TYP  RCUT                                        
     0   .000     23  1.200                                                     
     0  -.700     23  1.200                                                     
     1   .000     23  1.520                                                     
     1   .600     23  1.520                                                     
     2   .000      7  1.500                                                     
  local pseudopotential read in
  atomic valenz-charges read in
  non local Contribution for L=           0  read in
    real space projection operators read in
  non local Contribution for L=           0  read in
    real space projection operators read in
  non local Contribution for L=           1  read in
    real space projection operators read in
  non local Contribution for L=           1  read in
    real space projection operators read in
    PAW grid and wavefunctions read in
 
   number of l-projection  operators is LMAX  =           4
   number of lm-projection operators is LMMAX =           8
 
 POTCAR:    PAW_PBE Pt 04Feb2005                  
   VRHFIN =Pt: s1d9                                                             
   LEXCH  = PE                                                                  
   EATOM  =   729.1182 eV,   53.5887 Ry                                         
                                                                                
   TITEL  = PAW_PBE Pt 04Feb2005                                                
   LULTRA =        F    use ultrasoft PP ?                                      
   IUNSCR =        1    unscreen: 0-lin 1-nonlin 2-no                           
   RPACOR =    2.330    partial core radius                                     
   POMASS =  195.080; ZVAL   =   10.000    mass and valenz                      
   RCORE  =    2.600    outmost cutoff radius                                   
   RWIGS  =    2.750; RWIGS  =    1.455    wigner-seitz radius (au A)           
   ENMAX  =  230.283; ENMIN  =  172.712 eV                                      
   ICORE  =        3    local potential                                         
   LCOR   =        T    correct aug charges                                     
   LPAW   =        T    paw PP                                                  
   EAUG   =  358.966                                                            
   DEXC   =     .000                                                            
   RMAX   =    3.038    core radius for proj-oper                               
   RAUG   =    1.300    factor for augmentation sphere                          
   RDEP   =    2.761    radius for radial grids                                 
   QCUT   =   -4.114; QGAM   =    8.228    optimization parameters              
                                                                                
   Description                                                                  
     l     E      TYP  RCUT    TYP  RCUT                                        
     2   .000     23  2.500                                                     
     2   .000     23  2.500                                                     
     0   .000     23  2.500                                                     
     0   .000     23  2.500                                                     
     1  -.200     23  2.600                                                     
     1  1.500     23  2.600                                                     
     3   .000     23  2.500                                                     
  local pseudopotential read in
  partial core-charges read in
  atomic valenz-charges read in
  non local Contribution for L=           2  read in
    real space projection operators read in
  non local Contribution for L=           2  read in
    real space projection operators read in
  non local Contribution for L=           0  read in
    real space projection operators read in
  non local Contribution for L=           0  read in
    real space projection operators read in
  non local Contribution for L=           1  read in
    real space projection operators read in
  non local Contribution for L=           1  read in
    real space projection operators read in
    PAW grid and wavefunctions read in
 
   number of l-projection  operators is LMAX  =           6
   number of lm-projection operators is LMMAX =          18
 
 Optimization of the real space projectors (new method)

 maximal supplied QI-value         = 25.13
 optimisation between [QCUT,QGAM] = [ 10.81, 21.61] = [ 32.71,130.83] Ry 
 Optimized for a Real-space Cutoff    1.23 Angstroem

   l    n(q)    QCUT    max X(q) W(low)/X(q) W(high)/X(q)  e(spline) 
   0      8    10.807     5.582    0.53E-04    0.84E-04    0.44E-07
   0      8    10.807    69.432    0.35E-03    0.71E-03    0.24E-06
   1      7    10.807     2.780    0.44E-04    0.88E-04    0.89E-07
   1      7    10.807     4.549    0.14E-03    0.28E-03    0.13E-06
 Optimization of the real space projectors (new method)

 maximal supplied QI-value         = 24.76
 optimisation between [QCUT,QGAM] = [ 10.64, 21.54] = [ 31.73,129.89] Ry 
 Optimized for a Real-space Cutoff    1.23 Angstroem

   l    n(q)    QCUT    max X(q) W(low)/X(q) W(high)/X(q)  e(spline) 
   0      8    10.645     4.192    0.69E-04    0.93E-04    0.58E-07
   0      8    10.645     8.473    0.40E-03    0.65E-03    0.17E-06
   1      7    10.645     2.474    0.80E-04    0.12E-03    0.30E-07
   1      7    10.645     3.912    0.24E-03    0.53E-03    0.16E-06
 Optimization of the real space projectors (new method)

 maximal supplied QI-value         = 14.36
 optimisation between [QCUT,QGAM] = [ 10.77, 21.69] = [ 32.49,131.70] Ry 
 Optimized for a Real-space Cutoff    1.46 Angstroem

   l    n(q)    QCUT    max X(q) W(low)/X(q) W(high)/X(q)  e(spline) 
   2      9    10.771     3.903    0.38E-04    0.12E-03    0.82E-07
   2      9    10.771    18.372    0.13E-03    0.32E-03    0.28E-06
   0     10    10.771    13.697    0.11E-04    0.86E-05    0.85E-08
   0     10    10.771    65.529    0.40E-04    0.12E-03    0.14E-06
   1      9    10.771     7.604    0.48E-04    0.31E-04    0.38E-07
   1      9    10.771    12.136    0.35E-03    0.16E-03    0.23E-06
 PAW_PBE C 08Apr2002                    :
 energy of atom  1       EATOM= -147.1560
 kinetic energy error for atom=    0.0116 (will be added to EATOM!!)
 PAW_PBE O 08Apr2002                    :
 energy of atom  2       EATOM= -432.3788
 kinetic energy error for atom=    0.0389 (will be added to EATOM!!)
  PAW_PBE Pt 04Feb2005                  :
 energy of atom  3       EATOM= -729.1182
 kinetic energy error for atom=    0.0051 (will be added to EATOM!!)
 
 
 POSCAR: C    O    Pt                            
  positions in direct lattice
  No initial velocities read in
 exchange correlation table for  LEXCH =        8
   RHO(1)=    0.500       N(1)  =     2000
   RHO(2)=  100.500       N(2)  =     4000

 VTST: version 3.2, (02/03/18)

 CHAIN: initializing optimizer
 
 OPT: Using VASP QUASI-newton optimizer
 CHAIN: Read ICHAIN            0
 
 POSCAR: C    O    Pt                            
  positions in direct lattice
  No initial velocities read in
 


--------------------------------------------------------------------------------------------------------


 ion  position               nearest neighbor table
   1  0.701  0.434  0.476-   3 1.16  36 1.96
   2  0.911  0.382  0.463-  38 1.88  36 2.53  37 2.69
   3  0.673  0.460  0.526-   1 1.16
   4  0.987  0.329  0.074-  15 2.81  16 2.81  12 2.81   5 2.81  11 2.81   6 2.81  18 2.81   8 2.81
                             7 2.81
   5  0.320  0.329  0.074-  13 2.81  10 2.81   4 2.81  12 2.81  16 2.81  17 2.81   8 2.81   9 2.81
                             6 2.81
   6  0.653  0.329  0.074-  14 2.81  18 2.81  11 2.81   4 2.81  17 2.81   7 2.81  10 2.81   9 2.81
                             5 2.81
   7  0.987  0.662  0.074-  18 2.81  21 2.81  19 2.81  12 2.81   8 2.81  10 2.81   9 2.81   6 2.81
                             4 2.81
   8  0.320  0.662  0.074-  16 2.81  19 2.81  10 2.81   7 2.81  20 2.81   4 2.81  11 2.81   5 2.81
                             9 2.81
   9  0.653  0.662  0.074-  17 2.81  20 2.81  21 2.81  11 2.81  12 2.81   7 2.81   6 2.81   5 2.81
                             8 2.81
  10  0.320  0.995  0.074-  13 2.81  19 2.81   5 2.81   8 2.81  12 2.81   7 2.81  14 2.81   6 2.81
                            11 2.81
  11  0.653  0.995  0.074-  14 2.81  20 2.81  15 2.81   9 2.81   6 2.81  12 2.81   4 2.81   8 2.81
                            10 2.81
  12  0.987  0.995  0.074-  15 2.81  21 2.81  13 2.81   7 2.81   4 2.81  10 2.81   5 2.81  11 2.81
                             9 2.81
  13  0.209  0.106  0.179-  26 2.74  27 2.78  25 2.79  10 2.81   5 2.81  12 2.81  19 2.81  15 2.81
                            21 2.81  16 2.81  17 2.81  14 2.81
  14  0.542  0.106  0.179-  26 2.70  24 2.74  23 2.78  11 2.81   6 2.81  20 2.81  15 2.81  10 2.81
                            18 2.81  19 2.81  17 2.81  13 2.81
  15  0.876  0.106  0.179-  24 2.74  25 2.78  28 2.80  12 2.81   4 2.81  11 2.81  21 2.81  13 2.81
                            14 2.81  20 2.81  16 2.81  18 2.81
  16  0.209  0.440  0.179-  25 2.76  22 2.79   8 2.81   4 2.81  19 2.81  18 2.81   5 2.81  15 2.81
                            20 2.81  13 2.81  17 2.81  29 2.85
  17  0.542  0.440  0.179-  26 2.72  30 2.76   9 2.81  20 2.81  21 2.81  18 2.81   6 2.81   5 2.81
                            14 2.81  16 2.81  13 2.81  29 2.84
  18  0.876  0.440  0.179-  22 2.74  24 2.76  30 2.76   7 2.81   6 2.81  21 2.81  16 2.81  19 2.81
                            17 2.81   4 2.81  14 2.81  15 2.81
  19  0.209  0.773  0.179-  23 2.75  22 2.75  27 2.80  10 2.81   8 2.81   7 2.81  16 2.81  13 2.81
                            21 2.81  18 2.81  14 2.81  20 2.81
  20  0.542  0.773  0.179-  23 2.76  28 2.81   9 2.81  11 2.81  17 2.81  14 2.81  15 2.81  21 2.81
                             8 2.81  16 2.81  19 2.81  29 2.86
  21  0.876  0.773  0.179-  28 2.76  30 2.76  27 2.78  12 2.81   7 2.81   9 2.81  18 2.81  15 2.81
                            19 2.81  13 2.81  17 2.81  20 2.81
  22  0.094  0.553  0.281-  18 2.74  19 2.75  30 2.77  37 2.77  23 2.79  27 2.79  16 2.79  24 2.82
                            25 2.82  29 2.86  31 2.93  38 2.95
  23  0.428  0.880  0.281-  32 2.75  19 2.75  20 2.76  14 2.78  22 2.79  29 2.80  26 2.81  24 2.82
                            27 2.82  28 2.86  35 2.88  31 2.89
  24  0.764  0.215  0.281-  15 2.74  32 2.74  14 2.74  18 2.76  26 2.78  25 2.79  22 2.82  23 2.82
                            28 2.83  30 2.83  38 2.94  36 2.98
  25  0.099  0.221  0.282-  16 2.76  29 2.78  15 2.78  13 2.79  24 2.79  22 2.82  27 2.82  28 2.82
                            38 2.83  26 2.86  34 2.88  33 2.89
  26  0.435  0.218  0.279-  14 2.70  17 2.72  13 2.74  24 2.78  30 2.79  23 2.81  29 2.81  27 2.83
                            25 2.86  36 2.95  35 2.95  33 2.96
  27  0.096  0.885  0.283-  28 2.74  21 2.78  13 2.78  22 2.79  37 2.80  34 2.80  19 2.80  30 2.81
                            25 2.82  23 2.82  26 2.83  35 2.87
  28  0.769  0.882  0.283-  32 2.73  27 2.74  21 2.76  30 2.77  15 2.80  20 2.81  25 2.82  34 2.82
                            24 2.83  29 2.83  39 2.84  23 2.86
  29  0.431  0.549  0.286-  31 2.76  25 2.78  39 2.80  30 2.80  23 2.80  33 2.81  26 2.81  28 2.83
                            17 2.84  16 2.85  20 2.86  22 2.86
  30  0.764  0.551  0.281-  17 2.76  21 2.76  18 2.76  22 2.77  28 2.77  26 2.79  29 2.80  27 2.81
                            24 2.83  39 2.83  37 2.87  36 2.98
  31  0.326  0.658  0.390-  29 2.76  33 2.77  37 2.80  39 2.80  32 2.81  35 2.83  38 2.84  23 2.89
                            22 2.93
  32  0.654  0.994  0.382-  28 2.73  24 2.74  23 2.75  38 2.80  31 2.81  35 2.81  36 2.81  34 2.84
                            39 2.85
  33  0.321  0.327  0.392-  38 2.76  36 2.76  31 2.77  34 2.81  29 2.81  39 2.82  35 2.83  25 2.89
                            26 2.96
  34  0.989  0.991  0.389-  38 2.77  37 2.78  35 2.79  39 2.79  27 2.80  33 2.81  28 2.82  32 2.84
                            25 2.88
  35  0.320  0.991  0.391-  37 2.73  36 2.77  34 2.79  32 2.81  33 2.83  31 2.83  27 2.87  23 2.88
                            26 2.95
  36  0.646  0.322  0.394-   1 1.96   2 2.53  33 2.76  35 2.77  39 2.79  32 2.81  38 2.91  37 2.93
                            26 2.95  30 2.98  24 2.98
  37  0.997  0.665  0.387-   2 2.69  35 2.73  22 2.77  34 2.78  27 2.80  31 2.80  39 2.83  30 2.87
                            38 2.88  36 2.93
  38  0.990  0.320  0.392-   2 1.88  33 2.76  34 2.77  32 2.80  25 2.83  31 2.84  37 2.88  36 2.91
                            24 2.94  22 2.95
  39  0.658  0.659  0.389-  36 2.79  34 2.79  31 2.80  29 2.80  33 2.82  37 2.83  30 2.83  28 2.84
                            32 2.85
 

IMPORTANT INFORMATION: All symmetrisations will be switched off!
NOSYMM: (Re-)initialisation of all symmetry stuff for point group C_1.

 
 
 KPOINTS: mesh auto                               

Automatic generation of k-mesh.
Space group operators:
 irot       det(A)        alpha          n_x          n_y          n_z        tau_x        tau_y        tau_z
    1     1.000000     0.000000     1.000000     0.000000     0.000000     0.000000     0.000000     0.000000
 
 Subroutine IBZKPT returns following result:
 ===========================================
 
 Found      4 irreducible k-points:
 
 Following reciprocal coordinates:
            Coordinates               Weight
  0.000000  0.000000  0.000000      1.000000
  0.500000  0.000000  0.000000      1.000000
 -0.000000  0.500000  0.000000      1.000000
  0.500000  0.500000  0.000000      1.000000
 
 Following cartesian coordinates:
            Coordinates               Weight
  0.000000  0.000000  0.000000      1.000000
  0.068522  0.000000  0.000000      1.000000
  0.034261  0.059342  0.000000      1.000000
  0.102783  0.059342  0.000000      1.000000
 


--------------------------------------------------------------------------------------------------------




 Dimension of arrays:
   k-points           NKPTS =      4   k-points in BZ     NKDIM =      4   number of bands    NBANDS=    228
   number of dos      NEDOS =    301   number of ions     NIONS =     39
   non local maximal  LDIM  =      6   non local SUM 2l+1 LMDIM =     18
   total plane-waves  NPLWV = 276480
   max r-space proj   IRMAX =   2756   max aug-charges    IRDMAX=  12646
   dimension x,y,z NGX =    48 NGY =   48 NGZ =  120
   dimension x,y,z NGXF=    96 NGYF=   96 NGZF=  240
   support grid    NGXF=    96 NGYF=   96 NGZF=  240
   ions per type =               1   2  36
   NGX,Y,Z   is equivalent  to a cutoff of   9.47,  9.47,  9.12 a.u.
   NGXF,Y,Z  is equivalent  to a cutoff of  18.94, 18.94, 18.24 a.u.

 SYSTEM =  metal                                   
 POSCAR =  C    O    Pt                            

 Startparameter for this run:
   NWRITE =      2    write-flag & timer
   PREC   = normal    normal or accurate (medium, high low for compatibility)
   ISTART =      0    job   : 0-new  1-cont  2-samecut
   ICHARG =      2    charge: 1-file 2-atom 10-const
   ISPIN  =      1    spin polarized calculation?
   LNONCOLLINEAR =      F non collinear calculations
   LSORBIT =      F    spin-orbit coupling
   INIWAV =      1    electr: 0-lowe 1-rand  2-diag
   LASPH  =      F    aspherical Exc in radial PAW
   METAGGA=      F    non-selfconsistent MetaGGA calc.

 Electronic Relaxation 1
   ENCUT  =  450.0 eV  33.07 Ry    5.75 a.u.  14.57 14.57 37.84*2*pi/ulx,y,z
   ENINI  =  450.0     initial cutoff
   ENAUG  =  644.9 eV  augmentation charge cutoff
   NELM   =     60;   NELMIN=  8; NELMDL= -5     # of ELM steps 
   EDIFF  = 0.1E-03   stopping-criterion for ELM
   LREAL  =      T    real-space projection
   NLSPLINE    = F    spline interpolate recip. space projectors
   LCOMPAT=      F    compatible to vasp.4.4
   GGA_COMPAT  = T    GGA compatible to vasp.4.4-vasp.4.6
   LMAXPAW     = -100 max onsite density
   LMAXMIX     =    2 max onsite mixed and CHGCAR
   VOSKOWN=      0    Vosko Wilk Nusair interpolation
   ROPT   =   -0.00050  -0.00050  -0.00050
 Ionic relaxation
   EDIFFG = -.5E-01   stopping-criterion for IOM
   NSW    =   5000    number of steps for IOM
   NBLOCK =      1;   KBLOCK =   5000    inner block; outer block 
   IBRION =      1    ionic relax: 0-MD 1-quasi-New 2-CG
   NFREE  =      0    steps in history (QN), initial steepest desc. (CG)
   ISIF   =      2    stress and relaxation
   IWAVPR =     11    prediction:  0-non 1-charg 2-wave 3-comb
   ISYM   =      0    0-nonsym 1-usesym 2-fastsym
   LCORR  =      T    Harris-Foulkes like correction to forces

   POTIM  = 0.2000    time-step for ionic-motion
   TEIN   =    0.0    initial temperature
   TEBEG  =    0.0;   TEEND  =   0.0 temperature during run
   SMASS  =  -3.00    Nose mass-parameter (am)
   estimated Nose-frequenzy (Omega)   =  0.10E-29 period in steps =****** mass=  -0.162E-26a.u.
   SCALEE = 1.0000    scale energy and forces
   NPACO  =    256;   APACO  = 16.0  distance and # of slots for P.C.
   PSTRESS=    0.0 pullay stress

  Mass of Ions in am
   POMASS =  12.01 16.00195.08
  Ionic Valenz
   ZVAL   =   4.00  6.00 10.00
  Atomic Wigner-Seitz radii
   RWIGS  =  -1.00 -1.00 -1.00
  virtual crystal weights 
   VCA    =   1.00  1.00  1.00
   NELECT =     376.0000    total number of electrons
   NUPDOWN=      -1.0000    fix difference up-down

 DOS related values:
   EMIN   =  10.00;   EMAX   =-10.00  energy-range for DOS
   EFERMI =   0.00
   ISMEAR =     1;   SIGMA  =   0.20  broadening in eV -4-tet -1-fermi 0-gaus

 Electronic relaxation 2 (details)
   IALGO  =     68    algorithm
   LDIAG  =      T    sub-space diagonalisation (order eigenvalues)
   LSUBROT=      F    optimize rotation matrix (better conditioning)
   TURBO    =      0    0=normal 1=particle mesh
   IRESTART =      0    0=no restart 2=restart with 2 vectors
   NREBOOT  =      0    no. of reboots
   NMIN     =      0    reboot dimension
   EREF     =   0.00    reference energy to select bands
   IMIX   =      4    mixing-type and parameters
     AMIX     =   0.40;   BMIX     =  1.00
     AMIX_MAG =   1.60;   BMIX_MAG =  1.00
     AMIN     =   0.10
     WC   =   100.;   INIMIX=   1;  MIXPRE=   1;  MAXMIX= -45

 Intra band minimization:
   WEIMIN = 0.0010     energy-eigenvalue tresh-hold
   EBREAK =  0.11E-06  absolut break condition
   DEPER  =   0.30     relativ break condition  

   TIME   =   0.40     timestep for ELM

  volume/ion in A,a.u.               =      34.49       232.77
  Fermi-wavevector in a.u.,A,eV,Ry     =   1.070385  2.022734 15.588510  1.145723
  Thomas-Fermi vector in A             =   2.206093
 
 Write flags
   LWAVE        =      F    write WAVECAR
   LDOWNSAMPLE  =      F    k-point downsampling of WAVECAR
   LCHARG       =      F    write CHGCAR
   LVTOT        =      F    write LOCPOT, total local potential
   LVHAR        =      F    write LOCPOT, Hartree potential only
   LELF         =      F    write electronic localiz. function (ELF)
   LORBIT       =      0    0 simple, 1 ext, 2 COOP (PROOUT), +10 PAW based schemes


 Dipole corrections
   LMONO  =      F    monopole corrections only (constant potential shift)
   LDIPOL =      F    correct potential (dipole corrections)
   IDIPOL =      0    1-x, 2-y, 3-z, 4-all directions 
   EPSILON=  1.0000000 bulk dielectric constant

 Exchange correlation treatment:
   GGA     =    --    GGA type
   LEXCH   =     8    internal setting for exchange type
   VOSKOWN=      0    Vosko Wilk Nusair interpolation
   LHFCALC =     F    Hartree Fock is set to
   LHFONE  =     F    Hartree Fock one center treatment
   AEXX    =    0.0000 exact exchange contribution

 Linear response parameters
   LEPSILON=     F    determine dielectric tensor
   LRPA    =     F    only Hartree local field effects (RPA)
   LNABLA  =     F    use nabla operator in PAW spheres
   LVEL    =     F    velocity operator in full k-point grid
   LINTERFAST=   F  fast interpolation
   KINTER  =     0    interpolate to denser k-point grid
   CSHIFT  =0.1000    complex shift for real part using Kramers Kronig
   OMEGAMAX=  -1.0    maximum frequency
   DEG_THRESHOLD= 0.2000000E-02 threshold for treating states as degnerate
   RTIME   =   -0.100 relaxation time in fs
  (WPLASMAI=    0.000 imaginary part of plasma frequency in eV, 0.658/RTIME)
   DFIELD  = 0.0000000 0.0000000 0.0000000 field for delta impulse in time
 
 Orbital magnetization related:
   ORBITALMAG=     F  switch on orbital magnetization
   LCHIMAG   =     F  perturbation theory with respect to B field
   DQ        =  0.001000  dq finite difference perturbation B field
   LLRAUG    =     F  two centre corrections for induced B field



--------------------------------------------------------------------------------------------------------


 quasi-Newton-method for relaxation of ions
   using selective dynamics as specified on POSCAR
 charge density and potential will be updated during run
 non-spin polarized calculation
 RMM-DIIS sequential band-by-band and
  variant of blocked Davidson during initial phase
 perform sub-space diagonalisation
    before iterative eigenvector-optimisation
 modified Broyden-mixing scheme, WC =      100.0
 initial mixing is a Kerker type mixing with AMIX =  0.4000 and BMIX =      1.0000
 Hartree-type preconditioning will be used
 using additional bands           40
 real space projection scheme for non local part
 use partial core corrections
 calculate Harris-corrections to forces 
   (improved forces if not selfconsistent)
 use gradient corrections 
 use of overlap-Matrix (Vanderbilt PP)
 Methfessel and Paxton  Order N= 1 SIGMA  =   0.20


--------------------------------------------------------------------------------------------------------


  energy-cutoff  :      450.00
  volume of cell :     1345.22
      direct lattice vectors                 reciprocal lattice vectors
     7.296955120 -4.212899000  0.000000000     0.137043463  0.000000000  0.000000000
     0.000000000  8.425798000  0.000000000     0.068521732  0.118683121  0.000000000
     0.000000000  0.000000000 21.879635000     0.000000000  0.000000000  0.045704602

  length of vectors
     8.425798004  8.425798000 21.879635000     0.137043463  0.137043463  0.045704602


 
 k-points in units of 2pi/SCALE and weight: mesh auto                               
   0.00000000  0.00000000  0.00000000       0.250
   0.06852173  0.00000000  0.00000000       0.250
   0.03426087  0.05934156  0.00000000       0.250
   0.10278260  0.05934156  0.00000000       0.250
 
 k-points in reciprocal lattice and weights: mesh auto                               
   0.00000000  0.00000000  0.00000000       0.250
   0.50000000  0.00000000  0.00000000       0.250
  -0.00000000  0.50000000  0.00000000       0.250
   0.50000000  0.50000000  0.00000000       0.250
 
 position of ions in fractional coordinates (direct lattice) 
   0.70092253  0.43359020  0.47568466
   0.91087773  0.38187098  0.46330860
   0.67278598  0.46044608  0.52557319
   0.98675500  0.32859100  0.07437600
   0.32008800  0.32859100  0.07437600
   0.65342200  0.32859100  0.07437600
   0.98675500  0.66192500  0.07437600
   0.32008800  0.66192500  0.07437600
   0.65342200  0.66192500  0.07437600
   0.32008800  0.99525800  0.07437600
   0.65342200  0.99525800  0.07437600
   0.98675500  0.99525800  0.07437600
   0.20897700  0.10636900  0.17918600
   0.54231100  0.10636900  0.17918600
   0.87564400  0.10636900  0.17918600
   0.20897700  0.43970300  0.17918600
   0.54231100  0.43970300  0.17918600
   0.87564400  0.43970300  0.17918600
   0.20897700  0.77303600  0.17918600
   0.54231100  0.77303600  0.17918600
   0.87564400  0.77303600  0.17918600
   0.09378110  0.55330359  0.28136801
   0.42830580  0.88010923  0.28132677
   0.76399735  0.21459702  0.28050648
   0.09861731  0.22140434  0.28222525
   0.43548820  0.21759376  0.27908906
   0.09582086  0.88535256  0.28268723
   0.76885900  0.88177864  0.28291244
   0.43074192  0.54872162  0.28638645
   0.76427935  0.55081619  0.28137202
   0.32562174  0.65788733  0.39039874
   0.65389198  0.99384449  0.38189846
   0.32057045  0.32710514  0.39161498
   0.98898125  0.99128866  0.38903824
   0.31950218  0.99124701  0.39062733
   0.64551604  0.32212553  0.39402925
   0.99738277  0.66530460  0.38726668
   0.98969192  0.32018653  0.39155568
   0.65830342  0.65888592  0.38946175
 
 position of ions in cartesian coordinates  (Angst):
   5.11460022  0.70042761 10.40780679
   6.64663391 -0.61986810 10.13702298
   4.90928911  1.04524628 11.49934965
   7.20030695 -1.38845776  1.62731973
   2.33566777  1.42014298  1.62731973
   4.76799101  0.01584050  1.62731973
   7.20030695  1.42014719  1.62731973
   2.33566777  4.22874793  1.62731973
   4.76799101  2.82444545  1.62731973
   2.33566777  7.03734445  1.62731973
   4.76799101  5.63304198  1.62731973
   7.20030695  4.22874371  1.62731973
   1.52489579  0.01584471  3.92052428
   3.95721903 -1.38845776  3.92052428
   6.38953497 -2.79275602  3.92052428
   1.52489579  2.82444966  3.92052428
   3.95721903  1.42014719  3.92052428
   6.38953497  0.01584893  3.92052428
   1.52489579  5.63304619  3.92052428
   3.95721903  4.22874371  3.92052428
   6.38953497  2.82444545  3.92052428
   0.68431649  4.26693400  6.15622931
   3.12532817  5.61121350  6.15532702
   5.57485439 -1.41049252  6.13737944
   0.71960606  1.45004346  6.17498535
   3.17773787 -0.00126677  6.10636674
   0.69920054  7.05611822  6.18509342
   5.61032960  4.19056337  6.19002100
   3.14310449  2.80874530  6.26603091
   5.57691209  1.42123423  6.15631699
   2.37604724  4.17141422  8.54178194
   4.77142042  5.61915203  8.35579897
   2.33918815  1.40559092  8.56839274
   7.21655183  4.18591991  8.51201464
   2.33139307  7.00601663  8.54678340
   4.71030156 -0.00532924  8.62121618
   7.27785734  1.40384929  8.47325366
   7.22173752 -1.47164504  8.56709540
   4.80361048  2.77827383  8.52128092
 


--------------------------------------------------------------------------------------------------------


 k-point  1 :   0.0000 0.0000 0.0000  plane waves:   29241
 k-point  2 :   0.5000 0.0000 0.0000  plane waves:   29108
 k-point  3 :  -0.0000 0.5000 0.0000  plane waves:   29108
 k-point  4 :   0.5000 0.5000 0.0000  plane waves:   29108

 maximum and minimum number of plane-waves per node :     14624    14548

 maximum number of plane-waves:     29241
 maximum index in each direction: 
   IXMAX=   14   IYMAX=   14   IZMAX=   37
   IXMIN=  -15   IYMIN=  -15   IZMIN=  -37


 real space projection operators:
  total allocation   :      13556.22 KBytes
  max/ min on nodes  :       6787.83       6768.39


 parallel 3D FFT for wavefunctions:
    minimum data exchange during FFTs selected (reduces bandwidth)
 parallel 3D FFT for charge:
    minimum data exchange during FFTs selected (reduces bandwidth)


 total amount of memory used by VASP MPI-rank0   131955. kBytes
=======================================================================

   base      :      30000. kBytes
   nonlr-proj:      10147. kBytes
   fftplans  :      13556. kBytes
   grid      :      23353. kBytes
   one-center:        311. kBytes
   wavefun   :      54588. kBytes
 
     INWAV:  cpu time    0.0001: real time    0.0312
 Broyden mixing: mesh for mixing (old mesh)
   NGX = 29   NGY = 29   NGZ = 75
  (NGX  = 96   NGY  = 96   NGZ  =240)
  gives a total of  63075 points

 initial charge density was supplied:
 charge density of overlapping atoms calculated
 number of electron     376.0000000 magnetization 
 keeping initial charge density in first step


--------------------------------------------------------------------------------------------------------


 Maximum index for non-local projection operator         1324
 Maximum index for augmentation-charges         1558 (set IRDMAX)


--------------------------------------------------------------------------------------------------------


 First call to EWALD:  gamma=   0.161
 Maximum number of real-space cells 4x 4x 2
 Maximum number of reciprocal cells 2x 2x 5

    FEWALD:  cpu time    0.0173: real time    0.0174


--------------------------------------- Iteration      1(   1)  ---------------------------------------


    POTLOK:  cpu time    0.1784: real time    0.9322
    SETDIJ:  cpu time    0.0173: real time    0.0174
     EDDAV:  cpu time    8.9657: real time    9.0941
       DOS:  cpu time    0.0011: real time    0.0011
    --------------------------------------------
      LOOP:  cpu time    9.1625: real time   10.0448

 eigenvalue-minimisations  :  1824
 total energy-change (2. order) : 0.2420623E+04  (-0.1594882E+05)
 number of electron     376.0000000 magnetization 
 augmentation part      376.0000000 magnetization 

 Free energy of the ion-electron system (eV)
  ---------------------------------------------------
  alpha Z        PSCENC =       975.10247152
  Ewald energy   TEWEN  =     91154.54855103
  -Hartree energ DENC   =   -120245.63241813
  -exchange      EXHF   =         0.00000000
  -V(xc)+E(xc)   XCENC  =       189.47348522
  PAW double counting   =     24789.08602224   -23775.73976456
  entropy T*S    EENTRO =         0.02886893
  eigenvalues    EBANDS =      2073.86165025
  atomic energy  EATOM  =     27259.89416086
  Solvation  Ediel_sol  =         0.00000000
  ---------------------------------------------------
  free energy    TOTEN  =      2420.62302736 eV

  energy without entropy =     2420.59415843  energy(sigma->0) =     2420.61340438


--------------------------------------------------------------------------------------------------------




--------------------------------------- Iteration      1(   2)  ---------------------------------------


     EDDAV:  cpu time   11.1080: real time   11.1788
       DOS:  cpu time    0.0072: real time    0.0073
    --------------------------------------------
      LOOP:  cpu time   11.1153: real time   11.1861

 eigenvalue-minimisations  :  2120
 total energy-change (2. order) :-0.2484145E+04  (-0.2310878E+04)
 number of electron     376.0000000 magnetization 
 augmentation part      376.0000000 magnetization 

 Free energy of the ion-electron system (eV)
  ---------------------------------------------------
  alpha Z        PSCENC =       975.10247152
  Ewald energy   TEWEN  =     91154.54855103
  -Hartree energ DENC   =   -120245.63241813
  -exchange      EXHF   =         0.00000000
  -V(xc)+E(xc)   XCENC  =       189.47348522
  PAW double counting   =     24789.08602224   -23775.73976456
  entropy T*S    EENTRO =        -0.00821267
  eigenvalues    EBANDS =      -410.24652758
  atomic energy  EATOM  =     27259.89416086
  Solvation  Ediel_sol  =         0.00000000
  ---------------------------------------------------
  free energy    TOTEN  =       -63.52223207 eV

  energy without entropy =      -63.51401940  energy(sigma->0) =      -63.51949452


--------------------------------------------------------------------------------------------------------




--------------------------------------- Iteration      1(   3)  ---------------------------------------


     EDDAV:  cpu time   11.4061: real time   11.4769
       DOS:  cpu time    0.0011: real time    0.0011
    --------------------------------------------
      LOOP:  cpu time   11.4072: real time   11.4780

 eigenvalue-minimisations  :  2192
 total energy-change (2. order) :-0.1772742E+03  (-0.1610013E+03)
 number of electron     376.0000000 magnetization 
 augmentation part      376.0000000 magnetization 

 Free energy of the ion-electron system (eV)
  ---------------------------------------------------
  alpha Z        PSCENC =       975.10247152
  Ewald energy   TEWEN  =     91154.54855103
  -Hartree energ DENC   =   -120245.63241813
  -exchange      EXHF   =         0.00000000
  -V(xc)+E(xc)   XCENC  =       189.47348522
  PAW double counting   =     24789.08602224   -23775.73976456
  entropy T*S    EENTRO =        -0.00801458
  eigenvalues    EBANDS =      -587.52093683
  atomic energy  EATOM  =     27259.89416086
  Solvation  Ediel_sol  =         0.00000000
  ---------------------------------------------------
  free energy    TOTEN  =      -240.79644323 eV

  energy without entropy =     -240.78842865  energy(sigma->0) =     -240.79377170


--------------------------------------------------------------------------------------------------------




--------------------------------------- Iteration      1(   4)  ---------------------------------------


     EDDAV:  cpu time   11.1463: real time   11.2155
       DOS:  cpu time    0.0011: real time    0.0011
    --------------------------------------------
      LOOP:  cpu time   11.1474: real time   11.2165

 eigenvalue-minimisations  :  2352
 total energy-change (2. order) :-0.7435249E+01  (-0.7165827E+01)
 number of electron     376.0000000 magnetization 
 augmentation part      376.0000000 magnetization 

 Free energy of the ion-electron system (eV)
  ---------------------------------------------------
  alpha Z        PSCENC =       975.10247152
  Ewald energy   TEWEN  =     91154.54855103
  -Hartree energ DENC   =   -120245.63241813
  -exchange      EXHF   =         0.00000000
  -V(xc)+E(xc)   XCENC  =       189.47348522
  PAW double counting   =     24789.08602224   -23775.73976456
  entropy T*S    EENTRO =        -0.00619349
  eigenvalues    EBANDS =      -594.95800695
  atomic energy  EATOM  =     27259.89416086
  Solvation  Ediel_sol  =         0.00000000
  ---------------------------------------------------
  free energy    TOTEN  =      -248.23169226 eV

  energy without entropy =     -248.22549877  energy(sigma->0) =     -248.22962776


--------------------------------------------------------------------------------------------------------




--------------------------------------- Iteration      1(   5)  ---------------------------------------


     EDDAV:  cpu time   13.5746: real time   13.6611
       DOS:  cpu time    0.0103: real time    0.0104
    CHARGE:  cpu time    0.4795: real time    0.4822
    MIXING:  cpu time    0.0089: real time    0.0090
    --------------------------------------------
      LOOP:  cpu time   14.0733: real time   14.1627

 eigenvalue-minimisations  :  2328
 total energy-change (2. order) :-0.2112873E+00  (-0.2098787E+00)
 number of electron     376.0000017 magnetization 
 augmentation part      105.8158594 magnetization 

 Broyden mixing:
  rms(total) = 0.27397E+01    rms(broyden)= 0.27393E+01
  rms(prec ) = 0.30544E+01
  weight for this iteration     100.00

 Free energy of the ion-electron system (eV)
  ---------------------------------------------------
  alpha Z        PSCENC =       975.10247152
  Ewald energy   TEWEN  =     91154.54855103
  -Hartree energ DENC   =   -120245.63241813
  -exchange      EXHF   =         0.00000000
  -V(xc)+E(xc)   XCENC  =       189.47348522
  PAW double counting   =     24789.08602224   -23775.73976456
  entropy T*S    EENTRO =        -0.00576181
  eigenvalues    EBANDS =      -595.16972591
  atomic energy  EATOM  =     27259.89416086
  Solvation  Ediel_sol  =         0.00000000
  ---------------------------------------------------
  free energy    TOTEN  =      -248.44297954 eV

  energy without entropy =     -248.43721773  energy(sigma->0) =     -248.44105894


--------------------------------------------------------------------------------------------------------




--------------------------------------- Iteration      1(   6)  ---------------------------------------


    POTLOK:  cpu time    0.1335: real time    0.1343
    SETDIJ:  cpu time    0.0119: real time    0.0120
    EDDIAG:  cpu time    1.5509: real time    1.5605
  RMM-DIIS:  cpu time    4.9370: real time    4.9694
    ORTHCH:  cpu time    0.2369: real time    0.2383
       DOS:  cpu time    0.0011: real time    0.0011
    CHARGE:  cpu time    0.4366: real time    0.4395
    MIXING:  cpu time    0.0059: real time    0.0060
    --------------------------------------------
      LOOP:  cpu time    7.3139: real time    7.3611

 eigenvalue-minimisations  :  1831
 total energy-change (2. order) : 0.2085658E+01  (-0.5554443E+01)
 number of electron     376.0000023 magnetization 
 augmentation part      112.8864549 magnetization 

 Broyden mixing:
  rms(total) = 0.28503E+01    rms(broyden)= 0.28493E+01
  rms(prec ) = 0.39058E+01
  weight for this iteration     100.00

 eigenvalues of (default mixing * dielectric matrix)
  average eigenvalue GAMMA=   0.5025
  0.5025

 Free energy of the ion-electron system (eV)
  ---------------------------------------------------
  alpha Z        PSCENC =       975.10247152
  Ewald energy   TEWEN  =     91154.54855103
  -Hartree energ DENC   =   -119780.56311464
  -exchange      EXHF   =         0.00000000
  -V(xc)+E(xc)   XCENC  =       182.34993174
  PAW double counting   =     26715.06709917   -25755.28676619
  entropy T*S    EENTRO =        -0.21617292
  eigenvalues    EBANDS =      -997.25348194
  atomic energy  EATOM  =     27259.89416086
  Solvation  Ediel_sol  =         0.00000000
  ---------------------------------------------------
  free energy    TOTEN  =      -246.35732136 eV

  energy without entropy =     -246.14114844  energy(sigma->0) =     -246.28526372


--------------------------------------------------------------------------------------------------------




--------------------------------------- Iteration      1(   7)  ---------------------------------------


    POTLOK:  cpu time    0.1388: real time    0.1398
    SETDIJ:  cpu time    0.0101: real time    0.0102
    EDDIAG:  cpu time    1.4565: real time    1.4657
  RMM-DIIS:  cpu time    4.4333: real time    4.4605
    ORTHCH:  cpu time    0.2372: real time    0.2384
       DOS:  cpu time    0.0012: real time    0.0012
    CHARGE:  cpu time    0.5286: real time    0.5316
    MIXING:  cpu time    0.0132: real time    0.0133
    --------------------------------------------
      LOOP:  cpu time    6.8190: real time    6.8608

 eigenvalue-minimisations  :  1826
 total energy-change (2. order) : 0.2898017E+01  (-0.3267274E+01)
 number of electron     376.0000017 magnetization 
 augmentation part      111.4091679 magnetization 

 Broyden mixing:
  rms(total) = 0.20251E+01    rms(broyden)= 0.20242E+01
  rms(prec ) = 0.34221E+01
  weight for this iteration     100.00

 eigenvalues of (default mixing * dielectric matrix)
  average eigenvalue GAMMA=   0.5919
  0.9336  0.2502

 Free energy of the ion-electron system (eV)
  ---------------------------------------------------
  alpha Z        PSCENC =       975.10247152
  Ewald energy   TEWEN  =     91154.54855103
  -Hartree energ DENC   =   -119964.17766733
  -exchange      EXHF   =         0.00000000
  -V(xc)+E(xc)   XCENC  =       180.05057112
  PAW double counting   =     27361.27619162   -26408.90102059
  entropy T*S    EENTRO =        -0.10850027
  eigenvalues    EBANDS =      -801.14406205
  atomic energy  EATOM  =     27259.89416086
  Solvation  Ediel_sol  =         0.00000000
  ---------------------------------------------------
  free energy    TOTEN  =      -243.45930408 eV

  energy without entropy =     -243.35080380  energy(sigma->0) =     -243.42313732


--------------------------------------------------------------------------------------------------------




--------------------------------------- Iteration      1(   8)  ---------------------------------------


    POTLOK:  cpu time    0.1872: real time    0.1884
    SETDIJ:  cpu time    0.0142: real time    0.0143
    EDDIAG:  cpu time    1.9823: real time    1.9949
  RMM-DIIS:  cpu time    6.8854: real time    6.9293
    ORTHCH:  cpu time    0.2784: real time    0.2804
       DOS:  cpu time    0.0012: real time    0.0012
    CHARGE:  cpu time    0.8916: real time    0.8972
    MIXING:  cpu time    0.0059: real time    0.0059
    --------------------------------------------
      LOOP:  cpu time   10.2462: real time   10.3115

 eigenvalue-minimisations  :  1830
 total energy-change (2. order) : 0.7612378E+00  (-0.9260679E+00)
 number of electron     376.0000032 magnetization 
 augmentation part      112.1082692 magnetization 

 Broyden mixing:
  rms(total) = 0.21810E+01    rms(broyden)= 0.21809E+01
  rms(prec ) = 0.38449E+01
  weight for this iteration     100.00

 eigenvalues of (default mixing * dielectric matrix)
  average eigenvalue GAMMA=   0.5440
  1.1877  0.2909  0.1535

 Free energy of the ion-electron system (eV)
  ---------------------------------------------------
  alpha Z        PSCENC =       975.10247152
  Ewald energy   TEWEN  =     91154.54855103
  -Hartree energ DENC   =   -119939.58255211
  -exchange      EXHF   =         0.00000000
  -V(xc)+E(xc)   XCENC  =       179.06059777
  PAW double counting   =     28016.39993643   -27074.30253361
  entropy T*S    EENTRO =        -0.05847967
  eigenvalues    EBANDS =      -813.76021852
  atomic energy  EATOM  =     27259.89416086
  Solvation  Ediel_sol  =         0.00000000
  ---------------------------------------------------
  free energy    TOTEN  =      -242.69806630 eV

  energy without entropy =     -242.63958664  energy(sigma->0) =     -242.67857308


--------------------------------------------------------------------------------------------------------




--------------------------------------- Iteration      1(   9)  ---------------------------------------


    POTLOK:  cpu time    0.1767: real time    0.1780
    SETDIJ:  cpu time    0.0134: real time    0.0135
    EDDIAG:  cpu time    2.2616: real time    2.2764
  RMM-DIIS:  cpu time    5.9198: real time    5.9563
    ORTHCH:  cpu time    0.2328: real time    0.2341
       DOS:  cpu time    0.0011: real time    0.0011
    CHARGE:  cpu time    0.4592: real time    0.4618
    MIXING:  cpu time    0.0053: real time    0.0053
    --------------------------------------------
      LOOP:  cpu time    9.0699: real time    9.1263

 eigenvalue-minimisations  :  1831
 total energy-change (2. order) : 0.1136847E+02  (-0.4875471E+00)
 number of electron     376.0000022 magnetization 
 augmentation part      112.7100477 magnetization 

 Broyden mixing:
  rms(total) = 0.72858E+00    rms(broyden)= 0.72844E+00
  rms(prec ) = 0.10095E+01
  weight for this iteration     100.00

 eigenvalues of (default mixing * dielectric matrix)
  average eigenvalue GAMMA=   0.5519
  1.3175  0.4089  0.3432  0.1380

 Free energy of the ion-electron system (eV)
  ---------------------------------------------------
  alpha Z        PSCENC =       975.10247152
  Ewald energy   TEWEN  =     91154.54855103
  -Hartree energ DENC   =   -119871.41712799
  -exchange      EXHF   =         0.00000000
  -V(xc)+E(xc)   XCENC  =       178.37716790
  PAW double counting   =     28700.16084561   -27768.65262436
  entropy T*S    EENTRO =        -0.03520984
  eigenvalues    EBANDS =      -859.30783109
  atomic energy  EATOM  =     27259.89416086
  Solvation  Ediel_sol  =         0.00000000
  ---------------------------------------------------
  free energy    TOTEN  =      -231.32959636 eV

  energy without entropy =     -231.29438651  energy(sigma->0) =     -231.31785974


--------------------------------------------------------------------------------------------------------




--------------------------------------- Iteration      1(  10)  ---------------------------------------


    POTLOK:  cpu time    0.1410: real time    0.1420
    SETDIJ:  cpu time    0.0127: real time    0.0128
    EDDIAG:  cpu time    1.5632: real time    1.5722
  RMM-DIIS:  cpu time    5.9801: real time    6.0173
    ORTHCH:  cpu time    0.2499: real time    0.2513
       DOS:  cpu time    0.0011: real time    0.0011
    CHARGE:  cpu time    0.4957: real time    0.4985
    MIXING:  cpu time    0.0073: real time    0.0073
    --------------------------------------------
      LOOP:  cpu time    8.4511: real time    8.5027

 eigenvalue-minimisations  :  1831
 total energy-change (2. order) : 0.8472085E+00  (-0.1157346E+00)
 number of electron     376.0000022 magnetization 
 augmentation part      112.8366777 magnetization 

 Broyden mixing:
  rms(total) = 0.39677E+00    rms(broyden)= 0.39664E+00
  rms(prec ) = 0.50755E+00
  weight for this iteration     100.00

 eigenvalues of (default mixing * dielectric matrix)
  average eigenvalue GAMMA=   0.5648
  1.4049  0.5554  0.1387  0.4420  0.2832

 Free energy of the ion-electron system (eV)
  ---------------------------------------------------
  alpha Z        PSCENC =       975.10247152
  Ewald energy   TEWEN  =     91154.54855103
  -Hartree energ DENC   =   -119872.19205970
  -exchange      EXHF   =         0.00000000
  -V(xc)+E(xc)   XCENC  =       178.27206204
  PAW double counting   =     29074.82818352   -28148.39663543
  entropy T*S    EENTRO =        -0.01592819
  eigenvalues    EBANDS =      -852.52319350
  atomic energy  EATOM  =     27259.89416086
  Solvation  Ediel_sol  =         0.00000000
  ---------------------------------------------------
  free energy    TOTEN  =      -230.48238783 eV

  energy without entropy =     -230.46645965  energy(sigma->0) =     -230.47707844


--------------------------------------------------------------------------------------------------------




--------------------------------------- Iteration      1(  11)  ---------------------------------------


    POTLOK:  cpu time    0.1451: real time    0.1459
    SETDIJ:  cpu time    0.0119: real time    0.0119
    EDDIAG:  cpu time    1.6034: real time    1.6126
  RMM-DIIS:  cpu time    5.5012: real time    5.5358
    ORTHCH:  cpu time    0.2324: real time    0.2337
       DOS:  cpu time    0.0011: real time    0.0011
    CHARGE:  cpu time    0.4846: real time    0.4872
    MIXING:  cpu time    0.0068: real time    0.0068
    --------------------------------------------
      LOOP:  cpu time    7.9864: real time    8.0352

 eigenvalue-minimisations  :  1832
 total energy-change (2. order) : 0.1914627E+00  (-0.3537950E-01)
 number of electron     376.0000022 magnetization 
 augmentation part      112.9427922 magnetization 

 Broyden mixing:
  rms(total) = 0.27915E+00    rms(broyden)= 0.27905E+00
  rms(prec ) = 0.32994E+00
  weight for this iteration     100.00

 eigenvalues of (default mixing * dielectric matrix)
  average eigenvalue GAMMA=   0.6106
  1.5832  0.8927  0.4468  0.1387  0.3556  0.2465

 Free energy of the ion-electron system (eV)
  ---------------------------------------------------
  alpha Z        PSCENC =       975.10247152
  Ewald energy   TEWEN  =     91154.54855103
  -Hartree energ DENC   =   -119862.34240753
  -exchange      EXHF   =         0.00000000
  -V(xc)+E(xc)   XCENC  =       178.22811491
  PAW double counting   =     29345.18439556   -28422.16990435
  entropy T*S    EENTRO =        -0.03724344
  eigenvalues    EBANDS =      -858.69906367
  atomic energy  EATOM  =     27259.89416086
  Solvation  Ediel_sol  =         0.00000000
  ---------------------------------------------------
  free energy    TOTEN  =      -230.29092511 eV

  energy without entropy =     -230.25368167  energy(sigma->0) =     -230.27851063


--------------------------------------------------------------------------------------------------------




--------------------------------------- Iteration      1(  12)  ---------------------------------------


    POTLOK:  cpu time    0.1422: real time    0.1430
    SETDIJ:  cpu time    0.0122: real time    0.0123
    EDDIAG:  cpu time    1.6375: real time    1.6473
  RMM-DIIS:  cpu time    6.2913: real time    6.3303
    ORTHCH:  cpu time    0.2756: real time    0.2775
       DOS:  cpu time    0.0012: real time    0.0012
    CHARGE:  cpu time    0.4985: real time    0.5018
    MIXING:  cpu time    0.0075: real time    0.0075
    --------------------------------------------
      LOOP:  cpu time    8.8660: real time    8.9209

 eigenvalue-minimisations  :  1841
 total energy-change (2. order) : 0.6811074E-01  (-0.1974322E-01)
 number of electron     376.0000021 magnetization 
 augmentation part      112.9932319 magnetization 

 Broyden mixing:
  rms(total) = 0.19912E+00    rms(broyden)= 0.19909E+00
  rms(prec ) = 0.24215E+00
  weight for this iteration     100.00

 eigenvalues of (default mixing * dielectric matrix)
  average eigenvalue GAMMA=   0.7041
  2.0474  1.1042  0.6401  0.4860  0.1385  0.2841  0.2288

 Free energy of the ion-electron system (eV)
  ---------------------------------------------------
  alpha Z        PSCENC =       975.10247152
  Ewald energy   TEWEN  =     91154.54855103
  -Hartree energ DENC   =   -119854.98120095
  -exchange      EXHF   =         0.00000000
  -V(xc)+E(xc)   XCENC  =       178.16138084
  PAW double counting   =     29619.12892703   -28699.45356960
  entropy T*S    EENTRO =        -0.03447867
  eigenvalues    EBANDS =      -862.58905643
  atomic energy  EATOM  =     27259.89416086
  Solvation  Ediel_sol  =         0.00000000
  ---------------------------------------------------
  free energy    TOTEN  =      -230.22281437 eV

  energy without entropy =     -230.18833570  energy(sigma->0) =     -230.21132148


--------------------------------------------------------------------------------------------------------




--------------------------------------- Iteration      1(  13)  ---------------------------------------


    POTLOK:  cpu time    0.1681: real time    0.1692
    SETDIJ:  cpu time    0.0120: real time    0.0121
    EDDIAG:  cpu time    1.9235: real time    1.9358
  RMM-DIIS:  cpu time    6.2121: real time    6.2535
    ORTHCH:  cpu time    0.2479: real time    0.2494
       DOS:  cpu time    0.0012: real time    0.0012
    CHARGE:  cpu time    0.4781: real time    0.4811
    MIXING:  cpu time    0.0067: real time    0.0068
    --------------------------------------------
      LOOP:  cpu time    9.0497: real time    9.1091

 eigenvalue-minimisations  :  1832
 total energy-change (2. order) : 0.2418282E-01  (-0.1109403E-01)
 number of electron     376.0000021 magnetization 
 augmentation part      112.9998444 magnetization 

 Broyden mixing:
  rms(total) = 0.15490E+00    rms(broyden)= 0.15489E+00
  rms(prec ) = 0.20206E+00
  weight for this iteration     100.00

 eigenvalues of (default mixing * dielectric matrix)
  average eigenvalue GAMMA=   0.7218
  2.2531  1.1459  0.8635  0.4884  0.1386  0.3737  0.2907  0.2204

 Free energy of the ion-electron system (eV)
  ---------------------------------------------------
  alpha Z        PSCENC =       975.10247152
  Ewald energy   TEWEN  =     91154.54855103
  -Hartree energ DENC   =   -119859.88502983
  -exchange      EXHF   =         0.00000000
  -V(xc)+E(xc)   XCENC  =       178.05547821
  PAW double counting   =     29915.99526230   -28999.87541035
  entropy T*S    EENTRO =        -0.04660852
  eigenvalues    EBANDS =      -853.98750680
  atomic energy  EATOM  =     27259.89416086
  Solvation  Ediel_sol  =         0.00000000
  ---------------------------------------------------
  free energy    TOTEN  =      -230.19863156 eV

  energy without entropy =     -230.15202304  energy(sigma->0) =     -230.18309538


--------------------------------------------------------------------------------------------------------




--------------------------------------- Iteration      1(  14)  ---------------------------------------


    POTLOK:  cpu time    0.1557: real time    0.1569
    SETDIJ:  cpu time    0.0114: real time    0.0115
    EDDIAG:  cpu time    1.7315: real time    1.7417
  RMM-DIIS:  cpu time    5.4941: real time    5.5277
    ORTHCH:  cpu time    0.2381: real time    0.2395
       DOS:  cpu time    0.0012: real time    0.0012
    CHARGE:  cpu time    0.4326: real time    0.4351
    MIXING:  cpu time    0.0069: real time    0.0070
    --------------------------------------------
      LOOP:  cpu time    8.0715: real time    8.1204

 eigenvalue-minimisations  :  1831
 total energy-change (2. order) : 0.3093825E-01  (-0.6674780E-02)
 number of electron     376.0000022 magnetization 
 augmentation part      112.9679344 magnetization 

 Broyden mixing:
  rms(total) = 0.74256E-01    rms(broyden)= 0.74192E-01
  rms(prec ) = 0.10028E+00
  weight for this iteration     100.00

 eigenvalues of (default mixing * dielectric matrix)
  average eigenvalue GAMMA=   0.7279
  2.3807  1.2101  0.8988  0.6214  0.4851  0.1386  0.2988  0.2988  0.2189

 Free energy of the ion-electron system (eV)
  ---------------------------------------------------
  alpha Z        PSCENC =       975.10247152
  Ewald energy   TEWEN  =     91154.54855103
  -Hartree energ DENC   =   -119863.22985588
  -exchange      EXHF   =         0.00000000
  -V(xc)+E(xc)   XCENC  =       178.00725894
  PAW double counting   =     30030.93687857   -29116.10185860
  entropy T*S    EENTRO =        -0.03419498
  eigenvalues    EBANDS =      -849.29110479
  atomic energy  EATOM  =     27259.89416086
  Solvation  Ediel_sol  =         0.00000000
  ---------------------------------------------------
  free energy    TOTEN  =      -230.16769331 eV

  energy without entropy =     -230.13349833  energy(sigma->0) =     -230.15629499


--------------------------------------------------------------------------------------------------------




--------------------------------------- Iteration      1(  15)  ---------------------------------------


    POTLOK:  cpu time    0.1449: real time    0.1460
    SETDIJ:  cpu time    0.0114: real time    0.0115
    EDDIAG:  cpu time    1.6587: real time    1.6689
  RMM-DIIS:  cpu time    5.3885: real time    5.4217
    ORTHCH:  cpu time    0.2440: real time    0.2454
       DOS:  cpu time    0.0012: real time    0.0013
    CHARGE:  cpu time    0.5335: real time    0.5366
    MIXING:  cpu time    0.0066: real time    0.1640
    --------------------------------------------
      LOOP:  cpu time    7.9888: real time    8.1953

 eigenvalue-minimisations  :  1831
 total energy-change (2. order) : 0.4013213E-02  (-0.1513932E-02)
 number of electron     376.0000021 magnetization 
 augmentation part      112.9727495 magnetization 

 Broyden mixing:
  rms(total) = 0.54569E-01    rms(broyden)= 0.54564E-01
  rms(prec ) = 0.67087E-01
  weight for this iteration     100.00

 eigenvalues of (default mixing * dielectric matrix)
  average eigenvalue GAMMA=   0.7023
  2.4450  1.2533  0.8619  0.7252  0.4908  0.1386  0.3367  0.2187  0.2866  0.2664

 Free energy of the ion-electron system (eV)
  ---------------------------------------------------
  alpha Z        PSCENC =       975.10247152
  Ewald energy   TEWEN  =     91154.54855103
  -Hartree energ DENC   =   -119864.57825527
  -exchange      EXHF   =         0.00000000
  -V(xc)+E(xc)   XCENC  =       178.01739121
  PAW double counting   =     30077.50759481   -29163.14881825
  entropy T*S    EENTRO =        -0.04011788
  eigenvalues    EBANDS =      -847.46665814
  atomic energy  EATOM  =     27259.89416086
  Solvation  Ediel_sol  =         0.00000000
  ---------------------------------------------------
  free energy    TOTEN  =      -230.16368010 eV

  energy without entropy =     -230.12356222  energy(sigma->0) =     -230.15030747


--------------------------------------------------------------------------------------------------------




--------------------------------------- Iteration      1(  16)  ---------------------------------------


    POTLOK:  cpu time    0.1484: real time    0.1502
    SETDIJ:  cpu time    0.0122: real time    0.0123
    EDDIAG:  cpu time    1.9967: real time    2.0133
  RMM-DIIS:  cpu time    7.3064: real time    7.3602
    ORTHCH:  cpu time    0.2332: real time    0.2345
       DOS:  cpu time    0.0012: real time    0.0012
    CHARGE:  cpu time    0.4835: real time    0.4861
    MIXING:  cpu time    0.0080: real time    0.0080
    --------------------------------------------
      LOOP:  cpu time   10.1896: real time   10.2659

 eigenvalue-minimisations  :  1832
 total energy-change (2. order) : 0.4577328E-02  (-0.4828829E-03)
 number of electron     376.0000021 magnetization 
 augmentation part      112.9706462 magnetization 

 Broyden mixing:
  rms(total) = 0.19144E-01    rms(broyden)= 0.19140E-01
  rms(prec ) = 0.22902E-01
  weight for this iteration     100.00

 eigenvalues of (default mixing * dielectric matrix)
  average eigenvalue GAMMA=   0.6993
  2.4495  1.2495  0.8843  0.7167  0.7167  0.4635  0.1386  0.3302  0.2895  0.2171
  0.2367

 Free energy of the ion-electron system (eV)
  ---------------------------------------------------
  alpha Z        PSCENC =       975.10247152
  Ewald energy   TEWEN  =     91154.54855103
  -Hartree energ DENC   =   -119864.86776012
  -exchange      EXHF   =         0.00000000
  -V(xc)+E(xc)   XCENC  =       178.02336289
  PAW double counting   =     30093.82658622   -29179.61054851
  entropy T*S    EENTRO =        -0.03864898
  eigenvalues    EBANDS =      -847.03727768
  atomic energy  EATOM  =     27259.89416086
  Solvation  Ediel_sol  =         0.00000000
  ---------------------------------------------------
  free energy    TOTEN  =      -230.15910277 eV

  energy without entropy =     -230.12045379  energy(sigma->0) =     -230.14621978


--------------------------------------------------------------------------------------------------------




--------------------------------------- Iteration      1(  17)  ---------------------------------------


    POTLOK:  cpu time    0.1431: real time    0.1439
    SETDIJ:  cpu time    0.0131: real time    0.0132
    EDDIAG:  cpu time    1.5755: real time    1.5844
  RMM-DIIS:  cpu time    5.3716: real time    5.4061
    ORTHCH:  cpu time    0.2178: real time    0.2190
       DOS:  cpu time    0.0012: real time    0.0012
    CHARGE:  cpu time    0.4367: real time    0.4391
    MIXING:  cpu time    0.0071: real time    0.0072
    --------------------------------------------
      LOOP:  cpu time    7.7661: real time    7.8140

 eigenvalue-minimisations  :  1820
 total energy-change (2. order) : 0.1699594E-03  (-0.1197203E-03)
 number of electron     376.0000021 magnetization 
 augmentation part      112.9716091 magnetization 

 Broyden mixing:
  rms(total) = 0.13065E-01    rms(broyden)= 0.13061E-01
  rms(prec ) = 0.16133E-01
  weight for this iteration     100.00

 eigenvalues of (default mixing * dielectric matrix)
  average eigenvalue GAMMA=   0.7685
  2.5145  1.7643  1.2630  0.8654  0.7925  0.4900  0.1386  0.3457  0.3126  0.2899
  0.2165  0.2289

 Free energy of the ion-electron system (eV)
  ---------------------------------------------------
  alpha Z        PSCENC =       975.10247152
  Ewald energy   TEWEN  =     91154.54855103
  -Hartree energ DENC   =   -119865.54915405
  -exchange      EXHF   =         0.00000000
  -V(xc)+E(xc)   XCENC  =       178.03137850
  PAW double counting   =     30094.90037632   -29180.65938875
  entropy T*S    EENTRO =        -0.03947309
  eigenvalues    EBANDS =      -846.38785515
  atomic energy  EATOM  =     27259.89416086
  Solvation  Ediel_sol  =         0.00000000
  ---------------------------------------------------
  free energy    TOTEN  =      -230.15893281 eV

  energy without entropy =     -230.11945972  energy(sigma->0) =     -230.14577511


--------------------------------------------------------------------------------------------------------




--------------------------------------- Iteration      1(  18)  ---------------------------------------


    POTLOK:  cpu time    0.1305: real time    0.1313
    SETDIJ:  cpu time    0.0108: real time    0.0109
    EDDIAG:  cpu time    1.3550: real time    1.3626
  RMM-DIIS:  cpu time    4.0605: real time    4.0855
    ORTHCH:  cpu time    0.2080: real time    0.2092
       DOS:  cpu time    0.0012: real time    0.0012
    CHARGE:  cpu time    0.3919: real time    0.3941
    MIXING:  cpu time    0.0074: real time    0.0074
    --------------------------------------------
      LOOP:  cpu time    6.1653: real time    6.2021

 eigenvalue-minimisations  :  1661
 total energy-change (2. order) :-0.1783584E-03  (-0.6492943E-04)
 number of electron     376.0000021 magnetization 
 augmentation part      112.9701245 magnetization 

 Broyden mixing:
  rms(total) = 0.10091E-01    rms(broyden)= 0.10089E-01
  rms(prec ) = 0.12985E-01
  weight for this iteration     100.00

 eigenvalues of (default mixing * dielectric matrix)
  average eigenvalue GAMMA=   0.7512
  2.5568  1.9480  1.2593  0.8229  0.8229  0.4950  0.1386  0.3578  0.3578  0.2916
  0.2710  0.2164  0.2269

 Free energy of the ion-electron system (eV)
  ---------------------------------------------------
  alpha Z        PSCENC =       975.10247152
  Ewald energy   TEWEN  =     91154.54855103
  -Hartree energ DENC   =   -119867.47797006
  -exchange      EXHF   =         0.00000000
  -V(xc)+E(xc)   XCENC  =       178.04554601
  PAW double counting   =     30097.92620738   -29183.63461977
  entropy T*S    EENTRO =        -0.03970224
  eigenvalues    EBANDS =      -844.52375589
  atomic energy  EATOM  =     27259.89416086
  Solvation  Ediel_sol  =         0.00000000
  ---------------------------------------------------
  free energy    TOTEN  =      -230.15911117 eV

  energy without entropy =     -230.11940892  energy(sigma->0) =     -230.14587709


--------------------------------------------------------------------------------------------------------




--------------------------------------- Iteration      1(  19)  ---------------------------------------


    POTLOK:  cpu time    0.1358: real time    0.1365
    SETDIJ:  cpu time    0.0179: real time    0.0180
    EDDIAG:  cpu time    1.2485: real time    1.2555
  RMM-DIIS:  cpu time    2.9272: real time    2.9455
    ORTHCH:  cpu time    0.2960: real time    0.2976
       DOS:  cpu time    0.0011: real time    0.0011
    --------------------------------------------
      LOOP:  cpu time    4.6265: real time    4.6542

 eigenvalue-minimisations  :  1038
 total energy-change (2. order) : 0.7155713E-04  (-0.1980860E-04)
 number of electron     376.0000021 magnetization 
 augmentation part      112.9701245 magnetization 

 Free energy of the ion-electron system (eV)
  ---------------------------------------------------
  alpha Z        PSCENC =       975.10247152
  Ewald energy   TEWEN  =     91154.54855103
  -Hartree energ DENC   =   -119868.05531591
  -exchange      EXHF   =         0.00000000
  -V(xc)+E(xc)   XCENC  =       178.04873689
  PAW double counting   =     30098.14231353   -29183.83318226
  entropy T*S    EENTRO =        -0.03978309
  eigenvalues    EBANDS =      -843.96699220
  atomic energy  EATOM  =     27259.89416086
  Solvation  Ediel_sol  =         0.00000000
  ---------------------------------------------------
  free energy    TOTEN  =      -230.15903961 eV

  energy without entropy =     -230.11925652  energy(sigma->0) =     -230.14577858


--------------------------------------------------------------------------------------------------------




 average (electrostatic) potential at core
  the test charge radii are     0.6991  0.7215  1.2059
  (the norm of the test charge is              1.0000)
       1 -56.3710       2 -74.8492       3 -76.3939       4 -72.3009       5 -72.3122
       6 -72.2908       7 -72.3026       8 -72.3221       9 -72.3257      10 -72.2998
      11 -72.3154      12 -72.3087      13 -72.8896      14 -73.0319      15 -72.9591
      16 -72.9604      17 -72.9969      18 -73.0018      19 -73.0139      20 -72.9521
      21 -72.9840      22 -72.9339      23 -72.9444      24 -72.9525      25 -72.9189
      26 -72.9369      27 -73.0070      28 -72.9782      29 -72.8792      30 -72.9071
      31 -72.2263      32 -72.4402      33 -72.3038      34 -72.3491      35 -72.2418
      36 -73.2382      37 -72.4590      38 -73.3127      39 -72.3278
 
 
 
 E-fermi :   1.1187     XC(G=0):  -6.6324     alpha+bet : -6.8913


 k-point     1 :       0.0000    0.0000    0.0000
  band No.  band energies     occupation 
      1     -22.2392      2.00000
      2     -17.1638      2.00000
      3      -8.7084      2.00000
      4      -8.1160      2.00000
      5      -6.7476      2.00000
      6      -6.0363      2.00000
      7      -5.8677      2.00000
      8      -5.7457      2.00000
      9      -5.6724      2.00000
     10      -5.6686      2.00000
     11      -5.6510      2.00000
     12      -5.6285      2.00000
     13      -5.5878      2.00000
     14      -5.5700      2.00000
     15      -5.4979      2.00000
     16      -5.2857      2.00000
     17      -5.0847      2.00000
     18      -5.0653      2.00000
     19      -5.0478      2.00000
     20      -5.0106      2.00000
     21      -4.9896      2.00000
     22      -4.9561      2.00000
     23      -4.6681      2.00000
     24      -4.6070      2.00000
     25      -4.5330      2.00000
     26      -4.5180      2.00000
     27      -4.5023      2.00000
     28      -4.4677      2.00000
     29      -4.4000      2.00000
     30      -4.3799      2.00000
     31      -4.3209      2.00000
     32      -4.2990      2.00000
     33      -4.2628      2.00000
     34      -4.2122      2.00000
     35      -4.1472      2.00000
     36      -4.1218      2.00000
     37      -4.1148      2.00000
     38      -4.0904      2.00000
     39      -4.0696      2.00000
     40      -4.0591      2.00000
     41      -4.0495      2.00000
     42      -4.0393      2.00000
     43      -4.0115      2.00000
     44      -3.9937      2.00000
     45      -3.9679      2.00000
     46      -3.9241      2.00000
     47      -3.7228      2.00000
     48      -3.5014      2.00000
     49      -3.4585      2.00000
     50      -3.3994      2.00000
     51      -3.3845      2.00000
     52      -3.3499      2.00000
     53      -3.3251      2.00000
     54      -3.2999      2.00000
     55      -3.2680      2.00000
     56      -3.2572      2.00000
     57      -3.2243      2.00000
     58      -3.2084      2.00000
     59      -3.1612      2.00000
     60      -3.0780      2.00000
     61      -3.0221      2.00000
     62      -2.9788      2.00000
     63      -2.8758      2.00000
     64      -2.6104      2.00000
     65      -2.5628      2.00000
     66      -2.5429      2.00000
     67      -2.5283      2.00000
     68      -2.5005      2.00000
     69      -2.4612      2.00000
     70      -2.4587      2.00000
     71      -2.3950      2.00000
     72      -2.3854      2.00000
     73      -2.3830      2.00000
     74      -2.3723      2.00000
     75      -2.3565      2.00000
     76      -2.3491      2.00000
     77      -2.3268      2.00000
     78      -2.3126      2.00000
     79      -2.3086      2.00000
     80      -2.2978      2.00000
     81      -2.2789      2.00000
     82      -2.2761      2.00000
     83      -2.2550      2.00000
     84      -2.2388      2.00000
     85      -2.2318      2.00000
     86      -2.1338      2.00000
     87      -2.1267      2.00000
     88      -2.0907      2.00000
     89      -2.0473      2.00000
     90      -2.0306      2.00000
     91      -1.9930      2.00000
     92      -1.9903      2.00000
     93      -1.9682      2.00000
     94      -1.9410      2.00000
     95      -1.9211      2.00000
     96      -1.8975      2.00000
     97      -1.8684      2.00000
     98      -1.7926      2.00000
     99      -1.7897      2.00000
    100      -1.7338      2.00000
    101      -1.6373      2.00000
    102      -1.6196      2.00000
    103      -1.6071      2.00000
    104      -1.5719      2.00000
    105      -1.5346      2.00000
    106      -1.5334      2.00000
    107      -1.5195      2.00000
    108      -1.4832      2.00000
    109      -1.4778      2.00000
    110      -1.4754      2.00000
    111      -1.4609      2.00000
    112      -1.4082      2.00000
    113      -1.3949      2.00000
    114      -1.2714      2.00000
    115      -1.1820      2.00000
    116      -1.0971      2.00000
    117      -1.0236      2.00000
    118      -1.0013      2.00000
    119      -0.9637      2.00000
    120      -0.9120      2.00000
    121      -0.8599      2.00000
    122      -0.8442      2.00000
    123      -0.8264      2.00000
    124      -0.8061      2.00000
    125      -0.7939      2.00000
    126      -0.7719      2.00000
    127      -0.7320      2.00000
    128      -0.7092      2.00000
    129      -0.6786      2.00000
    130      -0.6680      2.00000
    131      -0.6610      2.00000
    132      -0.6406      2.00000
    133      -0.6122      2.00000
    134      -0.5836      2.00000
    135      -0.5602      2.00000
    136      -0.4399      2.00000
    137      -0.4132      2.00000
    138      -0.3860      2.00000
    139      -0.3602      2.00000
    140      -0.3579      2.00000
    141      -0.2389      2.00000
    142      -0.2041      2.00000
    143      -0.1888      2.00000
    144      -0.1540      2.00000
    145      -0.1212      2.00000
    146      -0.1131      2.00000
    147      -0.0424      2.00000
    148      -0.0269      2.00000
    149       0.0410      2.00000
    150       0.0787      2.00000
    151       0.0904      2.00000
    152       0.1292      2.00000
    153       0.1432      2.00000
    154       0.1673      2.00000
    155       0.1752      2.00000
    156       0.2246      2.00000
    157       0.2446      2.00000
    158       0.2964      2.00000
    159       0.3031      2.00000
    160       0.3115      2.00000
    161       0.3270      2.00000
    162       0.3394      2.00000
    163       0.3622      2.00000
    164       0.3668      2.00000
    165       0.3815      2.00000
    166       0.3972      2.00000
    167       0.4173      2.00001
    168       0.4458      2.00002
    169       0.4621      2.00004
    170       0.4881      2.00008
    171       0.4953      2.00010
    172       0.5604      2.00057
    173       0.5853      2.00106
    174       0.6215      2.00246
    175       0.6363      2.00340
    176       0.6519      2.00470
    177       0.6799      2.00813
    178       0.7005      2.01177
    179       0.7264      2.01806
    180       0.7408      2.02246
    181       0.7574      2.02834
    182       0.7734      2.03479
    183       0.8133      2.05286
    184       0.8256      2.05833
    185       0.8286      2.05956
    186       0.8354      2.06228
    187       0.8363      2.06264
    188       0.8452      2.06577
    189       0.8486      2.06681
    190       0.8627      2.07004
    191       0.8788      2.07072
    192       0.8884      2.06911
    193       0.9020      2.06353
    194       0.9575      1.98327
    195       0.9837      1.90194
    196       1.1059      1.10793
    197       1.1248      0.94894
    198       1.2018      0.36002
    199       1.2187      0.26014
    200       1.2285      0.20864
    201       1.2527      0.10226
    202       1.2618      0.06990
    203       1.2677      0.05091
    204       1.4660     -0.03399
    205       1.4935     -0.02351
    206       1.9610     -0.00000
    207       1.9991     -0.00000
    208       2.0549     -0.00000
    209       2.0721     -0.00000
    210       2.1982     -0.00000
    211       2.5701     -0.00000
    212       3.6237     -0.00000
    213       3.9645     -0.00000
    214       4.3444     -0.00000
    215       4.3577     -0.00000
    216       4.4071     -0.00000
    217       4.5857     -0.00000
    218       4.8583     -0.00000
    219       5.4399     -0.00000
    220       5.5500     -0.00000
    221       5.8680     -0.00000
    222       5.8925     -0.00000
    223       5.9122     -0.00000
    224       5.9650     -0.00000
    225       5.9862     -0.00000
    226       6.0810     -0.00000
    227       6.5700     -0.00000
    228       6.7359      0.00000

 k-point     2 :       0.5000    0.0000    0.0000
  band No.  band energies     occupation 
      1     -22.2390      2.00000
      2     -17.1635      2.00000
      3      -8.6960      2.00000
      4      -7.2766      2.00000
      5      -7.2160      2.00000
      6      -6.1134      2.00000
      7      -5.9672      2.00000
      8      -5.8723      2.00000
      9      -5.8422      2.00000
     10      -5.7358      2.00000
     11      -5.5991      2.00000
     12      -5.4311      2.00000
     13      -5.3724      2.00000
     14      -5.2485      2.00000
     15      -4.9417      2.00000
     16      -4.8787      2.00000
     17      -4.8693      2.00000
     18      -4.8603      2.00000
     19      -4.8548      2.00000
     20      -4.8310      2.00000
     21      -4.8176      2.00000
     22      -4.7791      2.00000
     23      -4.7715      2.00000
     24      -4.7398      2.00000
     25      -4.7253      2.00000
     26      -4.6810      2.00000
     27      -4.6724      2.00000
     28      -4.6642      2.00000
     29      -4.6429      2.00000
     30      -4.4854      2.00000
     31      -4.3750      2.00000
     32      -4.3439      2.00000
     33      -4.3157      2.00000
     34      -4.2986      2.00000
     35      -4.2886      2.00000
     36      -4.1766      2.00000
     37      -4.0147      2.00000
     38      -3.9607      2.00000
     39      -3.9475      2.00000
     40      -3.9201      2.00000
     41      -3.9095      2.00000
     42      -3.8921      2.00000
     43      -3.8678      2.00000
     44      -3.8115      2.00000
     45      -3.7714      2.00000
     46      -3.6722      2.00000
     47      -3.5922      2.00000
     48      -3.5757      2.00000
     49      -3.5471      2.00000
     50      -3.5382      2.00000
     51      -3.4555      2.00000
     52      -3.4294      2.00000
     53      -3.3728      2.00000
     54      -3.3362      2.00000
     55      -3.2925      2.00000
     56      -3.2663      2.00000
     57      -3.2596      2.00000
     58      -3.1702      2.00000
     59      -3.1587      2.00000
     60      -3.1272      2.00000
     61      -3.0767      2.00000
     62      -3.0547      2.00000
     63      -3.0208      2.00000
     64      -2.9755      2.00000
     65      -2.9604      2.00000
     66      -2.9162      2.00000
     67      -2.8733      2.00000
     68      -2.8524      2.00000
     69      -2.8367      2.00000
     70      -2.7616      2.00000
[...]
     83      -2.2507      2.00000
     84      -2.2375      2.00000
     85      -2.2250      2.00000
     86      -2.1991      2.00000
     87      -2.1689      2.00000
     88      -2.1486      2.00000
     89      -2.1470      2.00000
     90      -2.1121      2.00000
     91      -2.1087      2.00000
     92      -2.0694      2.00000
     93      -2.0281      2.00000
     94      -1.9797      2.00000
     95      -1.9362      2.00000
     96      -1.8979      2.00000
     97      -1.8915      2.00000
     98      -1.8807      2.00000
     99      -1.8275      2.00000
    100      -1.8043      2.00000
    101      -1.7619      2.00000
    102      -1.7343      2.00000
    103      -1.7169      2.00000
    104      -1.6942      2.00000
    105      -1.6740      2.00000
    106      -1.6453      2.00000
    107      -1.6241      2.00000
    108      -1.5780      2.00000
    109      -1.5654      2.00000
    110      -1.5197      2.00000
    111      -1.4927      2.00000
    112      -1.4491      2.00000
    113      -1.4081      2.00000
    114      -1.3228      2.00000
    115      -1.2712      2.00000
    116      -1.2296      2.00000
    117      -1.1882      2.00000
    118      -1.1358      2.00000
    119      -1.0957      2.00000
    120      -1.0661      2.00000
    121      -1.0393      2.00000
    122      -1.0136      2.00000
    123      -0.9959      2.00000
    124      -0.9792      2.00000
    125      -0.9439      2.00000
    126      -0.9277      2.00000
    127      -0.9155      2.00000
    128      -0.9040      2.00000
    129      -0.8672      2.00000
    130      -0.8514      2.00000
    131      -0.8334      2.00000
    132      -0.7967      2.00000
    133      -0.7463      2.00000
    134      -0.7292      2.00000
    135      -0.6898      2.00000
    136      -0.6774      2.00000
    137      -0.6390      2.00000
    138      -0.6312      2.00000
    139      -0.5550      2.00000
    140      -0.5295      2.00000
    141      -0.4650      2.00000
    142      -0.4612      2.00000
    143      -0.3723      2.00000
    144      -0.2874      2.00000
    145      -0.2644      2.00000
    146      -0.1886      2.00000
    147      -0.1321      2.00000
    148      -0.1102      2.00000
    149      -0.0636      2.00000
    150      -0.0571      2.00000
    151      -0.0179      2.00000
    152       0.0668      2.00000
    153       0.0737      2.00000
    154       0.0994      2.00000
    155       0.1050      2.00000
    156       0.1355      2.00000
    157       0.1493      2.00000
    158       0.1922      2.00000
    159       0.2161      2.00000
    160       0.2288      2.00000
    161       0.2658      2.00000
    162       0.3025      2.00000
    163       0.3465      2.00000
    164       0.3740      2.00000
    165       0.4049      2.00001
    166       0.4225      2.00001
    167       0.5341      2.00028
    168       0.6128      2.00198
    169       0.6281      2.00279
    170       0.6452      2.00402
    171       0.6581      2.00523
    172       0.6842      2.00864
    173       0.7316      2.01929
    174       0.7989      2.04574
    175       0.8105      2.05110
    176       0.8282      2.05898
    177       0.8676      2.07054
    178       0.8978      2.06618
    179       0.9485      2.00603
    180       0.9512      2.00035
    181       0.9558      1.98984
    182       1.0430      1.59960
    183       1.0742      1.37419
    184       1.1147      1.04229
    185       1.1214      0.98611
    186       1.1291      0.92066
    187       1.1534      0.71975
    188       1.1654      0.62445
    189       1.1792      0.52082
    190       1.1985      0.38738
    191       1.3439     -0.06712
    192       1.3644     -0.07092
    193       1.3854     -0.06805
    194       1.4065     -0.06093
    195       1.4295     -0.05087
    196       1.5154     -0.01715
    197       1.6183     -0.00239
    198       1.7329     -0.00013
    199       1.8372     -0.00000
    200       1.9903     -0.00000
    201       2.2899     -0.00000
    202       2.3160     -0.00000
    203       2.8157     -0.00000
    204       2.9581     -0.00000
    205       2.9851     -0.00000
    206       2.9918     -0.00000
    207       3.0293     -0.00000
    208       3.2207     -0.00000
    209       3.4043     -0.00000
    210       3.5456     -0.00000
    211       3.5891     -0.00000
    212       3.6354     -0.00000
    213       3.7545     -0.00000
    214       3.8310     -0.00000
    215       3.9403     -0.00000
    216       4.1810     -0.00000
    217       4.2415     -0.00000
    218       4.4052     -0.00000
    219       4.4410     -0.00000
    220       4.6200     -0.00000
    221       4.6592     -0.00000
    222       4.8299     -0.00000
    223       5.1481     -0.00000
    224       5.5053     -0.00000
    225       5.8422     -0.00000
    226       6.5336     -0.00000
    227       6.5614     -0.00000
    228       6.6249      0.00000


--------------------------------------------------------------------------------------------------------


 soft charge-density along one line, spin component           1
         0         1         2         3         4         5         6         7         8         9
 total charge-density along one line
 
 pseudopotential strength for first ion, spin component:           1
 10.102   0.016   0.004   0.012  -0.000  -0.004  -0.011   0.000
  0.016  -0.002  -0.000  -0.000  -0.000  -0.000  -0.000   0.000
  0.004  -0.000  -4.248  -0.007   0.001  -0.011  -0.002   0.000
  0.012  -0.000  -0.007  -4.266   0.004  -0.002  -0.017   0.001
 -0.000  -0.000   0.001   0.004  -4.246   0.000   0.001  -0.010
 -0.004  -0.000  -0.011  -0.002   0.000  -0.770  -0.000   0.000
 -0.011  -0.000  -0.002  -0.017   0.001  -0.000  -0.770   0.000
  0.000   0.000   0.000   0.001  -0.010   0.000   0.000  -0.770
 total augmentation occupancy for first ion, spin component:           1
  1.645  -0.895   0.009   0.022  -0.050   0.032   0.092  -0.025
 -0.895   1.282  -0.206  -0.600   0.110  -0.082  -0.246   0.039
  0.009  -0.206   0.847   0.191   0.001   0.115   0.052  -0.005
  0.022  -0.600   0.191   1.350  -0.027   0.052   0.253  -0.012
 -0.050   0.110   0.001  -0.027   0.790  -0.005  -0.013   0.100
  0.032  -0.082   0.115   0.052  -0.005   0.019   0.020  -0.003
  0.092  -0.246   0.052   0.253  -0.013   0.020   0.074  -0.007
 -0.025   0.039  -0.005  -0.012   0.100  -0.003  -0.007   0.014


------------------------ aborting loop because EDIFF is reached ----------------------------------------


    CHARGE:  cpu time    0.4721: real time    0.5065
    FORLOC:  cpu time    0.0506: real time    0.0510
    FORNL :  cpu time    2.2714: real time    2.2910
    STRESS:  cpu time    5.8119: real time    5.8515
    FORCOR:  cpu time    0.1302: real time    0.1308
    FORHAR:  cpu time    0.0611: real time    0.0614
    MIXING:  cpu time    0.0043: real time    0.0043
    OFIELD:  cpu time    0.0000: real time    0.0000

  FORCE on cell =-STRESS in cart. coord.  units (eV):
  Direction    XX          YY          ZZ          XY          YZ          ZX
  --------------------------------------------------------------------------------------
  Alpha Z   975.10247   975.10247   975.10247
  Ewald  111010.40254110995.64636************  -200.78131   241.77529   -94.12258
  Hartree117784.13951117744.44637************  -134.44625    99.99544   -51.90099
  E(xc)   -1665.86802 -1665.61680 -1673.06741    -0.45237     0.68616    -0.22447
  Local  ************************239444.68363   324.51157  -317.70463   138.82543
  n-local   122.76300   121.40846    87.77079    -1.22523     1.31460    -0.11790
  augment  1895.58506  1894.06363  1932.25060     2.85932    -4.47721     1.09912
  Kinetic  5524.49564  5516.11472  5598.43485     9.92518   -20.90801     6.80395
  Fock        0.00000     0.00000     0.00000     0.00000     0.00000     0.00000
  -------------------------------------------------------------------------------------
  Total     -36.23580   -38.88383    -3.46025     0.39089     0.68165     0.36256
  in kB     -43.15743   -46.31128    -4.12122     0.46556     0.81185     0.43182
  external pressure =      -31.20 kB  Pullay stress =        0.00 kB


 VOLUME and BASIS-vectors are now :
 -----------------------------------------------------------------------------
  energy-cutoff  :      450.00
  volume of cell :     1345.22
      direct lattice vectors                 reciprocal lattice vectors
     7.296955120 -4.212899000  0.000000000     0.137043463  0.000000000  0.000000000
     0.000000000  8.425798000  0.000000000     0.068521732  0.118683121  0.000000000
     0.000000000  0.000000000 21.879635000     0.000000000  0.000000000  0.045704602

  length of vectors
     8.425798004  8.425798000 21.879635000     0.137043463  0.137043463  0.045704602


 FORCES acting on ions
    electron-ion (+dipol)            ewald-force                    non-local-force                 convergence-correction
 -----------------------------------------------------------------------------------------------
   0.402E+01 0.127E+02 -.871E+03   -.429E+01 -.178E+02 0.857E+03   -.105E+00 0.369E+01 0.113E+02   -.104E-02 0.948E-02 0.490E-01
   -.735E+02 0.506E+02 -.160E+04   0.736E+02 -.469E+02 0.162E+04   0.460E+00 -.352E+01 -.240E+02   0.804E-02 0.134E-01 0.391E-02
   0.573E+02 -.983E+02 -.155E+04   -.663E+02 0.119E+03 0.161E+04   0.908E+01 -.196E+02 -.593E+02   0.115E-01 -.177E-01 -.316E-01
   -.872E+00 0.561E+00 0.234E+04   0.819E+00 -.542E+00 -.234E+04   0.276E-01 -.475E-01 -.120E+01   0.299E-01 -.931E-02 0.506E-01
   0.101E+00 -.650E+00 0.234E+04   -.141E+00 0.612E+00 -.234E+04   -.532E-02 -.347E-01 -.114E+01   0.249E-01 0.415E-01 0.416E-01
   0.426E+00 -.360E+00 0.234E+04   -.422E+00 0.367E+00 -.234E+04   0.193E-01 -.116E-01 -.114E+01   -.448E-01 -.150E-01 0.367E-01
   -.268E+00 -.245E+00 0.234E+04   0.266E+00 0.293E+00 -.234E+04   -.119E-01 0.200E-01 -.119E+01   0.220E-01 -.369E-01 0.283E-01
   -.535E+00 0.714E+00 0.234E+04   0.486E+00 -.725E+00 -.234E+04   0.744E-02 0.347E-01 -.126E+01   0.390E-01 -.292E-01 0.562E-01
   0.804E+00 -.489E+00 0.234E+04   -.749E+00 0.444E+00 -.234E+04   0.202E-01 0.175E-01 -.123E+01   -.886E-01 0.184E-01 0.435E-01
   0.327E+00 -.249E+00 0.234E+04   -.278E+00 0.102E+00 -.234E+04   -.612E-01 0.108E+00 -.112E+01   0.597E-01 -.123E-01 0.280E-01
   0.171E+00 0.915E+00 0.234E+04   -.112E+00 -.813E+00 -.234E+04   -.144E-01 -.380E-01 -.127E+01   -.448E-01 -.338E-02 0.518E-01
   -.102E+00 -.277E+00 0.234E+04   0.131E+00 0.261E+00 -.234E+04   -.130E-01 0.694E-02 -.106E+01   0.254E-02 0.459E-01 0.281E-01
   0.217E+01 -.355E+01 0.857E+03   -.230E+01 0.350E+01 -.856E+03   0.227E-01 0.671E-02 -.573E+00   0.303E-01 0.499E-01 0.536E-01
   0.194E+01 0.347E+01 0.865E+03   -.205E+01 -.344E+01 -.865E+03   0.631E-01 -.404E-01 -.471E+00   0.238E-01 -.308E-01 0.495E-01
   -.227E+01 0.410E+01 0.860E+03   0.237E+01 -.425E+01 -.860E+03   0.514E-01 -.238E-01 -.413E+00   -.236E-01 0.347E-01 0.935E-01
   -.725E+01 0.170E+01 0.855E+03   0.724E+01 -.178E+01 -.855E+03   0.680E-01 0.662E-01 -.259E+00   0.235E-01 0.159E-01 0.516E-01
   0.564E+01 -.845E+01 0.859E+03   -.570E+01 0.852E+01 -.859E+03   0.260E-02 0.861E-01 -.363E+00   -.307E-01 0.251E-01 0.395E-01
   -.138E+01 0.203E+00 0.866E+03   0.134E+01 -.192E+00 -.866E+03   0.829E-02 0.736E-01 -.515E+00   0.444E-02 -.479E-01 0.101E+00
   -.116E+01 -.148E+00 0.863E+03   0.119E+01 0.299E+00 -.863E+03   -.144E+00 0.550E-02 -.498E+00   0.563E-01 -.671E-01 0.633E-01
   0.197E+01 0.582E+01 0.854E+03   -.194E+01 -.582E+01 -.854E+03   0.238E-01 -.114E+00 -.274E+00   -.330E-01 0.564E-02 0.396E-01
   0.284E+00 -.239E+01 0.863E+03   -.218E+00 0.259E+01 -.863E+03   0.713E-01 -.122E+00 -.463E+00   -.511E-01 0.142E-01 0.955E-01
   -.106E+02 0.887E+01 -.636E+03   0.105E+02 -.883E+01 0.636E+03   0.299E+00 -.415E+00 0.820E+00   -.181E-01 -.176E-01 0.240E-01
   0.204E+01 0.916E+00 -.638E+03   -.215E+01 -.884E+00 0.637E+03   0.119E+00 0.666E-01 0.621E+00   0.183E-01 -.423E-01 -.134E-01
   0.183E+00 -.199E+01 -.631E+03   -.404E+00 0.231E+01 0.630E+03   0.170E+00 -.901E-01 0.645E+00   0.383E-01 -.224E-01 -.978E-03
   -.801E+01 0.120E+02 -.647E+03   0.770E+01 -.112E+02 0.647E+03   0.255E+00 -.826E+00 -.118E+00   -.265E-01 0.530E-01 0.999E-02
   0.140E+02 -.458E+00 -.635E+03   -.135E+02 0.398E+00 0.635E+03   -.711E+00 0.833E-01 0.108E+01   0.327E-01 0.134E-01 -.305E-01
   -.130E+02 -.111E+02 -.646E+03   0.130E+02 0.110E+02 0.645E+03   0.224E+00 -.824E-01 0.383E+00   -.375E-01 -.107E-01 0.427E-01
   0.399E+01 -.456E+01 -.639E+03   -.395E+01 0.446E+01 0.639E+03   -.220E+00 0.207E+00 0.234E+00   -.126E-02 0.195E-01 0.224E-01
   0.298E+01 -.286E+01 -.671E+03   -.303E+01 0.278E+01 0.670E+03   0.845E-01 0.710E-01 -.202E+00   -.192E-01 0.210E-01 0.353E-01
   0.569E+01 0.277E+01 -.633E+03   -.579E+01 -.289E+01 0.633E+03   0.990E-01 0.142E-01 0.705E+00   0.124E-01 -.747E-02 0.276E-01
   -.270E+02 -.223E+02 -.218E+04   0.276E+02 0.224E+02 0.217E+04   -.585E+00 0.160E+00 0.120E+01   -.380E-01 -.488E-01 0.564E-01
   0.198E+02 0.349E+02 -.210E+04   -.203E+02 -.353E+02 0.210E+04   0.376E+00 0.229E+00 0.178E+01   0.261E-01 0.886E-02 -.921E-02
   0.335E+02 0.512E+01 -.215E+04   -.338E+02 -.513E+01 0.215E+04   0.240E+00 -.243E+00 0.866E+00   -.107E-01 0.606E-01 0.828E-01
   -.139E+01 0.371E+00 -.218E+04   0.149E+01 -.738E+00 0.217E+04   -.114E+00 0.362E+00 0.100E+01   0.230E-02 0.148E-01 0.363E-01
   0.102E+02 0.151E+02 -.217E+04   -.103E+02 -.153E+02 0.217E+04   0.168E+00 0.198E+00 0.717E+00   -.204E-01 -.887E-02 0.813E-01
   0.737E+02 0.627E+02 -.197E+04   -.766E+02 -.611E+02 0.198E+04   0.264E+01 -.121E+01 -.284E+01   0.538E-01 -.288E-02 0.466E-01
   -.532E+02 -.532E+02 -.207E+04   0.547E+02 0.555E+02 0.207E+04   -.155E+01 -.212E+01 0.222E+01   -.505E-03 -.511E-01 0.398E-01
   -.594E+02 0.909E+02 -.201E+04   0.598E+02 -.915E+02 0.201E+04   -.250E+00 0.536E+00 -.115E+01   0.130E-01 0.388E-01 0.221E-01
   0.797E+01 -.797E+02 -.212E+04   -.791E+01 0.806E+02 0.212E+04   -.178E-01 -.569E+00 0.123E+01   -.203E-01 -.287E-01 0.416E-01
 -----------------------------------------------------------------------------------------------
   -.108E+02 0.232E+02 0.757E+02   -.631E-13 0.213E-12 -.364E-11   0.108E+02 -.231E+02 -.772E+02   0.226E-01 -.611E-02 0.149E+01
 
 
 POSITION                                       TOTAL-FORCE (eV/Angst)
 -----------------------------------------------------------------------------------
      5.08209      0.68068     10.40113        -0.373371     -1.419219     -2.546102
      6.66297     -0.60352     10.16658         0.552820      0.261077      0.152509
      4.92949      1.03827     11.47481         0.079341      0.699014      1.941570
      7.20031     -1.38846      1.62732         0.002667     -0.040329      0.094824
      2.33567      1.42014      1.62732        -0.021843     -0.033634      0.149251
      4.76799      0.01584      1.62732        -0.022753     -0.022559      0.091063
      7.20031      1.42015      1.62732         0.006127      0.028591      0.133470
      2.33567      4.22875      1.62732        -0.004003     -0.007922      0.152858
      4.76799      2.82445      1.62732        -0.014549     -0.012358      0.172491
      2.33567      7.03734      1.62732         0.045269     -0.054767      0.062795
      4.76799      5.63304      1.62732        -0.001811      0.058171      0.108940
      7.20031      4.22874      1.62732         0.016473      0.033965      0.090053
      1.52490      0.01584      3.92052        -0.083921      0.005888     -0.221660
      3.95722     -1.38846      3.92052        -0.020614     -0.045050     -0.370321
      6.38953     -2.79276      3.92052         0.132327     -0.138958     -0.267491
      1.52490      2.82445      3.92052         0.080197      0.006164     -0.011158
      3.95722      1.42015      3.92052        -0.089848      0.172900     -0.115611
      6.38953      0.01585      3.92052        -0.028391      0.034823     -0.230787
      1.52490      5.63305      3.92052        -0.054032      0.086200     -0.230396
      3.95722      4.22874      3.92052         0.022801     -0.113758     -0.033327
      6.38953      2.82445      3.92052         0.084903      0.093769     -0.299206
      0.69574      4.24726      6.17348         0.208876     -0.388538      0.318828
      3.12407      5.61310      6.16861         0.028609      0.053564      0.202337
      5.57600     -1.39985      6.15841        -0.014327      0.209311      0.466097
      0.71707      1.45262      6.19724        -0.089660     -0.012492      0.377679
      3.17062      0.00076      6.15198        -0.136790      0.033973      0.807490
      0.71052      7.04824      6.19137         0.143543     -0.166212      0.069171
      5.59961      4.19642      6.18730        -0.176452      0.129515     -0.078427
      3.14229      2.81013      6.25233         0.018957      0.013762     -0.316023
      5.57551      1.41477      6.17374         0.010678     -0.118129      0.322405
      2.37757      4.18275      8.52457         0.001324      0.214146     -0.367661
      4.76290      5.61108      8.37210        -0.122579     -0.137785      0.402242
      2.33598      1.39358      8.54552        -0.062081     -0.197371     -0.473240
      7.21848      4.18695      8.50570        -0.006308      0.007423     -0.120854
      2.33422      7.00527      8.52641         0.057476     -0.036932     -0.385294
      4.69366      0.01534      8.62355        -0.262765      0.412614      0.058246
      7.27602      1.41167      8.46939        -0.063294      0.098875     -0.046097
      7.23799     -1.48740      8.55374         0.144537     -0.073106      0.174983
      4.80520      2.79232      8.51307         0.012466      0.365372     -0.235648
 -----------------------------------------------------------------------------------
    total drift:                                0.061274      0.098404      0.013202
  FORCES: max atom, RMS     2.938745    0.647764
  Number: max atom                 1
  FORCE total and by dimension    4.045282    2.546102


--------------------------------------------------------------------------------------------------------



  FREE ENERGIE OF THE ION-ELECTRON SYSTEM (eV)
  ---------------------------------------------------
  free  energy   TOTEN  =      -230.44303391 eV

  energy  without entropy=     -230.40896219  energy(sigma->0) =     -230.43167667
 
 d Force = 0.8088914E-01[ 0.146E-01, 0.147E+00]  d Energy = 0.8352784E-01-0.264E-02
 d Force =-0.3946784E+02[-0.398E+02,-0.391E+02]  d Ewald  =-0.3946658E+02-0.126E-02


--------------------------------------------------------------------------------------------------------


    POTLOK:  cpu time    0.1182: real time    0.6131


--------------------------------------------------------------------------------------------------------


 stress matrix after NEB project (eV)
    -36.23580      0.39089      0.36256
      0.39089    -38.88383      0.68165
      0.36256      0.68165     -3.46025
  FORCES: max atom, RMS     2.938745    0.647764
  FORCE total and by dimension    4.045282    2.546102
  Stress total and by dimension   53.277164   38.883828
 Quasi-Newton relaxation of ions (Broydens 2nd method)
  g(Force)  = 0.316E+00   g(Stress)= 0.000E+00

 retain information from N=  2 steps
 eigenvalues of (default step * inverse Hessian matrix)
  average eigenvalue of G=   0.8029
 eigenvalue spectrum of G is  0.8029  0.8029
  RESET_HESSIAN           0


--------------------------------------------------------------------------------------------------------


    WAVPRE:  cpu time    0.0855: real time    1.0837
    FEWALD:  cpu time    0.0033: real time    0.0033

 real space projection operators:
  total allocation   :      13550.69 KBytes
  max/ min on nodes  :       6783.62       6767.06

    ORTHCH:  cpu time    0.7053: real time    0.7177
     LOOP+:  cpu time   62.5839: real time   67.2575
