metal                                   
           1
     7.296955   -4.212899    0.000000
     0.000000    8.425798    0.000000
     0.000000    0.000000   21.879635
   C    O    Pt
   1   2  36
Direct configuration=     1
   0.70092253  0.43359020  0.47568466
   0.91087773  0.38187098  0.46330860
   0.67278598  0.46044608  0.52557319
   0.98675500  0.32859100  0.07437600
   0.32008800  0.32859100  0.07437600
   0.65342200  0.32859100  0.07437600
   0.98675500  0.66192500  0.07437600
   0.32008800  0.66192500  0.07437600
   0.65342200  0.66192500  0.07437600
   0.32008800  0.99525800  0.07437600
   0.65342200  0.99525800  0.07437600
   0.98675500  0.99525800  0.07437600
   0.20897700  0.10636900  0.17918600
   0.54231100  0.10636900  0.17918600
   0.87564400  0.10636900  0.17918600
   0.20897700  0.43970300  0.17918600
   0.54231100  0.43970300  0.17918600
   0.87564400  0.43970300  0.17918600
   0.20897700  0.77303600  0.17918600
   0.54231100  0.77303600  0.17918600
   0.87564400  0.77303600  0.17918600
   0.09378110  0.55330359  0.28136801
   0.42830580  0.88010923  0.28132677
   0.76399735  0.21459702  0.28050648
   0.09861731  0.22140434  0.28222525
   0.43548820  0.21759376  0.27908906
   0.09582086  0.88535256  0.28268723
   0.76885900  0.88177864  0.28291244
   0.43074192  0.54872162  0.28638645
   0.76427935  0.55081619  0.28137202
   0.32562174  0.65788733  0.39039874
   0.65389198  0.99384449  0.38189846
   0.32057045  0.32710514  0.39161498
   0.98898125  0.99128866  0.38903824
   0.31950218  0.99124701  0.39062733
   0.64551604  0.32212553  0.39402925
   0.99738277  0.66530460  0.38726668
   0.98969192  0.32018653  0.39155568
   0.65830342  0.65888592  0.38946175
Direct configuration=     2
   0.69846293  0.43081023  0.47490389
   0.91193000  0.38360494  0.46432579
   0.67414392  0.46103887  0.52546979
   0.98675500  0.32859100  0.07437600
   0.32008800  0.32859100  0.07437600
   0.65342200  0.32859100  0.07437600
   0.98675500  0.66192500  0.07437600
   0.32008800  0.66192500  0.07437600
   0.65342200  0.66192500  0.07437600
   0.32008800  0.99525800  0.07437600
   0.65342200  0.99525800  0.07437600
   0.98675500  0.99525800  0.07437600
   0.20897700  0.10636900  0.17918600
   0.54231100  0.10636900  0.17918600
   0.87564400  0.10636900  0.17918600
   0.20897700  0.43970300  0.17918600
   0.54231100  0.43970300  0.17918600
   0.87564400  0.43970300  0.17918600
   0.20897700  0.77303600  0.17918600
   0.54231100  0.77303600  0.17918600
   0.87564400  0.77303600  0.17918600
   0.09470609  0.55241122  0.28183879
   0.42814781  0.88013879  0.28169477
   0.76413776  0.21538648  0.28105147
   0.09844924  0.22156330  0.28284488
   0.43492716  0.21745193  0.28031770
   0.09681039  0.88532262  0.28287835
   0.76796972  0.88172520  0.28285259
   0.43063631  0.54878140  0.28604772
   0.76411743  0.55028389  0.28183773
   0.32578339  0.65876535  0.38995447
   0.65316406  0.99290606  0.38229414
   0.32029675  0.32612383  0.39101820
   0.98918164  0.99148286  0.38887293
   0.31970723  0.99131271  0.39008256
   0.64418042  0.32296842  0.39415031
   0.99727452  0.66585308  0.38714784
   0.99131506  0.31951010  0.39095476
   0.65844252  0.65983262  0.38926232
Direct configuration=     3
   0.69646696  0.42901835  0.47537952
   0.91311580  0.38492982  0.46465935
   0.67555391  0.46100258  0.52445184
   0.98675500  0.32859100  0.07437600
   0.32008800  0.32859100  0.07437600
   0.65342200  0.32859100  0.07437600
   0.98675500  0.66192500  0.07437600
   0.32008800  0.66192500  0.07437600
   0.65342200  0.66192500  0.07437600
   0.32008800  0.99525800  0.07437600
   0.65342200  0.99525800  0.07437600
   0.98675500  0.99525800  0.07437600
   0.20897700  0.10636900  0.17918600
   0.54231100  0.10636900  0.17918600
   0.87564400  0.10636900  0.17918600
   0.20897700  0.43970300  0.17918600
   0.54231100  0.43970300  0.17918600
   0.87564400  0.43970300  0.17918600
   0.20897700  0.77303600  0.17918600
   0.54231100  0.77303600  0.17918600
   0.87564400  0.77303600  0.17918600
   0.09534613  0.55175169  0.28215648
   0.42813391  0.88024776  0.28193365
   0.76415448  0.21593861  0.28146751
   0.09826965  0.22153598  0.28324259
   0.43451216  0.21734616  0.28117364
   0.09737240  0.88519381  0.28297428
   0.76738993  0.88173936  0.28278807
   0.43063053  0.54883069  0.28576011
   0.76408705  0.54995280  0.28216812
   0.32583098  0.65933739  0.38961213
   0.65272444  0.99230272  0.38264340
   0.32013089  0.32545964  0.39056938
   0.98924569  0.99154341  0.38874973
   0.31989005  0.99135244  0.38969631
   0.64323573  0.32343853  0.39413604
   0.99713062  0.66610722  0.38708993
   0.99191978  0.31943033  0.39094516
   0.65852075  0.66066215  0.38908635
