       N       E                     dE             d eps       ncg     rms          rms(c)
DAV:   1     0.241962451205E+04    0.24196E+04   -0.15952E+05  1824   0.129E+03
DAV:   2    -0.636653736982E+02   -0.24833E+04   -0.23105E+04  2120   0.286E+02
DAV:   3    -0.240825170815E+03   -0.17716E+03   -0.16101E+03  2184   0.688E+01
DAV:   4    -0.248292309225E+03   -0.74671E+01   -0.72061E+01  2332   0.136E+01
DAV:   5    -0.248517873518E+03   -0.22556E+00   -0.22333E+00  2520   0.238E+00    0.273E+01
RMM:   6    -0.246798734071E+03    0.17191E+01   -0.53964E+01  1832   0.148E+01    0.310E+01
RMM:   7    -0.247861144894E+03   -0.10624E+01   -0.32174E+01  1831   0.894E+00    0.235E+01
RMM:   8    -0.243917434486E+03    0.39437E+01   -0.11197E+01  1827   0.498E+00    0.234E+01
RMM:   9    -0.232160234439E+03    0.11757E+02   -0.68836E+00  1831   0.435E+00    0.960E+00
RMM:  10    -0.230662055571E+03    0.14982E+01   -0.20666E+00  1831   0.235E+00    0.533E+00
RMM:  11    -0.230376627906E+03    0.28543E+00   -0.51658E-01  1830   0.110E+00    0.367E+00
RMM:  12    -0.230154121416E+03    0.22251E+00   -0.22381E-01  1844   0.740E-01    0.181E+00
RMM:  13    -0.230169214696E+03   -0.15093E-01   -0.12514E-01  1831   0.577E-01    0.198E+00
RMM:  14    -0.230123915446E+03    0.45299E-01   -0.92310E-02  1832   0.521E-01    0.111E+00
RMM:  15    -0.230116529051E+03    0.73864E-02   -0.35904E-02  1831   0.331E-01    0.748E-01
RMM:  16    -0.230107404291E+03    0.91248E-02   -0.91243E-03  1828   0.165E-01    0.216E-01
RMM:  17    -0.230107206793E+03    0.19750E-03   -0.18542E-03  1816   0.717E-02    0.165E-01
RMM:  18    -0.230107515980E+03   -0.30919E-03   -0.94631E-04  1803   0.515E-02    0.142E-01
RMM:  19    -0.230107456254E+03    0.59727E-04   -0.43518E-04  1367   0.366E-02
   1 F= -.23010746E+03 E0= -.23010585E+03  d E =-.230107E+03
       N       E                     dE             d eps       ncg     rms          rms(c)
DAV:   1    -0.230335677862E+03   -0.22816E+00   -0.34956E+01  1852   0.106E+01    0.863E-01
RMM:   2    -0.230445949196E+03   -0.11027E+00   -0.63135E-01  1833   0.169E+00    0.199E+00
RMM:   3    -0.230403493058E+03    0.42456E-01   -0.52449E-02  1861   0.395E-01    0.126E+00
RMM:   4    -0.230384246916E+03    0.19246E-01   -0.15158E-02  1843   0.205E-01    0.587E-01
RMM:   5    -0.230381411723E+03    0.28352E-02   -0.75501E-03  1835   0.143E-01    0.460E-01
RMM:   6    -0.230380908432E+03    0.50329E-03   -0.99779E-03  1829   0.170E-01    0.348E-01
RMM:   7    -0.230379671094E+03    0.12373E-02   -0.46664E-03  1830   0.118E-01    0.205E-01
RMM:   8    -0.230379074288E+03    0.59681E-03   -0.13844E-03  1816   0.640E-02    0.102E-01
RMM:   9    -0.230378977557E+03    0.96731E-04   -0.29961E-04  1097   0.310E-02
   2 F= -.23037898E+03 E0= -.23037600E+03  d E =-.271521E+00
       N       E                     dE             d eps       ncg     rms          rms(c)
DAV:   1    -0.230432816537E+03   -0.53742E-01   -0.11565E+01  1824   0.635E+00    0.609E-01
RMM:   2    -0.230480748053E+03   -0.47932E-01   -0.45710E-01  1839   0.105E+00    0.833E-01
RMM:   3    -0.230474120317E+03    0.66277E-02   -0.17082E-02  1848   0.209E-01    0.762E-01
RMM:   4    -0.230467114339E+03    0.70060E-02   -0.46927E-03  1836   0.112E-01    0.433E-01
RMM:   5    -0.230466264703E+03    0.84964E-03   -0.62039E-03  1829   0.122E-01    0.480E-01
RMM:   6    -0.230464638612E+03    0.16261E-02   -0.70517E-03  1831   0.135E-01    0.299E-01
RMM:   7    -0.230463094546E+03    0.15441E-02   -0.23617E-03  1821   0.824E-02    0.109E-01
RMM:   8    -0.230462904991E+03    0.18956E-03   -0.44301E-04  1366   0.363E-02    0.656E-02
RMM:   9    -0.230462853947E+03    0.51044E-04   -0.13893E-04  1007   0.230E-02
   3 F= -.23046285E+03 E0= -.23045943E+03  d E =-.838764E-01
