 vasp.5.4.4 16052018 (build Apr 24 2014 20:13:14) complex standard
 Contain Constrained Minimization Technique (TS), Periodic NBO, VASPsol, libbeef, VASP2WANNIER90, Constrained Cell Relaxation
 executed on Center for Computational Chemistry by phu@node09 date 2025.09.27 23:18:41
 running on    8 total cores
 distrk:  each k-point on    8 cores,    1 groups
 distr:  one band on NCORES_PER_BAND=   2 cores,    4 groups


--------------------------------------------------------------------------------------------------------


 INCAR:
 POTCAR:   PAW_PBE C 08Apr2002                    
 POTCAR:   PAW_PBE O 08Apr2002                    
 POTCAR:    PAW_PBE Pt 04Feb2005                  
 POTCAR:   PAW_PBE C 08Apr2002                    
   VRHFIN =C: s2p2                                                              
   LEXCH  = PE                                                                  
   EATOM  =   147.1560 eV,   10.8157 Ry                                         
                                                                                
   TITEL  = PAW_PBE C 08Apr2002                                                 
   LULTRA =        F    use ultrasoft PP ?                                      
   IUNSCR =        0    unscreen: 0-lin 1-nonlin 2-no                           
   RPACOR =     .000    partial core radius                                     
   POMASS =   12.011; ZVAL   =    4.000    mass and valenz                      
   RCORE  =    1.500    outmost cutoff radius                                   
   RWIGS  =    1.630; RWIGS  =     .863    wigner-seitz radius (au A)           
   ENMAX  =  400.000; ENMIN  =  300.000 eV                                      
   ICORE  =        2    local potential                                         
   LCOR   =        T    correct aug charges                                     
   LPAW   =        T    paw PP                                                  
   EAUG   =  644.873                                                            
   DEXC   =     .000                                                            
   RMAX   =    2.266    core radius for proj-oper                               
   RAUG   =    1.300    factor for augmentation sphere                          
   RDEP   =    1.501    radius for radial grids                                 
   RDEPT  =    1.300    core radius for aug-charge                              
   QCUT   =   -5.516; QGAM   =   11.032    optimization parameters              
                                                                                
   Description                                                                  
     l     E      TYP  RCUT    TYP  RCUT                                        
     0   .000     23  1.200                                                     
     0   .000     23  1.200                                                     
     1   .000     23  1.500                                                     
     1  2.500     23  1.500                                                     
     2   .000      7  1.500                                                     
  local pseudopotential read in
  atomic valenz-charges read in
  non local Contribution for L=           0  read in
    real space projection operators read in
  non local Contribution for L=           0  read in
    real space projection operators read in
  non local Contribution for L=           1  read in
    real space projection operators read in
  non local Contribution for L=           1  read in
    real space projection operators read in
    PAW grid and wavefunctions read in
 
   number of l-projection  operators is LMAX  =           4
   number of lm-projection operators is LMMAX =           8
 
 POTCAR:   PAW_PBE O 08Apr2002                    
   VRHFIN =O: s2p4                                                              
   LEXCH  = PE                                                                  
   EATOM  =   432.3788 eV,   31.7789 Ry                                         
                                                                                
   TITEL  = PAW_PBE O 08Apr2002                                                 
   LULTRA =        F    use ultrasoft PP ?                                      
   IUNSCR =        0    unscreen: 0-lin 1-nonlin 2-no                           
   RPACOR =     .000    partial core radius                                     
   POMASS =   16.000; ZVAL   =    6.000    mass and valenz                      
   RCORE  =    1.520    outmost cutoff radius                                   
   RWIGS  =    1.550; RWIGS  =     .820    wigner-seitz radius (au A)           
   ENMAX  =  400.000; ENMIN  =  300.000 eV                                      
   ICORE  =        2    local potential                                         
   LCOR   =        T    correct aug charges                                     
   LPAW   =        T    paw PP                                                  
   EAUG   =  605.392                                                            
   DEXC   =     .000                                                            
   RMAX   =    2.264    core radius for proj-oper                               
   RAUG   =    1.300    factor for augmentation sphere                          
   RDEP   =    1.550    radius for radial grids                                 
   QCUT   =   -5.520; QGAM   =   11.041    optimization parameters              
                                                                                
   Description                                                                  
     l     E      TYP  RCUT    TYP  RCUT                                        
     0   .000     23  1.200                                                     
     0  -.700     23  1.200                                                     
     1   .000     23  1.520                                                     
     1   .600     23  1.520                                                     
     2   .000      7  1.500                                                     
  local pseudopotential read in
  atomic valenz-charges read in
  non local Contribution for L=           0  read in
    real space projection operators read in
  non local Contribution for L=           0  read in
    real space projection operators read in
  non local Contribution for L=           1  read in
    real space projection operators read in
  non local Contribution for L=           1  read in
    real space projection operators read in
    PAW grid and wavefunctions read in
 
   number of l-projection  operators is LMAX  =           4
   number of lm-projection operators is LMMAX =           8
 
 POTCAR:    PAW_PBE Pt 04Feb2005                  
   VRHFIN =Pt: s1d9                                                             
   LEXCH  = PE                                                                  
   EATOM  =   729.1182 eV,   53.5887 Ry                                         
                                                                                
   TITEL  = PAW_PBE Pt 04Feb2005                                                
   LULTRA =        F    use ultrasoft PP ?                                      
   IUNSCR =        1    unscreen: 0-lin 1-nonlin 2-no                           
   RPACOR =    2.330    partial core radius                                     
   POMASS =  195.080; ZVAL   =   10.000    mass and valenz                      
   RCORE  =    2.600    outmost cutoff radius                                   
   RWIGS  =    2.750; RWIGS  =    1.455    wigner-seitz radius (au A)           
   ENMAX  =  230.283; ENMIN  =  172.712 eV                                      
   ICORE  =        3    local potential                                         
   LCOR   =        T    correct aug charges                                     
   LPAW   =        T    paw PP                                                  
   EAUG   =  358.966                                                            
   DEXC   =     .000                                                            
   RMAX   =    3.038    core radius for proj-oper                               
   RAUG   =    1.300    factor for augmentation sphere                          
   RDEP   =    2.761    radius for radial grids                                 
   QCUT   =   -4.114; QGAM   =    8.228    optimization parameters              
                                                                                
   Description                                                                  
     l     E      TYP  RCUT    TYP  RCUT                                        
     2   .000     23  2.500                                                     
     2   .000     23  2.500                                                     
     0   .000     23  2.500                                                     
     0   .000     23  2.500                                                     
     1  -.200     23  2.600                                                     
     1  1.500     23  2.600                                                     
     3   .000     23  2.500                                                     
  local pseudopotential read in
  partial core-charges read in
  atomic valenz-charges read in
  non local Contribution for L=           2  read in
    real space projection operators read in
  non local Contribution for L=           2  read in
    real space projection operators read in
  non local Contribution for L=           0  read in
    real space projection operators read in
  non local Contribution for L=           0  read in
    real space projection operators read in
  non local Contribution for L=           1  read in
    real space projection operators read in
  non local Contribution for L=           1  read in
    real space projection operators read in
    PAW grid and wavefunctions read in
 
   number of l-projection  operators is LMAX  =           6
   number of lm-projection operators is LMMAX =          18
 
 Optimization of the real space projectors (new method)

 maximal supplied QI-value         = 25.13
 optimisation between [QCUT,QGAM] = [ 10.81, 21.61] = [ 32.71,130.83] Ry 
 Optimized for a Real-space Cutoff    1.23 Angstroem

   l    n(q)    QCUT    max X(q) W(low)/X(q) W(high)/X(q)  e(spline) 
   0      8    10.807     5.582    0.53E-04    0.84E-04    0.44E-07
   0      8    10.807    69.432    0.35E-03    0.71E-03    0.24E-06
   1      7    10.807     2.780    0.44E-04    0.88E-04    0.89E-07
   1      7    10.807     4.549    0.14E-03    0.28E-03    0.13E-06
 Optimization of the real space projectors (new method)

 maximal supplied QI-value         = 24.76
 optimisation between [QCUT,QGAM] = [ 10.64, 21.54] = [ 31.73,129.89] Ry 
 Optimized for a Real-space Cutoff    1.23 Angstroem

   l    n(q)    QCUT    max X(q) W(low)/X(q) W(high)/X(q)  e(spline) 
   0      8    10.645     4.192    0.69E-04    0.93E-04    0.58E-07
   0      8    10.645     8.473    0.40E-03    0.65E-03    0.17E-06
   1      7    10.645     2.474    0.80E-04    0.12E-03    0.30E-07
   1      7    10.645     3.912    0.24E-03    0.53E-03    0.16E-06
 Optimization of the real space projectors (new method)

 maximal supplied QI-value         = 14.36
 optimisation between [QCUT,QGAM] = [ 10.77, 21.69] = [ 32.49,131.70] Ry 
 Optimized for a Real-space Cutoff    1.46 Angstroem

   l    n(q)    QCUT    max X(q) W(low)/X(q) W(high)/X(q)  e(spline) 
   2      9    10.771     3.903    0.38E-04    0.12E-03    0.82E-07
   2      9    10.771    18.372    0.13E-03    0.32E-03    0.28E-06
   0     10    10.771    13.697    0.11E-04    0.86E-05    0.85E-08
   0     10    10.771    65.529    0.40E-04    0.12E-03    0.14E-06
   1      9    10.771     7.604    0.48E-04    0.31E-04    0.38E-07
   1      9    10.771    12.136    0.35E-03    0.16E-03    0.23E-06
 PAW_PBE C 08Apr2002                    :
 energy of atom  1       EATOM= -147.1560
 kinetic energy error for atom=    0.0116 (will be added to EATOM!!)
 PAW_PBE O 08Apr2002                    :
 energy of atom  2       EATOM= -432.3788
 kinetic energy error for atom=    0.0389 (will be added to EATOM!!)
  PAW_PBE Pt 04Feb2005                  :
 energy of atom  3       EATOM= -729.1182
 kinetic energy error for atom=    0.0051 (will be added to EATOM!!)
 
 
 POSCAR: C    O    Pt                            
  positions in direct lattice
  No initial velocities read in
 exchange correlation table for  LEXCH =        8
   RHO(1)=    0.500       N(1)  =     2000
   RHO(2)=  100.500       N(2)  =     4000

 VTST: version 3.2, (02/03/18)

 CHAIN: initializing optimizer
 
 OPT: Using VASP QUASI-newton optimizer
 CHAIN: Read ICHAIN            0
 
 POSCAR: C    O    Pt                            
  positions in direct lattice
  No initial velocities read in
 


--------------------------------------------------------------------------------------------------------


 ion  position               nearest neighbor table
   1  0.702  0.431  0.480-   3 1.16   2 1.96  36 2.02
   2  0.906  0.383  0.468-   1 1.96  38 2.00  36 2.59
   3  0.674  0.458  0.530-   1 1.16
   4  0.987  0.329  0.074-  15 2.81  16 2.81  12 2.81   5 2.81  11 2.81   6 2.81  18 2.81   8 2.81
                             7 2.81
   5  0.320  0.329  0.074-  13 2.81  10 2.81   4 2.81  12 2.81  16 2.81  17 2.81   8 2.81   9 2.81
                             6 2.81
   6  0.653  0.329  0.074-  14 2.81  18 2.81  11 2.81   4 2.81  17 2.81   7 2.81  10 2.81   9 2.81
                             5 2.81
   7  0.987  0.662  0.074-  18 2.81  21 2.81  19 2.81  12 2.81   8 2.81  10 2.81   9 2.81   6 2.81
                             4 2.81
   8  0.320  0.662  0.074-  16 2.81  19 2.81  10 2.81   7 2.81  20 2.81   4 2.81  11 2.81   5 2.81
                             9 2.81
   9  0.653  0.662  0.074-  17 2.81  20 2.81  21 2.81  11 2.81  12 2.81   7 2.81   6 2.81   5 2.81
                             8 2.81
  10  0.320  0.995  0.074-  13 2.81  19 2.81   5 2.81   8 2.81  12 2.81   7 2.81  14 2.81   6 2.81
                            11 2.81
  11  0.653  0.995  0.074-  14 2.81  20 2.81  15 2.81   9 2.81   6 2.81  12 2.81   4 2.81   8 2.81
                            10 2.81
  12  0.987  0.995  0.074-  15 2.81  21 2.81  13 2.81   7 2.81   4 2.81  10 2.81   5 2.81  11 2.81
                             9 2.81
  13  0.209  0.106  0.179-  27 2.79  10 2.81   5 2.81  12 2.81  19 2.81  15 2.81  21 2.81  16 2.81
                            17 2.81  14 2.81  26 2.83  25 2.89
  14  0.542  0.106  0.179-  23 2.75  11 2.81   6 2.81  20 2.81  15 2.81  10 2.81  18 2.81  19 2.81
                            17 2.81  13 2.81  24 2.82  26 2.84
  15  0.876  0.106  0.179-   4 2.81  12 2.81  11 2.81  21 2.81  13 2.81  20 2.81  14 2.81  16 2.81
                            18 2.81  28 2.83  24 2.85  25 2.86
  16  0.209  0.440  0.179-  22 2.78   8 2.81   4 2.81  19 2.81  18 2.81   5 2.81  15 2.81  20 2.81
                            13 2.81  17 2.81  29 2.83  25 2.84
  17  0.542  0.440  0.179-  29 2.78   9 2.81  20 2.81  21 2.81  18 2.81   6 2.81   5 2.81  14 2.81
                            13 2.81  16 2.81  26 2.81  30 2.91
  18  0.876  0.440  0.179-  22 2.78   7 2.81   6 2.81  21 2.81  16 2.81  19 2.81  17 2.81   4 2.81
                            14 2.81  15 2.81  24 2.84  30 2.86
  19  0.209  0.773  0.179-  23 2.76  10 2.81   8 2.81   7 2.81  16 2.81  13 2.81  21 2.81  18 2.81
                            14 2.81  20 2.81  22 2.82  27 2.83
  20  0.542  0.773  0.179-  23 2.74  29 2.80   9 2.81  11 2.81  17 2.81  14 2.81  15 2.81  21 2.81
                             8 2.81  16 2.81  19 2.81  28 2.84
  21  0.876  0.773  0.179-  27 2.78  12 2.81   7 2.81   9 2.81  18 2.81  15 2.81  19 2.81  13 2.81
                            17 2.81  20 2.81  28 2.84  30 2.91
  22  0.095  0.545  0.283-  25 2.72  37 2.73  31 2.76  30 2.76  16 2.78  18 2.78  24 2.79  19 2.82
                            23 2.86  29 2.86  38 2.88  27 2.89
  23  0.433  0.884  0.281-  20 2.74  14 2.75  19 2.76  31 2.76  24 2.79  32 2.79  28 2.79  29 2.82
                            26 2.85  22 2.86  35 2.87  27 2.88
  24  0.760  0.217  0.286-  32 2.74  30 2.75  23 2.79  26 2.79  22 2.79  25 2.81  28 2.82  14 2.82
                            18 2.84  15 2.85  38 2.89  36 2.92
  25  0.097  0.223  0.287-  33 2.69  38 2.71  22 2.72  34 2.80  24 2.81  28 2.82  29 2.82  27 2.82
                            26 2.83  16 2.84  15 2.86  13 2.89
  26  0.431  0.221  0.285-  33 2.64  29 2.76  24 2.79  30 2.80  17 2.81  35 2.83  13 2.83  25 2.83
                            27 2.83  14 2.84  36 2.85  23 2.85
  27  0.093  0.886  0.283-  37 2.69  28 2.76  21 2.78  13 2.79  30 2.80  34 2.80  25 2.82  19 2.83
                            26 2.83  35 2.86  23 2.88  22 2.89
  28  0.765  0.885  0.286-  32 2.66  27 2.76  34 2.78  29 2.79  39 2.79  23 2.79  24 2.82  25 2.82
                            15 2.83  21 2.84  20 2.84  30 2.86
  29  0.437  0.552  0.284-  31 2.71  26 2.76  33 2.77  17 2.78  28 2.79  20 2.80  39 2.81  30 2.81
                            23 2.82  25 2.82  16 2.83  22 2.86
  30  0.769  0.548  0.289-  37 2.62  24 2.75  22 2.76  39 2.78  27 2.80  26 2.80  29 2.81  36 2.85
                            28 2.86  18 2.86  21 2.91  17 2.91
  31  0.326  0.662  0.383-  29 2.71  32 2.75  22 2.76  23 2.76  39 2.76  35 2.81  38 2.83  37 2.83
                            33 2.87
  32  0.654  0.986  0.384-  28 2.66  39 2.72  24 2.74  31 2.75  34 2.76  23 2.79  35 2.83  38 2.86
                            36 2.92
  33  0.324  0.320  0.384-  26 2.64  36 2.65  25 2.69  35 2.75  29 2.77  38 2.77  34 2.81  39 2.85
                            31 2.87
  34  0.985  0.993  0.389-  38 2.72  32 2.76  37 2.77  39 2.78  28 2.78  27 2.80  25 2.80  33 2.81
                            35 2.84
  35  0.322  0.993  0.389-  36 2.74  33 2.75  37 2.76  31 2.81  26 2.83  32 2.83  34 2.84  27 2.86
                            23 2.87
  36  0.639  0.324  0.395-   1 2.02   2 2.59  33 2.65  35 2.74  39 2.81  26 2.85  30 2.85  24 2.92
                            32 2.92  37 2.96  38 3.02
  37  0.993  0.668  0.382-  30 2.62  27 2.69  22 2.73  35 2.76  34 2.77  31 2.83  39 2.84  38 2.94
                            36 2.96
  38  0.996  0.321  0.392-   2 2.00  25 2.71  34 2.72  33 2.77  31 2.83  32 2.86  22 2.88  24 2.89
                            37 2.94  36 3.02
  39  0.654  0.664  0.390-  32 2.72  31 2.76  34 2.78  30 2.78  28 2.79  36 2.81  29 2.81  37 2.84
                            33 2.85
 

IMPORTANT INFORMATION: All symmetrisations will be switched off!
NOSYMM: (Re-)initialisation of all symmetry stuff for point group C_1.

 
 
 KPOINTS: mesh auto                               

Automatic generation of k-mesh.
Space group operators:
 irot       det(A)        alpha          n_x          n_y          n_z        tau_x        tau_y        tau_z
    1     1.000000     0.000000     1.000000     0.000000     0.000000     0.000000     0.000000     0.000000
 
 Subroutine IBZKPT returns following result:
 ===========================================
 
 Found      4 irreducible k-points:
 
 Following reciprocal coordinates:
            Coordinates               Weight
  0.000000  0.000000  0.000000      1.000000
  0.500000  0.000000  0.000000      1.000000
 -0.000000  0.500000  0.000000      1.000000
  0.500000  0.500000  0.000000      1.000000
 
 Following cartesian coordinates:
            Coordinates               Weight
  0.000000  0.000000  0.000000      1.000000
  0.068522  0.000000  0.000000      1.000000
  0.034261  0.059342  0.000000      1.000000
  0.102783  0.059342  0.000000      1.000000
 


--------------------------------------------------------------------------------------------------------




 Dimension of arrays:
   k-points           NKPTS =      4   k-points in BZ     NKDIM =      4   number of bands    NBANDS=    228
   number of dos      NEDOS =    301   number of ions     NIONS =     39
   non local maximal  LDIM  =      6   non local SUM 2l+1 LMDIM =     18
   total plane-waves  NPLWV = 276480
   max r-space proj   IRMAX =   2756   max aug-charges    IRDMAX=  12646
   dimension x,y,z NGX =    48 NGY =   48 NGZ =  120
   dimension x,y,z NGXF=    96 NGYF=   96 NGZF=  240
   support grid    NGXF=    96 NGYF=   96 NGZF=  240
   ions per type =               1   2  36
   NGX,Y,Z   is equivalent  to a cutoff of   9.47,  9.47,  9.12 a.u.
   NGXF,Y,Z  is equivalent  to a cutoff of  18.94, 18.94, 18.24 a.u.

 SYSTEM =  metal                                   
 POSCAR =  C    O    Pt                            

 Startparameter for this run:
   NWRITE =      2    write-flag & timer
   PREC   = normal    normal or accurate (medium, high low for compatibility)
   ISTART =      0    job   : 0-new  1-cont  2-samecut
   ICHARG =      2    charge: 1-file 2-atom 10-const
   ISPIN  =      1    spin polarized calculation?
   LNONCOLLINEAR =      F non collinear calculations
   LSORBIT =      F    spin-orbit coupling
   INIWAV =      1    electr: 0-lowe 1-rand  2-diag
   LASPH  =      F    aspherical Exc in radial PAW
   METAGGA=      F    non-selfconsistent MetaGGA calc.

 Electronic Relaxation 1
   ENCUT  =  450.0 eV  33.07 Ry    5.75 a.u.  14.57 14.57 37.84*2*pi/ulx,y,z
   ENINI  =  450.0     initial cutoff
   ENAUG  =  644.9 eV  augmentation charge cutoff
   NELM   =     60;   NELMIN=  8; NELMDL= -5     # of ELM steps 
   EDIFF  = 0.1E-03   stopping-criterion for ELM
   LREAL  =      T    real-space projection
   NLSPLINE    = F    spline interpolate recip. space projectors
   LCOMPAT=      F    compatible to vasp.4.4
   GGA_COMPAT  = T    GGA compatible to vasp.4.4-vasp.4.6
   LMAXPAW     = -100 max onsite density
   LMAXMIX     =    2 max onsite mixed and CHGCAR
   VOSKOWN=      0    Vosko Wilk Nusair interpolation
   ROPT   =   -0.00050  -0.00050  -0.00050
 Ionic relaxation
   EDIFFG = -.5E-01   stopping-criterion for IOM
   NSW    =   5000    number of steps for IOM
   NBLOCK =      1;   KBLOCK =   5000    inner block; outer block 
   IBRION =      1    ionic relax: 0-MD 1-quasi-New 2-CG
   NFREE  =      0    steps in history (QN), initial steepest desc. (CG)
   ISIF   =      2    stress and relaxation
   IWAVPR =     11    prediction:  0-non 1-charg 2-wave 3-comb
   ISYM   =      0    0-nonsym 1-usesym 2-fastsym
   LCORR  =      T    Harris-Foulkes like correction to forces

   POTIM  = 0.2000    time-step for ionic-motion
   TEIN   =    0.0    initial temperature
   TEBEG  =    0.0;   TEEND  =   0.0 temperature during run
   SMASS  =  -3.00    Nose mass-parameter (am)
   estimated Nose-frequenzy (Omega)   =  0.10E-29 period in steps =****** mass=  -0.162E-26a.u.
   SCALEE = 1.0000    scale energy and forces
   NPACO  =    256;   APACO  = 16.0  distance and # of slots for P.C.
   PSTRESS=    0.0 pullay stress

  Mass of Ions in am
   POMASS =  12.01 16.00195.08
  Ionic Valenz
   ZVAL   =   4.00  6.00 10.00
  Atomic Wigner-Seitz radii
   RWIGS  =  -1.00 -1.00 -1.00
  virtual crystal weights 
   VCA    =   1.00  1.00  1.00
   NELECT =     376.0000    total number of electrons
   NUPDOWN=      -1.0000    fix difference up-down

 DOS related values:
   EMIN   =  10.00;   EMAX   =-10.00  energy-range for DOS
   EFERMI =   0.00
   ISMEAR =     1;   SIGMA  =   0.20  broadening in eV -4-tet -1-fermi 0-gaus

 Electronic relaxation 2 (details)
   IALGO  =     68    algorithm
   LDIAG  =      T    sub-space diagonalisation (order eigenvalues)
   LSUBROT=      F    optimize rotation matrix (better conditioning)
   TURBO    =      0    0=normal 1=particle mesh
   IRESTART =      0    0=no restart 2=restart with 2 vectors
   NREBOOT  =      0    no. of reboots
   NMIN     =      0    reboot dimension
   EREF     =   0.00    reference energy to select bands
   IMIX   =      4    mixing-type and parameters
     AMIX     =   0.40;   BMIX     =  1.00
     AMIX_MAG =   1.60;   BMIX_MAG =  1.00
     AMIN     =   0.10
     WC   =   100.;   INIMIX=   1;  MIXPRE=   1;  MAXMIX= -45

 Intra band minimization:
   WEIMIN = 0.0010     energy-eigenvalue tresh-hold
   EBREAK =  0.11E-06  absolut break condition
   DEPER  =   0.30     relativ break condition  

   TIME   =   0.40     timestep for ELM

  volume/ion in A,a.u.               =      34.49       232.77
  Fermi-wavevector in a.u.,A,eV,Ry     =   1.070385  2.022734 15.588510  1.145723
  Thomas-Fermi vector in A             =   2.206093
 
 Write flags
   LWAVE        =      F    write WAVECAR
   LDOWNSAMPLE  =      F    k-point downsampling of WAVECAR
   LCHARG       =      F    write CHGCAR
   LVTOT        =      F    write LOCPOT, total local potential
   LVHAR        =      F    write LOCPOT, Hartree potential only
   LELF         =      F    write electronic localiz. function (ELF)
   LORBIT       =      0    0 simple, 1 ext, 2 COOP (PROOUT), +10 PAW based schemes


 Dipole corrections
   LMONO  =      F    monopole corrections only (constant potential shift)
   LDIPOL =      F    correct potential (dipole corrections)
   IDIPOL =      0    1-x, 2-y, 3-z, 4-all directions 
   EPSILON=  1.0000000 bulk dielectric constant

 Exchange correlation treatment:
   GGA     =    --    GGA type
   LEXCH   =     8    internal setting for exchange type
   VOSKOWN=      0    Vosko Wilk Nusair interpolation
   LHFCALC =     F    Hartree Fock is set to
   LHFONE  =     F    Hartree Fock one center treatment
   AEXX    =    0.0000 exact exchange contribution

 Linear response parameters
   LEPSILON=     F    determine dielectric tensor
   LRPA    =     F    only Hartree local field effects (RPA)
   LNABLA  =     F    use nabla operator in PAW spheres
   LVEL    =     F    velocity operator in full k-point grid
   LINTERFAST=   F  fast interpolation
   KINTER  =     0    interpolate to denser k-point grid
   CSHIFT  =0.1000    complex shift for real part using Kramers Kronig
   OMEGAMAX=  -1.0    maximum frequency
   DEG_THRESHOLD= 0.2000000E-02 threshold for treating states as degnerate
   RTIME   =   -0.100 relaxation time in fs
  (WPLASMAI=    0.000 imaginary part of plasma frequency in eV, 0.658/RTIME)
   DFIELD  = 0.0000000 0.0000000 0.0000000 field for delta impulse in time
 
 Orbital magnetization related:
   ORBITALMAG=     F  switch on orbital magnetization
   LCHIMAG   =     F  perturbation theory with respect to B field
   DQ        =  0.001000  dq finite difference perturbation B field
   LLRAUG    =     F  two centre corrections for induced B field



--------------------------------------------------------------------------------------------------------


 quasi-Newton-method for relaxation of ions
   using selective dynamics as specified on POSCAR
 charge density and potential will be updated during run
 non-spin polarized calculation
 RMM-DIIS sequential band-by-band and
  variant of blocked Davidson during initial phase
 perform sub-space diagonalisation
    before iterative eigenvector-optimisation
 modified Broyden-mixing scheme, WC =      100.0
 initial mixing is a Kerker type mixing with AMIX =  0.4000 and BMIX =      1.0000
 Hartree-type preconditioning will be used
 using additional bands           40
 real space projection scheme for non local part
 use partial core corrections
 calculate Harris-corrections to forces 
   (improved forces if not selfconsistent)
 use gradient corrections 
 use of overlap-Matrix (Vanderbilt PP)
 Methfessel and Paxton  Order N= 1 SIGMA  =   0.20


--------------------------------------------------------------------------------------------------------


  energy-cutoff  :      450.00
  volume of cell :     1345.22
      direct lattice vectors                 reciprocal lattice vectors
     7.296955120 -4.212899000  0.000000000     0.137043463  0.000000000  0.000000000
     0.000000000  8.425798000  0.000000000     0.068521732  0.118683121  0.000000000
     0.000000000  0.000000000 21.879635000     0.000000000  0.000000000  0.045704602

  length of vectors
     8.425798004  8.425798000 21.879635000     0.137043463  0.137043463  0.045704602


 
 k-points in units of 2pi/SCALE and weight: mesh auto                               
   0.00000000  0.00000000  0.00000000       0.250
   0.06852173  0.00000000  0.00000000       0.250
   0.03426087  0.05934156  0.00000000       0.250
   0.10278260  0.05934156  0.00000000       0.250
 
 k-points in reciprocal lattice and weights: mesh auto                               
   0.00000000  0.00000000  0.00000000       0.250
   0.50000000  0.00000000  0.00000000       0.250
  -0.00000000  0.50000000  0.00000000       0.250
   0.50000000  0.50000000  0.00000000       0.250
 
 position of ions in fractional coordinates (direct lattice) 
   0.70237288  0.43088898  0.47991585
   0.90560350  0.38317605  0.46753582
   0.67423633  0.45774486  0.52980438
   0.98675500  0.32859100  0.07437600
   0.32008800  0.32859100  0.07437600
   0.65342200  0.32859100  0.07437600
   0.98675500  0.66192500  0.07437600
   0.32008800  0.66192500  0.07437600
   0.65342200  0.66192500  0.07437600
   0.32008800  0.99525800  0.07437600
   0.65342200  0.99525800  0.07437600
   0.98675500  0.99525800  0.07437600
   0.20897700  0.10636900  0.17918600
   0.54231100  0.10636900  0.17918600
   0.87564400  0.10636900  0.17918600
   0.20897700  0.43970300  0.17918600
   0.54231100  0.43970300  0.17918600
   0.87564400  0.43970300  0.17918600
   0.20897700  0.77303600  0.17918600
   0.54231100  0.77303600  0.17918600
   0.87564400  0.77303600  0.17918600
   0.09487115  0.54459806  0.28296035
   0.43337126  0.88384444  0.28059235
   0.76043583  0.21727387  0.28564174
   0.09685819  0.22296335  0.28701080
   0.43149110  0.22102374  0.28491690
   0.09343800  0.88633471  0.28336426
   0.76546641  0.88527289  0.28551877
   0.43740047  0.55182021  0.28357566
   0.76911303  0.54793416  0.28877534
   0.32561942  0.66180140  0.38273532
   0.65408957  0.98624011  0.38444082
   0.32393360  0.31998302  0.38371025
   0.98516771  0.99268583  0.38933569
   0.32215562  0.99275813  0.38920867
   0.63906697  0.32396420  0.39504860
   0.99296368  0.66822541  0.38240780
   0.99648512  0.32142308  0.39158020
   0.65416367  0.66425781  0.38967785
 
 position of ions in cartesian coordinates  (Angst):
   5.12518336  0.67155753 10.50038364
   6.60814806 -0.58665207 10.22951318
   4.91987226  1.01637619 11.59192651
   7.20030695 -1.38845776  1.62731973
   2.33566777  1.42014298  1.62731973
   4.76799101  0.01584050  1.62731973
   7.20030695  1.42014719  1.62731973
   2.33566777  4.22874793  1.62731973
   4.76799101  2.82444545  1.62731973
   2.33566777  7.03734445  1.62731973
   4.76799101  5.63304198  1.62731973
   7.20030695  4.22874371  1.62731973
   1.52489579  0.01584471  3.92052428
   3.95721903 -1.38845776  3.92052428
   6.38953497 -2.79275602  3.92052428
   1.52489579  2.82444966  3.92052428
   3.95721903  1.42014719  3.92052428
   6.38953497  0.01584893  3.92052428
   1.52489579  5.63304619  3.92052428
   3.95721903  4.22874371  3.92052428
   6.38953497  2.82444545  3.92052428
   0.69227050  4.18899067  6.19106925
   3.16229062  5.62134541  6.13925830
   5.54886611 -1.37293356  6.24973693
   0.70676989  1.47059034  6.27969155
   3.14857118  0.04447300  6.23387768
   0.68181286  7.07443239  6.19990654
   5.58557403  4.23429787  6.24704651
   3.19169160  2.80680160  6.20453195
   5.61218324  1.37658701  6.31829910
   2.37603028  4.20440317  8.37410903
   4.77286226  5.55424665  8.41142489
   2.36372896  1.33141278  8.39544013
   7.18872454  4.21375825  8.51852286
   2.35075511  7.00757039  8.51574371
   4.66324297  0.03733235  8.64351922
   7.24561140  1.44707666  8.36694305
   7.27130717 -1.48984523  8.56763180
   4.77340297  2.84097661  8.52600923
 


--------------------------------------------------------------------------------------------------------


 k-point  1 :   0.0000 0.0000 0.0000  plane waves:   29241
 k-point  2 :   0.5000 0.0000 0.0000  plane waves:   29108
 k-point  3 :  -0.0000 0.5000 0.0000  plane waves:   29108
 k-point  4 :   0.5000 0.5000 0.0000  plane waves:   29108

 maximum and minimum number of plane-waves per node :     14624    14548

 maximum number of plane-waves:     29241
 maximum index in each direction: 
   IXMAX=   14   IYMAX=   14   IZMAX=   37
   IXMIN=  -15   IYMIN=  -15   IZMIN=  -37


 real space projection operators:
  total allocation   :      13548.00 KBytes
  max/ min on nodes  :       6782.02       6765.98


 parallel 3D FFT for wavefunctions:
    minimum data exchange during FFTs selected (reduces bandwidth)
 parallel 3D FFT for charge:
    minimum data exchange during FFTs selected (reduces bandwidth)


 total amount of memory used by VASP MPI-rank0   131949. kBytes
=======================================================================

   base      :      30000. kBytes
   nonlr-proj:      10141. kBytes
   fftplans  :      13556. kBytes
   grid      :      23353. kBytes
   one-center:        311. kBytes
   wavefun   :      54588. kBytes
 
     INWAV:  cpu time    0.0000: real time    0.0000
 Broyden mixing: mesh for mixing (old mesh)
   NGX = 29   NGY = 29   NGZ = 75
  (NGX  = 96   NGY  = 96   NGZ  =240)
  gives a total of  63075 points

 initial charge density was supplied:
 charge density of overlapping atoms calculated
 number of electron     376.0000000 magnetization 
 keeping initial charge density in first step


--------------------------------------------------------------------------------------------------------


 Maximum index for non-local projection operator         1321
 Maximum index for augmentation-charges         1558 (set IRDMAX)


--------------------------------------------------------------------------------------------------------


 First call to EWALD:  gamma=   0.161
 Maximum number of real-space cells 4x 4x 2
 Maximum number of reciprocal cells 2x 2x 5

    FEWALD:  cpu time    0.0023: real time    0.0023


--------------------------------------- Iteration      1(   1)  ---------------------------------------


    POTLOK:  cpu time    0.1558: real time    0.5316
    SETDIJ:  cpu time    0.0145: real time    0.0145
     EDDAV:  cpu time    8.3378: real time    8.3923
       DOS:  cpu time    0.0012: real time    0.0012
    --------------------------------------------
      LOOP:  cpu time    8.5093: real time    8.9396

 eigenvalue-minimisations  :  1824
 total energy-change (2. order) : 0.2419625E+04  (-0.1595228E+05)
 number of electron     376.0000000 magnetization 
 augmentation part      376.0000000 magnetization 

 Free energy of the ion-electron system (eV)
  ---------------------------------------------------
  alpha Z        PSCENC =       975.10247152
  Ewald energy   TEWEN  =     91266.22815196
  -Hartree energ DENC   =   -120355.34316797
  -exchange      EXHF   =         0.00000000
  -V(xc)+E(xc)   XCENC  =       189.76063981
  PAW double counting   =     24789.08602224   -23775.73976456
  entropy T*S    EENTRO =        -0.01408024
  eigenvalues    EBANDS =      2070.65007843
  atomic energy  EATOM  =     27259.89416086
  Solvation  Ediel_sol  =         0.00000000
  ---------------------------------------------------
  free energy    TOTEN  =      2419.62451205 eV

  energy without entropy =     2419.63859228  energy(sigma->0) =     2419.62920546


--------------------------------------------------------------------------------------------------------




--------------------------------------- Iteration      1(   2)  ---------------------------------------


     EDDAV:  cpu time   10.0500: real time   10.1158
       DOS:  cpu time    0.0011: real time    0.0011
    --------------------------------------------
      LOOP:  cpu time   10.0511: real time   10.1169

 eigenvalue-minimisations  :  2120
 total energy-change (2. order) :-0.2483290E+04  (-0.2310515E+04)
 number of electron     376.0000000 magnetization 
 augmentation part      376.0000000 magnetization 

 Free energy of the ion-electron system (eV)
  ---------------------------------------------------
  alpha Z        PSCENC =       975.10247152
  Ewald energy   TEWEN  =     91266.22815196
  -Hartree energ DENC   =   -120355.34316797
  -exchange      EXHF   =         0.00000000
  -V(xc)+E(xc)   XCENC  =       189.76063981
  PAW double counting   =     24789.08602224   -23775.73976456
  entropy T*S    EENTRO =        -0.00023659
  eigenvalues    EBANDS =      -412.65365097
  atomic energy  EATOM  =     27259.89416086
  Solvation  Ediel_sol  =         0.00000000
  ---------------------------------------------------
  free energy    TOTEN  =       -63.66537370 eV

  energy without entropy =      -63.66513711  energy(sigma->0) =      -63.66529484


--------------------------------------------------------------------------------------------------------




--------------------------------------- Iteration      1(   3)  ---------------------------------------


     EDDAV:  cpu time   11.9559: real time   12.0254
       DOS:  cpu time    0.0011: real time    0.0011
    --------------------------------------------
      LOOP:  cpu time   11.9570: real time   12.0265

 eigenvalue-minimisations  :  2184
 total energy-change (2. order) :-0.1771598E+03  (-0.1610071E+03)
 number of electron     376.0000000 magnetization 
 augmentation part      376.0000000 magnetization 

 Free energy of the ion-electron system (eV)
  ---------------------------------------------------
  alpha Z        PSCENC =       975.10247152
  Ewald energy   TEWEN  =     91266.22815196
  -Hartree energ DENC   =   -120355.34316797
  -exchange      EXHF   =         0.00000000
  -V(xc)+E(xc)   XCENC  =       189.76063981
  PAW double counting   =     24789.08602224   -23775.73976456
  entropy T*S    EENTRO =         0.01758669
  eigenvalues    EBANDS =      -589.83127136
  atomic energy  EATOM  =     27259.89416086
  Solvation  Ediel_sol  =         0.00000000
  ---------------------------------------------------
  free energy    TOTEN  =      -240.82517082 eV

  energy without entropy =     -240.84275751  energy(sigma->0) =     -240.83103305


--------------------------------------------------------------------------------------------------------




--------------------------------------- Iteration      1(   4)  ---------------------------------------


     EDDAV:  cpu time   13.2257: real time   13.3051
       DOS:  cpu time    0.0011: real time    0.0011
    --------------------------------------------
      LOOP:  cpu time   13.2268: real time   13.3062

 eigenvalue-minimisations  :  2332
 total energy-change (2. order) :-0.7467138E+01  (-0.7206071E+01)
 number of electron     376.0000000 magnetization 
 augmentation part      376.0000000 magnetization 

 Free energy of the ion-electron system (eV)
  ---------------------------------------------------
  alpha Z        PSCENC =       975.10247152
  Ewald energy   TEWEN  =     91266.22815196
  -Hartree energ DENC   =   -120355.34316797
  -exchange      EXHF   =         0.00000000
  -V(xc)+E(xc)   XCENC  =       189.76063981
  PAW double counting   =     24789.08602224   -23775.73976456
  entropy T*S    EENTRO =         0.01308537
  eigenvalues    EBANDS =      -597.29390846
  atomic energy  EATOM  =     27259.89416086
  Solvation  Ediel_sol  =         0.00000000
  ---------------------------------------------------
  free energy    TOTEN  =      -248.29230923 eV

  energy without entropy =     -248.30539460  energy(sigma->0) =     -248.29667102


--------------------------------------------------------------------------------------------------------




--------------------------------------- Iteration      1(   5)  ---------------------------------------


     EDDAV:  cpu time   13.7354: real time   13.8196
       DOS:  cpu time    0.0011: real time    0.0011
    CHARGE:  cpu time    0.5403: real time    0.5435
    MIXING:  cpu time    0.0227: real time    0.0228
    --------------------------------------------
      LOOP:  cpu time   14.2996: real time   14.3870

 eigenvalue-minimisations  :  2520
 total energy-change (2. order) :-0.2255643E+00  (-0.2233301E+00)
 number of electron     376.0000026 magnetization 
 augmentation part      105.8165282 magnetization 

 Broyden mixing:
  rms(total) = 0.27251E+01    rms(broyden)= 0.27247E+01
  rms(prec ) = 0.30343E+01
  weight for this iteration     100.00

 Free energy of the ion-electron system (eV)
  ---------------------------------------------------
  alpha Z        PSCENC =       975.10247152
  Ewald energy   TEWEN  =     91266.22815196
  -Hartree energ DENC   =   -120355.34316797
  -exchange      EXHF   =         0.00000000
  -V(xc)+E(xc)   XCENC  =       189.76063981
  PAW double counting   =     24789.08602224   -23775.73976456
  entropy T*S    EENTRO =         0.01324648
  eigenvalues    EBANDS =      -597.51963385
  atomic energy  EATOM  =     27259.89416086
  Solvation  Ediel_sol  =         0.00000000
  ---------------------------------------------------
  free energy    TOTEN  =      -248.51787352 eV

  energy without entropy =     -248.53111999  energy(sigma->0) =     -248.52228901


--------------------------------------------------------------------------------------------------------




--------------------------------------- Iteration      1(   6)  ---------------------------------------


    POTLOK:  cpu time    0.1976: real time    0.1989
    SETDIJ:  cpu time    0.0169: real time    0.0170
    EDDIAG:  cpu time    1.9392: real time    1.9510
  RMM-DIIS:  cpu time    6.5881: real time    6.6299
    ORTHCH:  cpu time    0.2392: real time    0.2407
       DOS:  cpu time    0.0013: real time    0.0013
    CHARGE:  cpu time    0.5509: real time    0.5545
    MIXING:  cpu time    0.0068: real time    0.0069
    --------------------------------------------
      LOOP:  cpu time    9.5400: real time    9.6002

 eigenvalue-minimisations  :  1832
 total energy-change (2. order) : 0.1719139E+01  (-0.5396354E+01)
 number of electron     376.0000026 magnetization 
 augmentation part      112.8558775 magnetization 

 Broyden mixing:
  rms(total) = 0.30951E+01    rms(broyden)= 0.30942E+01
  rms(prec ) = 0.42843E+01
  weight for this iteration     100.00

 eigenvalues of (default mixing * dielectric matrix)
  average eigenvalue GAMMA=   0.4702
  0.4702

 Free energy of the ion-electron system (eV)
  ---------------------------------------------------
  alpha Z        PSCENC =       975.10247152
  Ewald energy   TEWEN  =     91266.22815196
  -Hartree energ DENC   =   -119894.48966552
  -exchange      EXHF   =         0.00000000
  -V(xc)+E(xc)   XCENC  =       182.62978517
  PAW double counting   =     26735.71541706   -25776.10771624
  entropy T*S    EENTRO =        -0.16879419
  eigenvalues    EBANDS =      -995.60254470
  atomic energy  EATOM  =     27259.89416086
  Solvation  Ediel_sol  =         0.00000000
  ---------------------------------------------------
  free energy    TOTEN  =      -246.79873407 eV

  energy without entropy =     -246.62993988  energy(sigma->0) =     -246.74246934


--------------------------------------------------------------------------------------------------------




--------------------------------------- Iteration      1(   7)  ---------------------------------------


    POTLOK:  cpu time    0.1556: real time    0.1569
    SETDIJ:  cpu time    0.0121: real time    0.0122
    EDDIAG:  cpu time    1.6419: real time    1.6511
  RMM-DIIS:  cpu time    4.5390: real time    4.5652
    ORTHCH:  cpu time    0.2077: real time    0.2089
       DOS:  cpu time    0.0012: real time    0.0012
    CHARGE:  cpu time    0.3654: real time    0.3674
    MIXING:  cpu time    0.0047: real time    0.0047
    --------------------------------------------
      LOOP:  cpu time    6.9276: real time    6.9675

 eigenvalue-minimisations  :  1831
 total energy-change (2. order) :-0.1062411E+01  (-0.3217379E+01)
 number of electron     376.0000040 magnetization 
 augmentation part      111.3495730 magnetization 

 Broyden mixing:
  rms(total) = 0.23495E+01    rms(broyden)= 0.23488E+01
  rms(prec ) = 0.42538E+01
  weight for this iteration     100.00

 eigenvalues of (default mixing * dielectric matrix)
  average eigenvalue GAMMA=   0.5220
  0.8215  0.2226

 Free energy of the ion-electron system (eV)
  ---------------------------------------------------
  alpha Z        PSCENC =       975.10247152
  Ewald energy   TEWEN  =     91266.22815196
  -Hartree energ DENC   =   -120079.80076866
  -exchange      EXHF   =         0.00000000
  -V(xc)+E(xc)   XCENC  =       180.46827059
  PAW double counting   =     27336.20287538   -26383.43804847
  entropy T*S    EENTRO =        -0.13221001
  eigenvalues    EBANDS =      -802.38604806
  atomic energy  EATOM  =     27259.89416086
  Solvation  Ediel_sol  =         0.00000000
  ---------------------------------------------------
  free energy    TOTEN  =      -247.86114489 eV

  energy without entropy =     -247.72893488  energy(sigma->0) =     -247.81707489


--------------------------------------------------------------------------------------------------------




--------------------------------------- Iteration      1(   8)  ---------------------------------------


    POTLOK:  cpu time    0.1193: real time    0.1200
    SETDIJ:  cpu time    0.0120: real time    0.0120
    EDDIAG:  cpu time    1.3817: real time    1.3891
  RMM-DIIS:  cpu time    4.6437: real time    4.6705
    ORTHCH:  cpu time    0.2236: real time    0.2248
       DOS:  cpu time    0.0011: real time    0.0011
    CHARGE:  cpu time    0.4312: real time    0.4336
    MIXING:  cpu time    0.0055: real time    0.0055
    --------------------------------------------
      LOOP:  cpu time    6.8181: real time    6.8567

 eigenvalue-minimisations  :  1827
 total energy-change (2. order) : 0.3943710E+01  (-0.1119718E+01)
 number of electron     376.0000033 magnetization 
 augmentation part      111.7947231 magnetization 

 Broyden mixing:
  rms(total) = 0.23399E+01    rms(broyden)= 0.23397E+01
  rms(prec ) = 0.37509E+01
  weight for this iteration     100.00

 eigenvalues of (default mixing * dielectric matrix)
  average eigenvalue GAMMA=   0.5135
  1.1388  0.2617  0.1400

 Free energy of the ion-electron system (eV)
  ---------------------------------------------------
  alpha Z        PSCENC =       975.10247152
  Ewald energy   TEWEN  =     91266.22815196
  -Hartree energ DENC   =   -120071.53768107
  -exchange      EXHF   =         0.00000000
  -V(xc)+E(xc)   XCENC  =       179.42664388
  PAW double counting   =     27871.23779889   -26926.82460418
  entropy T*S    EENTRO =        -0.00411880
  eigenvalues    EBANDS =      -797.44025755
  atomic energy  EATOM  =     27259.89416086
  Solvation  Ediel_sol  =         0.00000000
  ---------------------------------------------------
  free energy    TOTEN  =      -243.91743449 eV

  energy without entropy =     -243.91331569  energy(sigma->0) =     -243.91606155


--------------------------------------------------------------------------------------------------------




--------------------------------------- Iteration      1(   9)  ---------------------------------------


    POTLOK:  cpu time    0.1387: real time    0.1395
    SETDIJ:  cpu time    0.0118: real time    0.0119
    EDDIAG:  cpu time    1.5573: real time    1.5660
  RMM-DIIS:  cpu time    5.3238: real time    5.3577
    ORTHCH:  cpu time    0.2666: real time    0.2681
       DOS:  cpu time    0.0011: real time    0.0011
    CHARGE:  cpu time    0.4764: real time    0.4792
    MIXING:  cpu time    0.0063: real time    0.0063
    --------------------------------------------
      LOOP:  cpu time    7.7821: real time    7.8298

 eigenvalue-minimisations  :  1831
 total energy-change (2. order) : 0.1175720E+02  (-0.6883628E+00)
 number of electron     376.0000030 magnetization 
 augmentation part      112.5810853 magnetization 

 Broyden mixing:
  rms(total) = 0.95970E+00    rms(broyden)= 0.95951E+00
  rms(prec ) = 0.11895E+01
  weight for this iteration     100.00

 eigenvalues of (default mixing * dielectric matrix)
  average eigenvalue GAMMA=   0.5165
  1.2871  0.3209  0.3209  0.1371

 Free energy of the ion-electron system (eV)
  ---------------------------------------------------
  alpha Z        PSCENC =       975.10247152
  Ewald energy   TEWEN  =     91266.22815196
  -Hartree energ DENC   =   -119985.31649990
  -exchange      EXHF   =         0.00000000
  -V(xc)+E(xc)   XCENC  =       178.64859221
  PAW double counting   =     28645.99144158   -27713.70213442
  entropy T*S    EENTRO =        -0.07388896
  eigenvalues    EBANDS =      -858.93252928
  atomic energy  EATOM  =     27259.89416086
  Solvation  Ediel_sol  =         0.00000000
  ---------------------------------------------------
  free energy    TOTEN  =      -232.16023444 eV

  energy without entropy =     -232.08634547  energy(sigma->0) =     -232.13560478


--------------------------------------------------------------------------------------------------------




--------------------------------------- Iteration      1(  10)  ---------------------------------------


    POTLOK:  cpu time    0.1321: real time    0.1331
    SETDIJ:  cpu time    0.0121: real time    0.0122
    EDDIAG:  cpu time    1.3137: real time    1.3215
  RMM-DIIS:  cpu time    4.7001: real time    4.7317
    ORTHCH:  cpu time    0.2257: real time    0.2270
       DOS:  cpu time    0.0012: real time    0.0012
    CHARGE:  cpu time    0.5178: real time    0.5206
    MIXING:  cpu time    0.0056: real time    0.0056
    --------------------------------------------
      LOOP:  cpu time    6.9083: real time    6.9529

 eigenvalue-minimisations  :  1831
 total energy-change (2. order) : 0.1498179E+01  (-0.2066611E+00)
 number of electron     376.0000032 magnetization 
 augmentation part      112.7473334 magnetization 

 Broyden mixing:
  rms(total) = 0.53299E+00    rms(broyden)= 0.53292E+00
  rms(prec ) = 0.66967E+00
  weight for this iteration     100.00

 eigenvalues of (default mixing * dielectric matrix)
  average eigenvalue GAMMA=   0.5400
  1.3876  0.4577  0.4577  0.1387  0.2584

 Free energy of the ion-electron system (eV)
  ---------------------------------------------------
  alpha Z        PSCENC =       975.10247152
  Ewald energy   TEWEN  =     91266.22815196
  -Hartree energ DENC   =   -119975.28534307
  -exchange      EXHF   =         0.00000000
  -V(xc)+E(xc)   XCENC  =       178.50337294
  PAW double counting   =     29028.89335423   -28101.94611358
  entropy T*S    EENTRO =         0.02924460
  eigenvalues    EBANDS =      -862.08135503
  atomic energy  EATOM  =     27259.89416086
  Solvation  Ediel_sol  =         0.00000000
  ---------------------------------------------------
  free energy    TOTEN  =      -230.66205557 eV

  energy without entropy =     -230.69130017  energy(sigma->0) =     -230.67180377


--------------------------------------------------------------------------------------------------------




--------------------------------------- Iteration      1(  11)  ---------------------------------------


    POTLOK:  cpu time    0.1258: real time    0.1266
    SETDIJ:  cpu time    0.0108: real time    0.0108
    EDDIAG:  cpu time    1.4396: real time    1.4478
  RMM-DIIS:  cpu time    4.7686: real time    4.8059
    ORTHCH:  cpu time    0.2877: real time    0.2894
       DOS:  cpu time    0.0013: real time    0.0013
    CHARGE:  cpu time    0.4632: real time    0.4662
    MIXING:  cpu time    0.0055: real time    0.0055
    --------------------------------------------
      LOOP:  cpu time    7.1025: real time    7.1536

 eigenvalue-minimisations  :  1830
 total energy-change (2. order) : 0.2854277E+00  (-0.5165814E-01)
 number of electron     376.0000031 magnetization 
 augmentation part      112.8835060 magnetization 

 Broyden mixing:
  rms(total) = 0.36687E+00    rms(broyden)= 0.36653E+00
  rms(prec ) = 0.49212E+00
  weight for this iteration     100.00

 eigenvalues of (default mixing * dielectric matrix)
  average eigenvalue GAMMA=   0.5617
  1.5230  0.8096  0.1377  0.3349  0.3349  0.2301

 Free energy of the ion-electron system (eV)
  ---------------------------------------------------
  alpha Z        PSCENC =       975.10247152
  Ewald energy   TEWEN  =     91266.22815196
  -Hartree energ DENC   =   -119970.19895103
  -exchange      EXHF   =         0.00000000
  -V(xc)+E(xc)   XCENC  =       178.50377158
  PAW double counting   =     29314.39874575   -28391.15573170
  entropy T*S    EENTRO =        -0.01235140
  eigenvalues    EBANDS =      -863.13689545
  atomic energy  EATOM  =     27259.89416086
  Solvation  Ediel_sol  =         0.00000000
  ---------------------------------------------------
  free energy    TOTEN  =      -230.37662791 eV

  energy without entropy =     -230.36427651  energy(sigma->0) =     -230.37251077


--------------------------------------------------------------------------------------------------------




--------------------------------------- Iteration      1(  12)  ---------------------------------------


    POTLOK:  cpu time    0.1411: real time    0.1421
    SETDIJ:  cpu time    0.0114: real time    0.0114
    EDDIAG:  cpu time    1.3917: real time    1.4005
  RMM-DIIS:  cpu time    3.8720: real time    3.8987
    ORTHCH:  cpu time    0.2903: real time    0.2919
       DOS:  cpu time    0.0011: real time    0.0011
    CHARGE:  cpu time    0.5411: real time    0.5442
    MIXING:  cpu time    0.0064: real time    0.0064
    --------------------------------------------
      LOOP:  cpu time    6.2548: real time    6.2962

 eigenvalue-minimisations  :  1844
 total energy-change (2. order) : 0.2225065E+00  (-0.2238057E-01)
 number of electron     376.0000031 magnetization 
 augmentation part      112.9403252 magnetization 

 Broyden mixing:
  rms(total) = 0.18064E+00    rms(broyden)= 0.18059E+00
  rms(prec ) = 0.19285E+00
  weight for this iteration     100.00

 eigenvalues of (default mixing * dielectric matrix)
  average eigenvalue GAMMA=   0.6564
  1.8108  1.0159  0.6715  0.4370  0.1378  0.2767  0.2449

 Free energy of the ion-electron system (eV)
  ---------------------------------------------------
  alpha Z        PSCENC =       975.10247152
  Ewald energy   TEWEN  =     91266.22815196
  -Hartree energ DENC   =   -119961.23951274
  -exchange      EXHF   =         0.00000000
  -V(xc)+E(xc)   XCENC  =       178.46646070
  PAW double counting   =     29598.61186990   -28678.85592907
  entropy T*S    EENTRO =        -0.00599141
  eigenvalues    EBANDS =      -868.35580313
  atomic energy  EATOM  =     27259.89416086
  Solvation  Ediel_sol  =         0.00000000
  ---------------------------------------------------
  free energy    TOTEN  =      -230.15412142 eV

  energy without entropy =     -230.14813000  energy(sigma->0) =     -230.15212428


--------------------------------------------------------------------------------------------------------




--------------------------------------- Iteration      1(  13)  ---------------------------------------


    POTLOK:  cpu time    0.1482: real time    0.1491
    SETDIJ:  cpu time    0.0131: real time    0.0132
    EDDIAG:  cpu time    1.3813: real time    1.3893
  RMM-DIIS:  cpu time    5.2543: real time    5.2870
    ORTHCH:  cpu time    0.2445: real time    0.2459
       DOS:  cpu time    0.0012: real time    0.0012
    CHARGE:  cpu time    0.4438: real time    0.4463
    MIXING:  cpu time    0.0070: real time    0.0070
    --------------------------------------------
      LOOP:  cpu time    7.4933: real time    7.5389

 eigenvalue-minimisations  :  1831
 total energy-change (2. order) :-0.1509328E-01  (-0.1251409E-01)
 number of electron     376.0000030 magnetization 
 augmentation part      112.9638140 magnetization 

 Broyden mixing:
  rms(total) = 0.19816E+00    rms(broyden)= 0.19815E+00
  rms(prec ) = 0.24560E+00
  weight for this iteration     100.00

 eigenvalues of (default mixing * dielectric matrix)
  average eigenvalue GAMMA=   0.6852
  2.0518  1.1092  0.9066  0.1378  0.4146  0.3218  0.3114  0.2281

 Free energy of the ion-electron system (eV)
  ---------------------------------------------------
  alpha Z        PSCENC =       975.10247152
  Ewald energy   TEWEN  =     91266.22815196
  -Hartree energ DENC   =   -119959.11224909
  -exchange      EXHF   =         0.00000000
  -V(xc)+E(xc)   XCENC  =       178.37387869
  PAW double counting   =     29863.78014958   -28947.19874139
  entropy T*S    EENTRO =        -0.00821114
  eigenvalues    EBANDS =      -867.22882569
  atomic energy  EATOM  =     27259.89416086
  Solvation  Ediel_sol  =         0.00000000
  ---------------------------------------------------
  free energy    TOTEN  =      -230.16921470 eV

  energy without entropy =     -230.16100356  energy(sigma->0) =     -230.16647765


--------------------------------------------------------------------------------------------------------




--------------------------------------- Iteration      1(  14)  ---------------------------------------


    POTLOK:  cpu time    0.1433: real time    0.1442
    SETDIJ:  cpu time    0.0121: real time    0.0122
    EDDIAG:  cpu time    1.3720: real time    1.3801
  RMM-DIIS:  cpu time    4.1943: real time    4.2206
    ORTHCH:  cpu time    0.2123: real time    0.2135
       DOS:  cpu time    0.0011: real time    0.0011
    CHARGE:  cpu time    0.3521: real time    0.3543
    MIXING:  cpu time    0.0058: real time    0.0058
    --------------------------------------------
      LOOP:  cpu time    6.2931: real time    6.3319

 eigenvalue-minimisations  :  1832
 total energy-change (2. order) : 0.4529925E-01  (-0.9231040E-02)
 number of electron     376.0000031 magnetization 
 augmentation part      112.9551097 magnetization 

 Broyden mixing:
  rms(total) = 0.11051E+00    rms(broyden)= 0.11050E+00
  rms(prec ) = 0.14307E+00
  weight for this iteration     100.00

 eigenvalues of (default mixing * dielectric matrix)
  average eigenvalue GAMMA=   0.7340
  2.4279  1.2687  0.7971  0.7971  0.3828  0.1378  0.3069  0.2588  0.2287

 Free energy of the ion-electron system (eV)
  ---------------------------------------------------
  alpha Z        PSCENC =       975.10247152
  Ewald energy   TEWEN  =     91266.22815196
  -Hartree energ DENC   =   -119962.81480495
  -exchange      EXHF   =         0.00000000
  -V(xc)+E(xc)   XCENC  =       178.31339484
  PAW double counting   =     30011.59418451   -29096.73616288
  entropy T*S    EENTRO =        -0.01164647
  eigenvalues    EBANDS =      -861.69366485
  atomic energy  EATOM  =     27259.89416086
  Solvation  Ediel_sol  =         0.00000000
  ---------------------------------------------------
  free energy    TOTEN  =      -230.12391545 eV

  energy without entropy =     -230.11226898  energy(sigma->0) =     -230.12003329


--------------------------------------------------------------------------------------------------------




--------------------------------------- Iteration      1(  15)  ---------------------------------------


    POTLOK:  cpu time    0.1432: real time    0.1443
    SETDIJ:  cpu time    0.0127: real time    0.0127
    EDDIAG:  cpu time    1.4351: real time    1.4441
  RMM-DIIS:  cpu time    4.1150: real time    4.1432
    ORTHCH:  cpu time    0.2135: real time    0.2148
       DOS:  cpu time    0.0011: real time    0.0011
    CHARGE:  cpu time    0.4058: real time    0.4082
    MIXING:  cpu time    0.0064: real time    0.0064
    --------------------------------------------
      LOOP:  cpu time    6.3328: real time    6.3749

 eigenvalue-minimisations  :  1831
 total energy-change (2. order) : 0.7386396E-02  (-0.3590401E-02)
 number of electron     376.0000031 magnetization 
 augmentation part      112.9350844 magnetization 

 Broyden mixing:
  rms(total) = 0.74845E-01    rms(broyden)= 0.74772E-01
  rms(prec ) = 0.97927E-01
  weight for this iteration     100.00

 eigenvalues of (default mixing * dielectric matrix)
  average eigenvalue GAMMA=   0.7062
  2.4630  1.2643  0.8346  0.8346  0.4288  0.1378  0.3264  0.2916  0.2276  0.2535

 Free energy of the ion-electron system (eV)
  ---------------------------------------------------
  alpha Z        PSCENC =       975.10247152
  Ewald energy   TEWEN  =     91266.22815196
  -Hartree energ DENC   =   -119963.49608588
  -exchange      EXHF   =         0.00000000
  -V(xc)+E(xc)   XCENC  =       178.28123710
  PAW double counting   =     30121.63217759   -29207.96864246
  entropy T*S    EENTRO =        -0.00247237
  eigenvalues    EBANDS =      -859.78752737
  atomic energy  EATOM  =     27259.89416086
  Solvation  Ediel_sol  =         0.00000000
  ---------------------------------------------------
  free energy    TOTEN  =      -230.11652905 eV

  energy without entropy =     -230.11405668  energy(sigma->0) =     -230.11570493


--------------------------------------------------------------------------------------------------------




--------------------------------------- Iteration      1(  16)  ---------------------------------------


    POTLOK:  cpu time    0.1179: real time    0.1187
    SETDIJ:  cpu time    0.0094: real time    0.0095
    EDDIAG:  cpu time    1.1541: real time    1.1611
  RMM-DIIS:  cpu time    3.9998: real time    4.0291
    ORTHCH:  cpu time    0.2002: real time    0.2014
       DOS:  cpu time    0.0013: real time    0.0013
    CHARGE:  cpu time    0.3358: real time    0.3380
    MIXING:  cpu time    0.0050: real time    0.0051
    --------------------------------------------
      LOOP:  cpu time    5.8236: real time    5.8642

 eigenvalue-minimisations  :  1828
 total energy-change (2. order) : 0.9124759E-02  (-0.9124338E-03)
 number of electron     376.0000031 magnetization 
 augmentation part      112.9383284 magnetization 

 Broyden mixing:
  rms(total) = 0.21596E-01    rms(broyden)= 0.21582E-01
  rms(prec ) = 0.25526E-01
  weight for this iteration     100.00

 eigenvalues of (default mixing * dielectric matrix)
  average eigenvalue GAMMA=   0.6983
  2.5093  1.2730  0.8327  0.8327  0.5985  0.1378  0.4113  0.3045  0.3045  0.2282
  0.2482

 Free energy of the ion-electron system (eV)
  ---------------------------------------------------
  alpha Z        PSCENC =       975.10247152
  Ewald energy   TEWEN  =     91266.22815196
  -Hartree energ DENC   =   -119965.12661200
  -exchange      EXHF   =         0.00000000
  -V(xc)+E(xc)   XCENC  =       178.28884329
  PAW double counting   =     30134.03334717   -29220.48825550
  entropy T*S    EENTRO =        -0.00471786
  eigenvalues    EBANDS =      -858.03479373
  atomic energy  EATOM  =     27259.89416086
  Solvation  Ediel_sol  =         0.00000000
  ---------------------------------------------------
  free energy    TOTEN  =      -230.10740429 eV

  energy without entropy =     -230.10268643  energy(sigma->0) =     -230.10583167


--------------------------------------------------------------------------------------------------------




--------------------------------------- Iteration      1(  17)  ---------------------------------------


    POTLOK:  cpu time    0.1155: real time    0.1163
    SETDIJ:  cpu time    0.0105: real time    0.0106
    EDDIAG:  cpu time    1.0744: real time    1.0818
  RMM-DIIS:  cpu time    3.7602: real time    3.7841
    ORTHCH:  cpu time    0.2058: real time    0.2068
       DOS:  cpu time    0.0011: real time    0.0011
    CHARGE:  cpu time    0.3628: real time    0.3647
    MIXING:  cpu time    0.0056: real time    0.0056
    --------------------------------------------
      LOOP:  cpu time    5.5359: real time    5.5710

 eigenvalue-minimisations  :  1816
 total energy-change (2. order) : 0.1974982E-03  (-0.1854195E-03)
 number of electron     376.0000031 magnetization 
 augmentation part      112.9391764 magnetization 

 Broyden mixing:
  rms(total) = 0.16454E-01    rms(broyden)= 0.16452E-01
  rms(prec ) = 0.20353E-01
  weight for this iteration     100.00

 eigenvalues of (default mixing * dielectric matrix)
  average eigenvalue GAMMA=   0.7367
  2.5674  1.2833  1.1174  1.1174  0.7954  0.4377  0.1378  0.3196  0.3196  0.2273
  0.2680  0.2500

 Free energy of the ion-electron system (eV)
  ---------------------------------------------------
  alpha Z        PSCENC =       975.10247152
  Ewald energy   TEWEN  =     91266.22815196
  -Hartree energ DENC   =   -119965.35616249
  -exchange      EXHF   =         0.00000000
  -V(xc)+E(xc)   XCENC  =       178.29344840
  PAW double counting   =     30138.93453370   -29225.41211694
  entropy T*S    EENTRO =        -0.00493525
  eigenvalues    EBANDS =      -857.78675855
  atomic energy  EATOM  =     27259.89416086
  Solvation  Ediel_sol  =         0.00000000
  ---------------------------------------------------
  free energy    TOTEN  =      -230.10720679 eV

  energy without entropy =     -230.10227154  energy(sigma->0) =     -230.10556171


--------------------------------------------------------------------------------------------------------




--------------------------------------- Iteration      1(  18)  ---------------------------------------


    POTLOK:  cpu time    0.1072: real time    0.1079
    SETDIJ:  cpu time    0.0098: real time    0.0098
    EDDIAG:  cpu time    1.0946: real time    1.1006
  RMM-DIIS:  cpu time    3.7945: real time    3.8180
    ORTHCH:  cpu time    0.2260: real time    0.2271
       DOS:  cpu time    0.0011: real time    0.0011
    CHARGE:  cpu time    0.3389: real time    0.3407
    MIXING:  cpu time    0.0067: real time    0.0067
    --------------------------------------------
      LOOP:  cpu time    5.5788: real time    5.6120

 eigenvalue-minimisations  :  1803
 total energy-change (2. order) :-0.3091872E-03  (-0.9463092E-04)
 number of electron     376.0000031 magnetization 
 augmentation part      112.9377382 magnetization 

 Broyden mixing:
  rms(total) = 0.14198E-01    rms(broyden)= 0.14198E-01
  rms(prec ) = 0.18253E-01
  weight for this iteration     100.00

 eigenvalues of (default mixing * dielectric matrix)
  average eigenvalue GAMMA=   0.7412
  2.5550  1.6174  1.3162  0.9174  0.9174  0.4515  0.1378  0.3524  0.3524  0.2970
  0.2562  0.2280  0.2376

 Free energy of the ion-electron system (eV)
  ---------------------------------------------------
  alpha Z        PSCENC =       975.10247152
  Ewald energy   TEWEN  =     91266.22815196
  -Hartree energ DENC   =   -119966.43638344
  -exchange      EXHF   =         0.00000000
  -V(xc)+E(xc)   XCENC  =       178.30143850
  PAW double counting   =     30141.07660767   -29227.51801985
  entropy T*S    EENTRO =        -0.00427481
  eigenvalues    EBANDS =      -856.75166840
  atomic energy  EATOM  =     27259.89416086
  Solvation  Ediel_sol  =         0.00000000
  ---------------------------------------------------
  free energy    TOTEN  =      -230.10751598 eV

  energy without entropy =     -230.10324118  energy(sigma->0) =     -230.10609105


--------------------------------------------------------------------------------------------------------




--------------------------------------- Iteration      1(  19)  ---------------------------------------


    POTLOK:  cpu time    0.1019: real time    0.1025
    SETDIJ:  cpu time    0.0092: real time    0.0092
    EDDIAG:  cpu time    0.9822: real time    0.9872
  RMM-DIIS:  cpu time    3.1295: real time    3.1470
    ORTHCH:  cpu time    0.2124: real time    0.2136
       DOS:  cpu time    0.0011: real time    0.0011
    --------------------------------------------
      LOOP:  cpu time    4.4364: real time    4.4606

 eigenvalue-minimisations  :  1367
 total energy-change (2. order) : 0.5972664E-04  (-0.4351789E-04)
 number of electron     376.0000031 magnetization 
 augmentation part      112.9377382 magnetization 

 Free energy of the ion-electron system (eV)
  ---------------------------------------------------
  alpha Z        PSCENC =       975.10247152
  Ewald energy   TEWEN  =     91266.22815196
  -Hartree energ DENC   =   -119967.53492834
  -exchange      EXHF   =         0.00000000
  -V(xc)+E(xc)   XCENC  =       178.30756652
  PAW double counting   =     30138.19433160   -29224.56359870
  entropy T*S    EENTRO =        -0.00481897
  eigenvalues    EBANDS =      -855.73079270
  atomic energy  EATOM  =     27259.89416086
  Solvation  Ediel_sol  =         0.00000000
  ---------------------------------------------------
  free energy    TOTEN  =      -230.10745625 eV

  energy without entropy =     -230.10263729  energy(sigma->0) =     -230.10584993


--------------------------------------------------------------------------------------------------------




 average (electrostatic) potential at core
  the test charge radii are     0.6991  0.7215  1.2059
  (the norm of the test charge is              1.0000)
       1 -56.2791       2 -74.4556       3 -76.2854       4 -72.3174       5 -72.3161
       6 -72.3239       7 -72.3143       8 -72.3304       9 -72.3411      10 -72.2914
      11 -72.3198      12 -72.3043      13 -72.8815      14 -73.0295      15 -72.9183
      16 -72.9901      17 -72.9906      18 -72.9638      19 -73.0084      20 -73.0288
      21 -72.9428      22 -73.0019      23 -72.9923      24 -72.9085      25 -73.0509
      26 -73.0447      27 -73.0136      28 -72.9970      29 -72.9980      30 -72.9244
      31 -72.4759      32 -72.5087      33 -72.6868      34 -72.4294      35 -72.3547
      36 -73.2414      37 -72.6150      38 -73.0624      39 -72.4413
 
 
 
 E-fermi :   1.0859     XC(G=0):  -6.6206     alpha+bet : -6.8913


 k-point     1 :       0.0000    0.0000    0.0000
  band No.  band energies     occupation 
      1     -22.1379      2.00000
      2     -16.5231      2.00000
      3      -8.4251      2.00000
      4      -8.1067      2.00000
      5      -6.8716      2.00000
      6      -5.9474      2.00000
      7      -5.8210      2.00000
      8      -5.7426      2.00000
      9      -5.7176      2.00000
     10      -5.6952      2.00000
     11      -5.6624      2.00000
     12      -5.6340      2.00000
     13      -5.5635      2.00000
     14      -5.5342      2.00000
     15      -5.3707      2.00000
     16      -5.2195      2.00000
     17      -5.1242      2.00000
     18      -5.1049      2.00000
     19      -5.1038      2.00000
     20      -5.0664      2.00000
     21      -5.0255      2.00000
     22      -5.0053      2.00000
     23      -4.7157      2.00000
     24      -4.6311      2.00000
     25      -4.6092      2.00000
     26      -4.5790      2.00000
     27      -4.5393      2.00000
     28      -4.5246      2.00000
     29      -4.4212      2.00000
     30      -4.3881      2.00000
     31      -4.3799      2.00000
     32      -4.3636      2.00000
     33      -4.3432      2.00000
     34      -4.2905      2.00000
     35      -4.1771      2.00000
     36      -4.1639      2.00000
     37      -4.1379      2.00000
     38      -4.1102      2.00000
     39      -4.1054      2.00000
     40      -4.1025      2.00000
     41      -4.0735      2.00000
     42      -4.0620      2.00000
     43      -4.0457      2.00000
     44      -4.0244      2.00000
     45      -4.0181      2.00000
     46      -3.9519      2.00000
     47      -3.6123      2.00000
     48      -3.5934      2.00000
     49      -3.5364      2.00000
     50      -3.4763      2.00000
     51      -3.4641      2.00000
     52      -3.4335      2.00000
     53      -3.4250      2.00000
     54      -3.4140      2.00000
     55      -3.4065      2.00000
     56      -3.3853      2.00000
     57      -3.3611      2.00000
     58      -3.2190      2.00000
     59      -3.1779      2.00000
     60      -3.1596      2.00000
     61      -2.9340      2.00000
     62      -2.8503      2.00000
     63      -2.7541      2.00000
     64      -2.6683      2.00000
     65      -2.6335      2.00000
     66      -2.5966      2.00000
     67      -2.5696      2.00000
     68      -2.5528      2.00000
     69      -2.5173      2.00000
     70      -2.4938      2.00000
     71      -2.4781      2.00000
     72      -2.4611      2.00000
     73      -2.4405      2.00000
     74      -2.4238      2.00000
     75      -2.4028      2.00000
     76      -2.3893      2.00000
     77      -2.3682      2.00000
     78      -2.3659      2.00000
     79      -2.3408      2.00000
     80      -2.3272      2.00000
     81      -2.2954      2.00000
     82      -2.2772      2.00000
     83      -2.2674      2.00000
     84      -2.2437      2.00000
     85      -2.2288      2.00000
     86      -2.1758      2.00000
     87      -2.1561      2.00000
     88      -2.1189      2.00000
     89      -2.1069      2.00000
     90      -2.0937      2.00000
     91      -2.0409      2.00000
     92      -2.0205      2.00000
     93      -2.0065      2.00000
     94      -1.9751      2.00000
     95      -1.9592      2.00000
     96      -1.9264      2.00000
     97      -1.8939      2.00000
     98      -1.8648      2.00000
     99      -1.8276      2.00000
    100      -1.7536      2.00000
    101      -1.6948      2.00000
    102      -1.6448      2.00000
    103      -1.6337      2.00000
    104      -1.6067      2.00000
    105      -1.5734      2.00000
    106      -1.5448      2.00000
    107      -1.5356      2.00000
    108      -1.5262      2.00000
    109      -1.5197      2.00000
    110      -1.5013      2.00000
    111      -1.4907      2.00000
    112      -1.4860      2.00000
    113      -1.4675      2.00000
    114      -1.3663      2.00000
    115      -1.3237      2.00000
    116      -1.2039      2.00000
    117      -1.1809      2.00000
    118      -1.1278      2.00000
    119      -1.1008      2.00000
    120      -1.0646      2.00000
    121      -1.0338      2.00000
    122      -0.9762      2.00000
    123      -0.9473      2.00000
    124      -0.9084      2.00000
    125      -0.8909      2.00000
    126      -0.8685      2.00000
    127      -0.8582      2.00000
    128      -0.7824      2.00000
    129      -0.7107      2.00000
    130      -0.6858      2.00000
    131      -0.6754      2.00000
    132      -0.6433      2.00000
    133      -0.6295      2.00000
    134      -0.5537      2.00000
    135      -0.4868      2.00000
    136      -0.4281      2.00000
    137      -0.4157      2.00000
    138      -0.3813      2.00000
    139      -0.3609      2.00000
    140      -0.3432      2.00000
    141      -0.2648      2.00000
    142      -0.2487      2.00000
    143      -0.2235      2.00000
    144      -0.1989      2.00000
    145      -0.1729      2.00000
    146      -0.1426      2.00000
    147      -0.1165      2.00000
    148      -0.1071      2.00000
    149      -0.0070      2.00000
    150       0.0024      2.00000
    151       0.0423      2.00000
    152       0.0715      2.00000
    153       0.1068      2.00000
    154       0.1280      2.00000
    155       0.1368      2.00000
    156       0.1838      2.00000
    157       0.2078      2.00000
    158       0.2275      2.00000
    159       0.2488      2.00000
    160       0.2715      2.00000
    161       0.3051      2.00000
    162       0.3242      2.00000
    163       0.3298      2.00000
    164       0.3555      2.00000
    165       0.3608      2.00000
    166       0.3687      2.00000
    167       0.4173      2.00002
    168       0.4383      2.00005
    169       0.4522      2.00007
    170       0.4854      2.00018
    171       0.5111      2.00037
    172       0.5395      2.00077
    173       0.5802      2.00204
    174       0.5881      2.00243
    175       0.6232      2.00511
    176       0.6469      2.00809
    177       0.6585      2.01001
    178       0.6656      2.01135
    179       0.6761      2.01358
    180       0.7125      2.02396
    181       0.7284      2.02980
    182       0.7772      2.05134
    183       0.7835      2.05419
    184       0.7947      2.05908
    185       0.8086      2.06448
    186       0.8222      2.06853
    187       0.8233      2.06879
    188       0.8299      2.07003
    189       0.8407      2.07092
    190       0.8434      2.07087
    191       0.8515      2.07001
    192       0.8658      2.06532
    193       0.8772      2.05821
    194       0.9142      2.00715
    195       0.9269      1.97750
    196       1.0785      1.06314
    197       1.1003      0.87844
    198       1.1686      0.36207
    199       1.1815      0.28447
    200       1.2045      0.16653
    201       1.2292      0.06928
    202       1.2533      0.00228
    203       1.2620     -0.01560
    204       1.4405     -0.03101
    205       1.4440     -0.02960
    206       1.9455     -0.00000
    207       2.0194     -0.00000
    208       2.0619     -0.00000
    209       2.1002     -0.00000
    210       2.2085     -0.00000
    211       2.4622     -0.00000
    212       3.5201     -0.00000
    213       3.9755     -0.00000
    214       4.3509     -0.00000
    215       4.4076     -0.00000
    216       4.4351     -0.00000
    217       4.5647     -0.00000
    218       4.8312     -0.00000
    219       5.3807     -0.00000
    220       5.7002     -0.00000
    221       5.8548     -0.00000
    222       5.8649     -0.00000
    223       5.8982     -0.00000
    224       5.9230     -0.00000
    225       5.9581     -0.00000
    226       6.1129     -0.00000
    227       6.5570      0.00000
    228       6.8052      0.00000

 k-point     2 :       0.5000    0.0000    0.0000
  band No.  band energies     occupation 
      1     -22.1378      2.00000
      2     -16.5227      2.00000
      3      -8.3888      2.00000
      4      -7.2833      2.00000
      5      -7.2482      2.00000
      6      -6.1268      2.00000
      7      -6.0563      2.00000
      8      -5.8959      2.00000
      9      -5.8361      2.00000
     10      -5.6810      2.00000
     11      -5.4524      2.00000
     12      -5.4353      2.00000
     13      -5.2692      2.00000
     14      -5.2398      2.00000
     15      -5.0140      2.00000
     16      -4.9839      2.00000
     17      -4.9032      2.00000
     18      -4.8958      2.00000
     19      -4.8788      2.00000
     20      -4.8528      2.00000
     21      -4.8336      2.00000
     22      -4.8164      2.00000
     23      -4.7931      2.00000
     24      -4.7652      2.00000
     25      -4.7477      2.00000
     26      -4.7343      2.00000
     27      -4.7032      2.00000
     28      -4.6707      2.00000
     29      -4.6595      2.00000
     30      -4.5737      2.00000
     31      -4.3887      2.00000
     32      -4.3530      2.00000
     33      -4.3269      2.00000
     34      -4.3145      2.00000
     35      -4.2956      2.00000
     36      -4.1295      2.00000
     37      -4.0901      2.00000
     38      -4.0832      2.00000
     39      -4.0416      2.00000
     40      -4.0284      2.00000
     41      -3.9772      2.00000
     42      -3.9265      2.00000
     43      -3.8836      2.00000
     44      -3.8046      2.00000
     45      -3.7947      2.00000
     46      -3.7436      2.00000
     47      -3.7303      2.00000
     48      -3.6902      2.00000
     49      -3.6713      2.00000
     50      -3.6207      2.00000
     51      -3.4867      2.00000
     52      -3.4773      2.00000
     53      -3.4550      2.00000
     54      -3.4002      2.00000
     55      -3.3818      2.00000
     56      -3.3396      2.00000
     57      -3.2338      2.00000
     58      -3.2181      2.00000
     59      -3.2019      2.00000
     60      -3.1636      2.00000
     61      -3.0955      2.00000
     62      -3.0659      2.00000
     63      -3.0418      2.00000
     64      -3.0262      2.00000
     65      -2.9880      2.00000
     66      -2.9477      2.00000
     67      -2.9392      2.00000
     68      -2.8723      2.00000
     69      -2.8296      2.00000
     70      -2.8107      2.00000
[...]
     83      -2.2986      2.00000
     84      -2.2739      2.00000
     85      -2.2498      2.00000
     86      -2.1921      2.00000
     87      -2.1836      2.00000
     88      -2.1657      2.00000
     89      -2.1568      2.00000
     90      -2.1406      2.00000
     91      -2.1279      2.00000
     92      -2.0963      2.00000
     93      -2.0493      2.00000
     94      -2.0115      2.00000
     95      -1.9712      2.00000
     96      -1.9460      2.00000
     97      -1.8949      2.00000
     98      -1.8801      2.00000
     99      -1.8504      2.00000
    100      -1.8472      2.00000
    101      -1.7723      2.00000
    102      -1.7472      2.00000
    103      -1.7299      2.00000
    104      -1.7228      2.00000
    105      -1.7020      2.00000
    106      -1.6752      2.00000
    107      -1.6388      2.00000
    108      -1.6252      2.00000
    109      -1.6022      2.00000
    110      -1.5454      2.00000
    111      -1.5242      2.00000
    112      -1.4604      2.00000
    113      -1.4338      2.00000
    114      -1.3876      2.00000
    115      -1.3090      2.00000
    116      -1.2807      2.00000
    117      -1.2313      2.00000
    118      -1.1947      2.00000
    119      -1.1771      2.00000
    120      -1.0957      2.00000
    121      -1.0865      2.00000
    122      -1.0537      2.00000
    123      -1.0319      2.00000
    124      -1.0195      2.00000
    125      -0.9854      2.00000
    126      -0.9797      2.00000
    127      -0.9607      2.00000
    128      -0.9378      2.00000
    129      -0.9223      2.00000
    130      -0.8974      2.00000
    131      -0.8627      2.00000
    132      -0.8160      2.00000
    133      -0.7562      2.00000
    134      -0.7343      2.00000
    135      -0.7062      2.00000
    136      -0.6947      2.00000
    137      -0.6869      2.00000
    138      -0.6326      2.00000
    139      -0.5932      2.00000
    140      -0.5532      2.00000
    141      -0.4880      2.00000
    142      -0.4650      2.00000
    143      -0.3802      2.00000
    144      -0.2512      2.00000
    145      -0.2406      2.00000
    146      -0.1938      2.00000
    147      -0.1521      2.00000
    148      -0.1418      2.00000
    149      -0.0936      2.00000
    150      -0.0446      2.00000
    151      -0.0116      2.00000
    152       0.0448      2.00000
    153       0.0600      2.00000
    154       0.0883      2.00000
    155       0.0995      2.00000
    156       0.1068      2.00000
    157       0.1361      2.00000
    158       0.1632      2.00000
    159       0.2048      2.00000
    160       0.2266      2.00000
    161       0.2595      2.00000
    162       0.3126      2.00000
    163       0.3213      2.00000
    164       0.3384      2.00000
    165       0.3599      2.00000
    166       0.3996      2.00001
    167       0.5374      2.00052
    168       0.5783      2.00143
    169       0.5969      2.00220
    170       0.6193      2.00358
    171       0.6571      2.00764
    172       0.6798      2.01152
    173       0.7076      2.01825
    174       0.7872      2.04979
    175       0.7978      2.05464
    176       0.8073      2.05882
    177       0.8486      2.07068
    178       0.8730      2.06787
    179       0.9055      2.04311
    180       0.9325      1.99636
    181       0.9513      1.94614
    182       1.0134      1.65779
    183       1.0431      1.45538
    184       1.0841      1.12770
    185       1.0952      1.03431
    186       1.1067      0.93747
    187       1.1262      0.77396
    188       1.1539      0.55580
    189       1.1705      0.43732
    190       1.1768      0.39507
    191       1.3060     -0.05654
    192       1.3271     -0.06839
    193       1.3566     -0.06982
    194       1.3982     -0.05577
    195       1.4264     -0.04285
    196       1.4855     -0.01984
    197       1.5868     -0.00304
    198       1.7373     -0.00006
    199       1.8298     -0.00000
    200       2.0019     -0.00000
    201       2.2613     -0.00000
    202       2.3253     -0.00000
    203       2.7867     -0.00000
    204       2.9332     -0.00000
    205       2.9655     -0.00000
    206       2.9806     -0.00000
    207       3.0147     -0.00000
    208       3.2186     -0.00000
    209       3.4035     -0.00000
    210       3.5181     -0.00000
    211       3.5580     -0.00000
    212       3.6108     -0.00000
    213       3.7223     -0.00000
    214       3.8117     -0.00000
    215       3.9376     -0.00000
    216       4.1614     -0.00000
    217       4.2244     -0.00000
    218       4.3981     -0.00000
    219       4.4591     -0.00000
    220       4.6296     -0.00000
    221       4.6869     -0.00000
    222       4.8181     -0.00000
    223       5.1099     -0.00000
    224       5.4820     -0.00000
    225       5.9838     -0.00000
    226       6.5183     -0.00000
    227       6.5783      0.00000
    228       6.6551      0.00000


--------------------------------------------------------------------------------------------------------


 soft charge-density along one line, spin component           1
         0         1         2         3         4         5         6         7         8         9
 total charge-density along one line
 
 pseudopotential strength for first ion, spin component:           1
 10.097   0.015   0.004   0.012  -0.000  -0.004  -0.011   0.001
  0.015  -0.002  -0.000  -0.000  -0.000  -0.000  -0.000   0.000
  0.004  -0.000  -4.246  -0.007   0.001  -0.010  -0.002   0.000
  0.012  -0.000  -0.007  -4.262   0.004  -0.002  -0.016   0.001
 -0.000  -0.000   0.001   0.004  -4.243   0.000   0.001  -0.010
 -0.004  -0.000  -0.010  -0.002   0.000  -0.770  -0.000   0.000
 -0.011  -0.000  -0.002  -0.016   0.001  -0.000  -0.770   0.000
  0.001   0.000   0.000   0.001  -0.010   0.000   0.000  -0.770
 total augmentation occupancy for first ion, spin component:           1
  1.636  -0.877   0.023   0.022  -0.061   0.034   0.091  -0.028
 -0.877   1.267  -0.208  -0.594   0.116  -0.083  -0.242   0.041
  0.023  -0.208   0.838   0.184  -0.004   0.114   0.052  -0.007
  0.022  -0.594   0.184   1.337  -0.026   0.052   0.248  -0.014
 -0.061   0.116  -0.004  -0.026   0.794  -0.007  -0.015   0.101
  0.034  -0.083   0.114   0.052  -0.007   0.020   0.021  -0.004
  0.091  -0.242   0.052   0.248  -0.015   0.021   0.072  -0.008
 -0.028   0.041  -0.007  -0.014   0.101  -0.004  -0.008   0.014


------------------------ aborting loop because EDIFF is reached ----------------------------------------


    CHARGE:  cpu time    0.6340: real time    0.6378
    FORLOC:  cpu time    0.0561: real time    0.0564
    FORNL :  cpu time    2.4171: real time    2.4345
    STRESS:  cpu time    7.7298: real time    7.7786
    FORCOR:  cpu time    0.1568: real time    0.1576
    FORHAR:  cpu time    0.0775: real time    0.0779
    MIXING:  cpu time    0.0050: real time    0.0051
    OFIELD:  cpu time    0.0000: real time    0.0000

  FORCE on cell =-STRESS in cart. coord.  units (eV):
  Direction    XX          YY          ZZ          XY          YZ          ZX
  --------------------------------------------------------------------------------------
  Alpha Z   975.10247   975.10247   975.10247
  Ewald  110891.02515110899.86557************  -207.18958   246.33850   -84.80224
  Hartree117657.95358117646.49631************  -133.78421   106.55035   -46.93125
  E(xc)   -1665.99157 -1665.80984 -1673.31572    -0.50445     0.75794    -0.21243
  Local  ************************239182.84304   329.08546  -329.19092   125.28034
  n-local   124.05529   123.73148    90.19944    -1.14715     0.54534     0.32977
  augment  1895.02778  1893.53312  1932.66512     2.94993    -4.30695     0.61602
  Kinetic  5522.16162  5516.08241  5600.70720    11.33444   -21.25838     6.50559
  Fock        0.00000     0.00000     0.00000     0.00000     0.00000     0.00000
  -------------------------------------------------------------------------------------
  Total     -36.28606   -37.95848    -2.10303     0.74444    -0.56413     0.78581
  in kB     -43.21730   -45.20918    -2.50475     0.88664    -0.67189     0.93591
  external pressure =      -30.31 kB  Pullay stress =        0.00 kB


 VOLUME and BASIS-vectors are now :
 -----------------------------------------------------------------------------
  energy-cutoff  :      450.00
  volume of cell :     1345.22
      direct lattice vectors                 reciprocal lattice vectors
     7.296955120 -4.212899000  0.000000000     0.137043463  0.000000000  0.000000000
     0.000000000  8.425798000  0.000000000     0.068521732  0.118683121  0.000000000
     0.000000000  0.000000000 21.879635000     0.000000000  0.000000000  0.045704602

  length of vectors
     8.425798004  8.425798000 21.879635000     0.137043463  0.137043463  0.045704602


 FORCES acting on ions
    electron-ion (+dipol)            ewald-force                    non-local-force                 convergence-correction
 -----------------------------------------------------------------------------------------------
   0.329E+01 0.113E+02 -.867E+03   -.368E+01 -.162E+02 0.853E+03   0.265E+00 0.311E+01 0.111E+02   -.214E-02 0.114E-01 0.784E-01
   -.877E+02 0.529E+02 -.158E+04   0.902E+02 -.511E+02 0.160E+04   -.204E+01 -.160E+01 -.221E+02   -.952E-02 0.535E-02 0.523E-01
   0.625E+02 -.103E+03 -.153E+04   -.728E+02 0.124E+03 0.159E+04   0.103E+02 -.203E+02 -.586E+02   0.977E-02 -.160E-01 0.159E-01
   0.334E+00 0.380E+00 0.234E+04   -.327E+00 -.450E+00 -.234E+04   0.160E-01 -.361E-01 -.120E+01   -.154E-02 0.381E-01 -.289E-01
   0.136E+00 0.270E+00 0.234E+04   -.236E+00 -.399E+00 -.234E+04   0.658E-02 -.126E-02 -.113E+01   0.186E-01 0.948E-01 -.503E-01
   -.361E+00 -.319E+00 0.234E+04   0.244E+00 0.322E+00 -.234E+04   0.263E-01 -.130E-01 -.114E+01   0.560E-01 -.631E-02 -.501E-01
   0.791E+00 -.139E+00 0.234E+04   -.762E+00 0.221E+00 -.234E+04   0.267E-02 0.120E-01 -.117E+01   0.471E-02 -.401E-01 -.379E-01
   0.175E+00 0.412E+00 0.234E+04   -.226E+00 -.418E+00 -.234E+04   0.938E-03 0.212E-01 -.127E+01   0.327E-01 0.533E-02 -.903E-02
   -.558E+00 0.441E+00 0.234E+04   0.595E+00 -.507E+00 -.234E+04   0.196E-01 0.212E-01 -.122E+01   -.219E-01 0.619E-01 -.239E-01
   0.316E+00 -.864E+00 0.234E+04   -.261E+00 0.813E+00 -.234E+04   -.768E-01 0.106E+00 -.106E+01   0.240E-01 -.100E+00 -.464E-01
   -.905E+00 -.723E-01 0.234E+04   0.939E+00 0.184E+00 -.234E+04   -.316E-02 -.350E-01 -.126E+01   -.242E-01 -.557E-01 -.102E-01
   0.988E-01 -.200E+00 0.234E+04   0.345E-01 0.234E+00 -.234E+04   -.186E-01 -.572E-02 -.104E+01   -.883E-01 0.199E-02 -.396E-01
   0.143E+01 -.518E+01 0.854E+03   -.157E+01 0.516E+01 -.853E+03   0.106E+00 0.128E+00 -.365E+00   -.351E-01 0.276E-02 -.154E-01
   -.424E+01 -.546E+01 0.861E+03   0.408E+01 0.562E+01 -.861E+03   0.171E+00 0.106E+00 -.293E+00   0.387E-01 -.108E+00 -.441E-01
   -.245E+01 -.729E+00 0.853E+03   0.267E+01 0.613E+00 -.853E+03   -.452E-01 0.116E+00 -.536E-01   -.676E-01 -.577E-02 -.293E-01
   0.104E+01 0.630E+01 0.860E+03   -.113E+01 -.644E+01 -.860E+03   0.745E-01 -.513E-01 -.241E+00   0.189E-01 0.829E-01 -.480E-01
   -.508E+01 0.237E+01 0.858E+03   0.504E+01 -.240E+01 -.858E+03   0.144E+00 -.845E-01 -.217E+00   0.289E-01 0.902E-01 -.497E-01
   0.531E+01 -.156E+01 0.858E+03   -.534E+01 0.156E+01 -.858E+03   -.116E+00 0.531E-01 -.150E+00   0.414E-01 -.179E-01 -.666E-01
   0.534E+01 -.204E+01 0.861E+03   -.537E+01 0.224E+01 -.861E+03   -.152E+00 -.357E-01 -.393E+00   0.423E-01 -.858E-01 -.574E-01
   -.534E+01 0.335E+01 0.864E+03   0.539E+01 -.338E+01 -.864E+03   0.942E-01 -.407E-01 -.449E+00   -.653E-02 0.179E-01 -.525E-01
   0.371E+01 0.310E+01 0.855E+03   -.360E+01 -.294E+01 -.855E+03   -.904E-01 -.152E+00 -.156E+00   -.611E-01 0.237E-01 -.437E-01
   -.662E+01 -.415E+01 -.617E+03   0.643E+01 0.401E+01 0.616E+03   0.294E+00 0.331E+00 0.315E+00   0.296E-01 -.226E-01 0.246E-01
   0.974E+01 -.762E+01 -.608E+03   -.977E+01 0.779E+01 0.608E+03   -.203E+00 0.620E-01 0.768E+00   0.516E-01 -.815E-01 -.601E-02
   -.140E+01 0.116E+01 -.656E+03   0.111E+01 -.745E+00 0.656E+03   0.399E+00 -.356E+00 0.380E-01   0.113E-01 -.679E-01 0.430E-01
   0.144E+01 0.131E+02 -.649E+03   -.187E+01 -.123E+02 0.650E+03   0.289E+00 -.911E+00 -.109E+01   -.347E-01 0.289E-01 0.682E-01
   0.668E+01 0.128E+02 -.628E+03   -.610E+01 -.129E+02 0.628E+03   -.458E+00 -.290E+00 -.186E+00   0.218E-02 0.135E-01 0.699E-01
   -.138E+02 -.440E+01 -.622E+03   0.137E+02 0.443E+01 0.621E+03   0.434E+00 -.236E+00 0.326E+00   -.446E-01 -.354E-02 0.489E-01
   -.505E+01 0.113E+01 -.632E+03   0.519E+01 -.111E+01 0.632E+03   -.435E-01 -.141E+00 -.614E-01   -.499E-01 0.261E-01 0.405E-01
   0.249E+01 -.272E+01 -.619E+03   -.241E+01 0.258E+01 0.618E+03   -.282E+00 0.775E-01 0.136E+00   0.208E-01 0.753E-01 0.277E-01
   0.608E+01 -.381E+01 -.653E+03   -.604E+01 0.349E+01 0.653E+03   -.321E+00 0.493E+00 -.736E+00   0.145E-01 0.375E-01 0.773E-01
   -.118E+02 -.101E+02 -.213E+04   0.123E+02 0.105E+02 0.213E+04   -.597E+00 -.278E+00 0.162E+01   0.308E-01 -.158E-01 0.413E-01
   0.252E+02 0.141E+02 -.213E+04   -.256E+02 -.148E+02 0.213E+04   0.210E+00 0.113E+01 0.166E+01   0.220E-01 -.449E-01 0.342E-01
   0.384E+02 -.201E+02 -.212E+04   -.385E+02 0.197E+02 0.212E+04   -.126E+00 0.762E+00 0.150E+01   -.167E-02 0.250E-01 0.606E-01
   -.155E+02 0.880E+01 -.220E+04   0.153E+02 -.907E+01 0.219E+04   0.377E+00 0.101E+00 0.106E+01   -.493E-01 0.259E-01 0.541E-01
   0.199E+02 0.257E+02 -.218E+04   -.200E+02 -.260E+02 0.217E+04   0.352E-02 0.209E+00 0.763E+00   0.124E-01 -.137E-01 0.862E-01
   0.660E+02 0.621E+02 -.202E+04   -.690E+02 -.601E+02 0.202E+04   0.301E+01 -.163E+01 -.252E+01   0.172E-01 -.589E-02 0.726E-01
   -.584E+02 -.402E+02 -.206E+04   0.596E+02 0.423E+02 0.206E+04   -.105E+01 -.212E+01 0.289E+01   -.202E-01 -.535E-02 0.626E-01
   -.672E+02 0.762E+02 -.205E+04   0.676E+02 -.767E+02 0.205E+04   -.540E+00 0.734E+00 -.475E+00   -.642E-02 -.136E-01 0.627E-01
   0.160E+02 -.611E+02 -.215E+04   -.159E+02 0.622E+02 0.214E+04   -.492E-01 -.113E+01 0.118E+01   -.361E-02 0.372E-01 0.588E-01
 -----------------------------------------------------------------------------------------------
   -.995E+01 0.220E+02 0.748E+02   0.103E-12 0.995E-13 0.136E-11   0.100E+02 -.218E+02 -.751E+02   -.603E-04 -.480E-02 0.371E+00
 
 
 POSITION                                       TOTAL-FORCE (eV/Angst)
 -----------------------------------------------------------------------------------
      5.11041      0.63682     10.49149        -0.127356     -1.757862     -2.580822
      6.61755     -0.57893     10.22232         0.381859      0.232812     -0.041974
      4.93553      1.01013     11.56004         0.072769      0.673381      1.648815
      7.20031     -1.38846      1.62732         0.019341     -0.071680      0.118786
      2.33567      1.42014      1.62732        -0.076220     -0.038724      0.133039
      4.76799      0.01584      1.62732        -0.036412     -0.020214      0.189468
      7.20031      1.42015      1.62732         0.034382      0.050602      0.119680
      2.33567      4.22875      1.62732        -0.019303      0.016383      0.113347
      4.76799      2.82445      1.62732         0.032797      0.013687      0.189068
      2.33567      7.03734      1.62732         0.000804     -0.049029      0.030635
      4.76799      5.63304      1.62732         0.004795      0.017028      0.098574
      7.20031      4.22874      1.62732         0.024429      0.026525      0.024560
      1.52490      0.01584      3.92052        -0.068917      0.101585      0.020722
      3.95722     -1.38846      3.92052         0.054256      0.153044     -0.044061
      6.38953     -2.79276      3.92052         0.103671     -0.010314      0.097025
      1.52490      2.82445      3.92052         0.000824     -0.104659     -0.024436
      3.95722      1.42015      3.92052         0.132998     -0.026839      0.122679
      6.38953      0.01585      3.92052        -0.114613      0.033397      0.149172
      1.52490      5.63305      3.92052        -0.140474      0.074823     -0.193570
      3.95722      4.22874      3.92052         0.141691     -0.059880     -0.188402
      6.38953      2.82445      3.92052        -0.046018      0.025473     -0.008445
      0.69998      4.19560      6.18360         0.130410      0.166030     -0.080608
      3.15184      5.63055      6.14606        -0.175038      0.146054      0.193569
      5.55286     -1.37281      6.24461         0.121538     -0.014633     -0.059035
      0.69753      1.46534      6.25727        -0.176722     -0.119252     -0.402874
      3.15507      0.02351      6.21588         0.123089     -0.369866     -0.234947
      0.69701      7.06784      6.18959         0.283215     -0.219738     -0.168902
      5.58929      4.22788      6.22002         0.041251     -0.097239     -0.505283
      3.18739      2.80798      6.19107        -0.179361      0.011068     -0.210077
      5.59565      1.38499      6.27809        -0.271373      0.200112     -0.816051
      2.37075      4.20890      8.38907        -0.104166      0.070661      0.370323
      4.76541      5.57101      8.42918        -0.130194      0.375895      0.345660
      2.35344      1.34710      8.42065        -0.243989      0.356289      0.462308
      7.19441      4.20595      8.52321         0.120339     -0.144014      0.020788
      2.34654      6.99926      8.50640        -0.067736     -0.111535     -0.223473
      4.67034      0.04863      8.67489         0.057579      0.297842      0.520204
      7.25764      1.44605      8.39711         0.159962     -0.028519      0.567725
      7.26186     -1.47781      8.59238        -0.163242      0.149139      0.440621
      4.77712      2.84071      8.52499         0.099136      0.052166     -0.193806
 -----------------------------------------------------------------------------------
    total drift:                                0.075859      0.144268      0.014459
  FORCES: max atom, RMS     3.125210    0.659011
  Number: max atom                 1
  FORCE total and by dimension    4.115521    2.580822


--------------------------------------------------------------------------------------------------------



  FREE ENERGIE OF THE ION-ELECTRON SYSTEM (eV)
  ---------------------------------------------------
  free  energy   TOTEN  =      -230.46285395 eV

  energy  without entropy=     -230.45256755  energy(sigma->0) =     -230.45942515
 
 d Force = 0.7793193E-01[-0.262E-01, 0.182E+00]  d Energy = 0.8387639E-01-0.594E-02
 d Force = 0.1655180E+02[ 0.159E+02, 0.172E+02]  d Ewald  = 0.1655922E+02-0.741E-02


--------------------------------------------------------------------------------------------------------


    POTLOK:  cpu time    0.1508: real time    0.2216


--------------------------------------------------------------------------------------------------------


 stress matrix after NEB project (eV)
    -36.28606      0.74444      0.78581
      0.74444    -37.95848     -0.56413
      0.78581     -0.56413     -2.10303
  FORCES: max atom, RMS     3.125210    0.659011
  FORCE total and by dimension    4.115521    2.580822
  Stress total and by dimension   52.582576   37.958484
 Quasi-Newton relaxation of ions (Broydens 2nd method)
  g(Force)  = 0.327E+00   g(Stress)= 0.000E+00

 retain information from N=  2 steps
 eigenvalues of (default step * inverse Hessian matrix)
  average eigenvalue of G=   0.6376
 eigenvalue spectrum of G is  0.3797  0.8955
  RESET_HESSIAN           0


--------------------------------------------------------------------------------------------------------


    WAVPRE:  cpu time    0.0765: real time    0.1978
    FEWALD:  cpu time    0.0024: real time    0.0024

 real space projection operators:
  total allocation   :      13553.66 KBytes
  max/ min on nodes  :       6786.08       6767.58

    ORTHCH:  cpu time    1.0864: real time    1.0999
     LOOP+:  cpu time   74.9366: real time   75.8826
