metal                                   
           1
     7.296955   -4.212899    0.000000
     0.000000    8.425798    0.000000
     0.000000    0.000000   21.879635
   C    O    Pt
   1   2  36
Direct configuration=     1
   0.70237288  0.43088898  0.47991585
   0.90560350  0.38317605  0.46753582
   0.67423633  0.45774486  0.52980438
   0.98675500  0.32859100  0.07437600
   0.32008800  0.32859100  0.07437600
   0.65342200  0.32859100  0.07437600
   0.98675500  0.66192500  0.07437600
   0.32008800  0.66192500  0.07437600
   0.65342200  0.66192500  0.07437600
   0.32008800  0.99525800  0.07437600
   0.65342200  0.99525800  0.07437600
   0.98675500  0.99525800  0.07437600
   0.20897700  0.10636900  0.17918600
   0.54231100  0.10636900  0.17918600
   0.87564400  0.10636900  0.17918600
   0.20897700  0.43970300  0.17918600
   0.54231100  0.43970300  0.17918600
   0.87564400  0.43970300  0.17918600
   0.20897700  0.77303600  0.17918600
   0.54231100  0.77303600  0.17918600
   0.87564400  0.77303600  0.17918600
   0.09487115  0.54459806  0.28296035
   0.43337126  0.88384444  0.28059235
   0.76043583  0.21727387  0.28564174
   0.09685819  0.22296335  0.28701080
   0.43149110  0.22102374  0.28491690
   0.09343800  0.88633471  0.28336426
   0.76546641  0.88527289  0.28551877
   0.43740047  0.55182021  0.28357566
   0.76911303  0.54793416  0.28877534
   0.32561942  0.66180140  0.38273532
   0.65408957  0.98624011  0.38444082
   0.32393360  0.31998302  0.38371025
   0.98516771  0.99268583  0.38933569
   0.32215562  0.99275813  0.38920867
   0.63906697  0.32396420  0.39504860
   0.99296368  0.66822541  0.38240780
   0.99648512  0.32142308  0.39158020
   0.65416367  0.66425781  0.38967785
Direct configuration=     2
   0.70137844  0.42702476  0.47873899
   0.90641951  0.38406428  0.46722627
   0.67519667  0.45844982  0.52966497
   0.98675500  0.32859100  0.07437600
   0.32008800  0.32859100  0.07437600
   0.65342200  0.32859100  0.07437600
   0.98675500  0.66192500  0.07437600
   0.32008800  0.66192500  0.07437600
   0.65342200  0.66192500  0.07437600
   0.32008800  0.99525800  0.07437600
   0.65342200  0.99525800  0.07437600
   0.98675500  0.99525800  0.07437600
   0.20897700  0.10636900  0.17918600
   0.54231100  0.10636900  0.17918600
   0.87564400  0.10636900  0.17918600
   0.20897700  0.43970300  0.17918600
   0.54231100  0.43970300  0.17918600
   0.87564400  0.43970300  0.17918600
   0.20897700  0.77303600  0.17918600
   0.54231100  0.77303600  0.17918600
   0.87564400  0.77303600  0.17918600
   0.09564250  0.54549818  0.28269040
   0.43233570  0.88412891  0.28078543
   0.76076916  0.21746876  0.28546000
   0.09595627  0.22207537  0.28626833
   0.43213104  0.21953844  0.28428804
   0.09491700  0.88660967  0.28301800
   0.76586285  0.88490685  0.28463445
   0.43708277  0.55177697  0.28311824
   0.76744615  0.54776553  0.28748184
   0.32510605  0.66194651  0.38319235
   0.65334991  0.98722792  0.38501767
   0.32297370  0.32078591  0.38454053
   0.98571433  0.99229825  0.38951409
   0.32172330  0.99178867  0.38892373
   0.63994029  0.32532760  0.39616587
   0.99422471  0.66876555  0.38339702
   0.99554408  0.32206618  0.39242094
   0.65448308  0.66434463  0.38970231
Direct configuration=     3
   0.70034838  0.42575368  0.47950923
   0.90689250  0.38473729  0.46720685
   0.67638258  0.45807645  0.52834717
   0.98675500  0.32859100  0.07437600
   0.32008800  0.32859100  0.07437600
   0.65342200  0.32859100  0.07437600
   0.98675500  0.66192500  0.07437600
   0.32008800  0.66192500  0.07437600
   0.65342200  0.66192500  0.07437600
   0.32008800  0.99525800  0.07437600
   0.65342200  0.99525800  0.07437600
   0.98675500  0.99525800  0.07437600
   0.20897700  0.10636900  0.17918600
   0.54231100  0.10636900  0.17918600
   0.87564400  0.10636900  0.17918600
   0.20897700  0.43970300  0.17918600
   0.54231100  0.43970300  0.17918600
   0.87564400  0.43970300  0.17918600
   0.20897700  0.77303600  0.17918600
   0.54231100  0.77303600  0.17918600
   0.87564400  0.77303600  0.17918600
   0.09592747  0.54591050  0.28261885
   0.43193851  0.88422097  0.28090304
   0.76098284  0.21756146  0.28540721
   0.09559144  0.22170668  0.28598621
   0.43238211  0.21898149  0.28409430
   0.09551998  0.88659367  0.28289276
   0.76597615  0.88476617  0.28428336
   0.43681090  0.55166512  0.28296025
   0.76684720  0.54779904  0.28693775
   0.32489579  0.66197376  0.38341908
   0.65306872  0.98771882  0.38525239
   0.32252378  0.32113933  0.38486262
   0.98594734  0.99214876  0.38955002
   0.32157782  0.99148256  0.38878168
   0.64003894  0.32579072  0.39648251
   0.99461253  0.66892807  0.38378646
   0.99519112  0.32220394  0.39271123
   0.65467242  0.66448003  0.38963119
