       N       E                     dE             d eps       ncg     rms          rms(c)
DAV:   1     0.241808120446E+04    0.24181E+04   -0.15951E+05  1824   0.129E+03
DAV:   2    -0.640018550780E+02   -0.24821E+04   -0.23067E+04  2120   0.286E+02
DAV:   3    -0.240865321284E+03   -0.17686E+03   -0.16081E+03  2192   0.689E+01
DAV:   4    -0.248327418503E+03   -0.74621E+01   -0.72015E+01  2384   0.135E+01
DAV:   5    -0.248527945123E+03   -0.20053E+00   -0.19827E+00  2328   0.226E+00    0.274E+01
RMM:   6    -0.247275529953E+03    0.12524E+01   -0.54750E+01  1832   0.148E+01    0.302E+01
RMM:   7    -0.238688985062E+03    0.85865E+01   -0.33432E+01  1829   0.909E+00    0.179E+01
RMM:   8    -0.244096087861E+03   -0.54071E+01   -0.80087E+00  1832   0.461E+00    0.253E+01
RMM:   9    -0.231449974926E+03    0.12646E+02   -0.37799E+00  1831   0.310E+00    0.818E+00
RMM:  10    -0.230532530730E+03    0.91744E+00   -0.11385E+00  1831   0.166E+00    0.482E+00
RMM:  11    -0.230099700418E+03    0.43283E+00   -0.34631E-01  1831   0.942E-01    0.269E+00
RMM:  12    -0.230020708647E+03    0.78992E-01   -0.17101E-01  1832   0.645E-01    0.227E+00
RMM:  13    -0.230009747315E+03    0.10961E-01   -0.15216E-01  1830   0.647E-01    0.227E+00
RMM:  14    -0.229957618482E+03    0.52129E-01   -0.10396E-01  1830   0.563E-01    0.984E-01
RMM:  15    -0.229947530029E+03    0.10088E-01   -0.31595E-02  1831   0.298E-01    0.566E-01
RMM:  16    -0.229942672820E+03    0.48572E-02   -0.69180E-03  1827   0.145E-01    0.251E-01
RMM:  17    -0.229942425058E+03    0.24776E-03   -0.17572E-03  1821   0.711E-02    0.190E-01
RMM:  18    -0.229942658542E+03   -0.23348E-03   -0.95661E-04  1812   0.529E-02    0.134E-01
RMM:  19    -0.229942727569E+03   -0.69028E-04   -0.50176E-04  1493   0.401E-02
   1 F= -.22994273E+03 E0= -.22993918E+03  d E =-.229943E+03
       N       E                     dE             d eps       ncg     rms          rms(c)
DAV:   1    -0.230178586719E+03   -0.23593E+00   -0.35799E+01  1852   0.108E+01    0.838E-01
RMM:   2    -0.230273097331E+03   -0.94511E-01   -0.66736E-01  1836   0.174E+00    0.166E+00
RMM:   3    -0.230246081698E+03    0.27016E-01   -0.45952E-02  1879   0.372E-01    0.104E+00
RMM:   4    -0.230231914279E+03    0.14167E-01   -0.14362E-02  1848   0.203E-01    0.575E-01
RMM:   5    -0.230228964502E+03    0.29498E-02   -0.73001E-03  1834   0.141E-01    0.457E-01
RMM:   6    -0.230228531898E+03    0.43260E-03   -0.10106E-02  1831   0.172E-01    0.360E-01
RMM:   7    -0.230226928343E+03    0.16036E-02   -0.44536E-03  1832   0.113E-01    0.188E-01
RMM:   8    -0.230226569494E+03    0.35885E-03   -0.12126E-03  1818   0.601E-02    0.111E-01
RMM:   9    -0.230226456279E+03    0.11322E-03   -0.28385E-04  1089   0.307E-02    0.589E-02
RMM:  10    -0.230226479577E+03   -0.23298E-04   -0.10683E-04   963   0.201E-02
   2 F= -.23022648E+03 E0= -.23022215E+03  d E =-.283752E+00
       N       E                     dE             d eps       ncg     rms          rms(c)
DAV:   1    -0.230309909852E+03   -0.83454E-01   -0.10234E+01  1832   0.598E+00    0.564E-01
RMM:   2    -0.230349981986E+03   -0.40072E-01   -0.37282E-01  1847   0.989E-01    0.830E-01
RMM:   3    -0.230342698060E+03    0.72839E-02   -0.13746E-02  1850   0.195E-01    0.638E-01
RMM:   4    -0.230337557765E+03    0.51403E-02   -0.45767E-03  1845   0.111E-01    0.388E-01
RMM:   5    -0.230337138295E+03    0.41947E-03   -0.67684E-03  1831   0.132E-01    0.416E-01
RMM:   6    -0.230335318516E+03    0.18198E-02   -0.56573E-03  1831   0.124E-01    0.278E-01
RMM:   7    -0.230334197330E+03    0.11212E-02   -0.18329E-03  1821   0.705E-02    0.105E-01
RMM:   8    -0.230334078901E+03    0.11843E-03   -0.32660E-04  1169   0.325E-02    0.680E-02
RMM:   9    -0.230334031847E+03    0.47054E-04   -0.11486E-04   981   0.211E-02
   3 F= -.23033403E+03 E0= -.23032950E+03  d E =-.107552E+00
       N       E                     dE             d eps       ncg     rms          rms(c)
DAV:   1    -0.230470095574E+03   -0.13602E+00   -0.12537E+02  1824   0.204E+01    0.150E+00
RMM:   2    -0.230898865482E+03   -0.42877E+00   -0.21135E+00  1833   0.316E+00    0.396E+00
RMM:   3    -0.230684934254E+03    0.21393E+00   -0.17175E-01  1866   0.719E-01    0.170E+00
RMM:   4    -0.230644308041E+03    0.40626E-01   -0.51706E-02  1841   0.387E-01    0.951E-01
RMM:   5    -0.230635992691E+03    0.83154E-02   -0.19428E-02  1839   0.231E-01    0.761E-01
RMM:   6    -0.230635821910E+03    0.17078E-03   -0.27303E-02  1831   0.278E-01    0.624E-01
RMM:   7    -0.230632008332E+03    0.38136E-02   -0.14377E-02  1831   0.203E-01    0.353E-01
RMM:   8    -0.230630236411E+03    0.17719E-02   -0.37440E-03  1824   0.105E-01    0.174E-01
RMM:   9    -0.230629797663E+03    0.43875E-03   -0.88892E-04  1816   0.512E-02    0.109E-01
RMM:  10    -0.230629596175E+03    0.20149E-03   -0.33045E-04  1142   0.325E-02    0.562E-02
RMM:  11    -0.230629571505E+03    0.24670E-04   -0.22236E-04   985   0.270E-02
   4 F= -.23062957E+03 E0= -.23062336E+03  d E =-.295540E+00
       N       E                     dE             d eps       ncg     rms          rms(c)
DAV:   1    -0.230661442986E+03   -0.31847E-01   -0.32245E+00  1840   0.339E+00    0.267E-01
RMM:   2    -0.230671344374E+03   -0.99014E-02   -0.73470E-02  1846   0.525E-01    0.507E-01
RMM:   3    -0.230669099602E+03    0.22448E-02   -0.47562E-03  1866   0.118E-01    0.340E-01
RMM:   4    -0.230668022925E+03    0.10767E-02   -0.16758E-03  1837   0.689E-02    0.227E-01
RMM:   5    -0.230667364528E+03    0.65840E-03   -0.61019E-04  1563   0.419E-02    0.115E-01
RMM:   6    -0.230667337102E+03    0.27426E-04   -0.50705E-04  1387   0.398E-02    0.772E-02
RMM:   7    -0.230667371240E+03   -0.34138E-04   -0.35876E-04  1221   0.351E-02    0.781E-02
RMM:   8    -0.230667281302E+03    0.89938E-04   -0.12362E-04   963   0.226E-02
   5 F= -.23066728E+03 E0= -.23066154E+03  d E =-.377098E-01
       N       E                     dE             d eps       ncg     rms          rms(c)
