 vasp.5.4.4 16052018 (build Apr 24 2014 20:13:14) complex standard
 Contain Constrained Minimization Technique (TS), Periodic NBO, VASPsol, libbeef, VASP2WANNIER90, Constrained Cell Relaxation
 executed on Center for Computational Chemistry by phu@node09 date 2025.11.24 21:19:15
 running on    8 total cores
 distrk:  each k-point on    8 cores,    1 groups
 distr:  one band on NCORES_PER_BAND=   2 cores,    4 groups


--------------------------------------------------------------------------------------------------------


 INCAR:
 POTCAR:   PAW_PBE C 08Apr2002                    
 POTCAR:   PAW_PBE O 08Apr2002                    
 POTCAR:    PAW_PBE Pt 04Feb2005                  
 POTCAR:   PAW_PBE C 08Apr2002                    
   VRHFIN =C: s2p2                                                              
   LEXCH  = PE                                                                  
   EATOM  =   147.1560 eV,   10.8157 Ry                                         
                                                                                
   TITEL  = PAW_PBE C 08Apr2002                                                 
   LULTRA =        F    use ultrasoft PP ?                                      
   IUNSCR =        0    unscreen: 0-lin 1-nonlin 2-no                           
   RPACOR =     .000    partial core radius                                     
   POMASS =   12.011; ZVAL   =    4.000    mass and valenz                      
   RCORE  =    1.500    outmost cutoff radius                                   
   RWIGS  =    1.630; RWIGS  =     .863    wigner-seitz radius (au A)           
   ENMAX  =  400.000; ENMIN  =  300.000 eV                                      
   ICORE  =        2    local potential                                         
   LCOR   =        T    correct aug charges                                     
   LPAW   =        T    paw PP                                                  
   EAUG   =  644.873                                                            
   DEXC   =     .000                                                            
   RMAX   =    2.266    core radius for proj-oper                               
   RAUG   =    1.300    factor for augmentation sphere                          
   RDEP   =    1.501    radius for radial grids                                 
   RDEPT  =    1.300    core radius for aug-charge                              
   QCUT   =   -5.516; QGAM   =   11.032    optimization parameters              
                                                                                
   Description                                                                  
     l     E      TYP  RCUT    TYP  RCUT                                        
     0   .000     23  1.200                                                     
     0   .000     23  1.200                                                     
     1   .000     23  1.500                                                     
     1  2.500     23  1.500                                                     
     2   .000      7  1.500                                                     
  local pseudopotential read in
  atomic valenz-charges read in
  non local Contribution for L=           0  read in
    real space projection operators read in
  non local Contribution for L=           0  read in
    real space projection operators read in
  non local Contribution for L=           1  read in
    real space projection operators read in
  non local Contribution for L=           1  read in
    real space projection operators read in
    PAW grid and wavefunctions read in
 
   number of l-projection  operators is LMAX  =           4
   number of lm-projection operators is LMMAX =           8
 
 POTCAR:   PAW_PBE O 08Apr2002                    
   VRHFIN =O: s2p4                                                              
   LEXCH  = PE                                                                  
   EATOM  =   432.3788 eV,   31.7789 Ry                                         
                                                                                
   TITEL  = PAW_PBE O 08Apr2002                                                 
   LULTRA =        F    use ultrasoft PP ?                                      
   IUNSCR =        0    unscreen: 0-lin 1-nonlin 2-no                           
   RPACOR =     .000    partial core radius                                     
   POMASS =   16.000; ZVAL   =    6.000    mass and valenz                      
   RCORE  =    1.520    outmost cutoff radius                                   
   RWIGS  =    1.550; RWIGS  =     .820    wigner-seitz radius (au A)           
   ENMAX  =  400.000; ENMIN  =  300.000 eV                                      
   ICORE  =        2    local potential                                         
   LCOR   =        T    correct aug charges                                     
   LPAW   =        T    paw PP                                                  
   EAUG   =  605.392                                                            
   DEXC   =     .000                                                            
   RMAX   =    2.264    core radius for proj-oper                               
   RAUG   =    1.300    factor for augmentation sphere                          
   RDEP   =    1.550    radius for radial grids                                 
   QCUT   =   -5.520; QGAM   =   11.041    optimization parameters              
                                                                                
   Description                                                                  
     l     E      TYP  RCUT    TYP  RCUT                                        
     0   .000     23  1.200                                                     
     0  -.700     23  1.200                                                     
     1   .000     23  1.520                                                     
     1   .600     23  1.520                                                     
     2   .000      7  1.500                                                     
  local pseudopotential read in
  atomic valenz-charges read in
  non local Contribution for L=           0  read in
    real space projection operators read in
  non local Contribution for L=           0  read in
    real space projection operators read in
  non local Contribution for L=           1  read in
    real space projection operators read in
  non local Contribution for L=           1  read in
    real space projection operators read in
    PAW grid and wavefunctions read in
 
   number of l-projection  operators is LMAX  =           4
   number of lm-projection operators is LMMAX =           8
 
 POTCAR:    PAW_PBE Pt 04Feb2005                  
   VRHFIN =Pt: s1d9                                                             
   LEXCH  = PE                                                                  
   EATOM  =   729.1182 eV,   53.5887 Ry                                         
                                                                                
   TITEL  = PAW_PBE Pt 04Feb2005                                                
   LULTRA =        F    use ultrasoft PP ?                                      
   IUNSCR =        1    unscreen: 0-lin 1-nonlin 2-no                           
   RPACOR =    2.330    partial core radius                                     
   POMASS =  195.080; ZVAL   =   10.000    mass and valenz                      
   RCORE  =    2.600    outmost cutoff radius                                   
   RWIGS  =    2.750; RWIGS  =    1.455    wigner-seitz radius (au A)           
   ENMAX  =  230.283; ENMIN  =  172.712 eV                                      
   ICORE  =        3    local potential                                         
   LCOR   =        T    correct aug charges                                     
   LPAW   =        T    paw PP                                                  
   EAUG   =  358.966                                                            
   DEXC   =     .000                                                            
   RMAX   =    3.038    core radius for proj-oper                               
   RAUG   =    1.300    factor for augmentation sphere                          
   RDEP   =    2.761    radius for radial grids                                 
   QCUT   =   -4.114; QGAM   =    8.228    optimization parameters              
                                                                                
   Description                                                                  
     l     E      TYP  RCUT    TYP  RCUT                                        
     2   .000     23  2.500                                                     
     2   .000     23  2.500                                                     
     0   .000     23  2.500                                                     
     0   .000     23  2.500                                                     
     1  -.200     23  2.600                                                     
     1  1.500     23  2.600                                                     
     3   .000     23  2.500                                                     
  local pseudopotential read in
  partial core-charges read in
  atomic valenz-charges read in
  non local Contribution for L=           2  read in
    real space projection operators read in
  non local Contribution for L=           2  read in
    real space projection operators read in
  non local Contribution for L=           0  read in
    real space projection operators read in
  non local Contribution for L=           0  read in
    real space projection operators read in
  non local Contribution for L=           1  read in
    real space projection operators read in
  non local Contribution for L=           1  read in
    real space projection operators read in
    PAW grid and wavefunctions read in
 
   number of l-projection  operators is LMAX  =           6
   number of lm-projection operators is LMMAX =          18
 
 Optimization of the real space projectors (new method)

 maximal supplied QI-value         = 25.13
 optimisation between [QCUT,QGAM] = [ 10.81, 21.61] = [ 32.71,130.83] Ry 
 Optimized for a Real-space Cutoff    1.23 Angstroem

   l    n(q)    QCUT    max X(q) W(low)/X(q) W(high)/X(q)  e(spline) 
   0      8    10.807     5.582    0.53E-04    0.84E-04    0.44E-07
   0      8    10.807    69.432    0.35E-03    0.71E-03    0.24E-06
   1      7    10.807     2.780    0.44E-04    0.88E-04    0.89E-07
   1      7    10.807     4.549    0.14E-03    0.28E-03    0.13E-06
 Optimization of the real space projectors (new method)

 maximal supplied QI-value         = 24.76
 optimisation between [QCUT,QGAM] = [ 10.64, 21.54] = [ 31.73,129.89] Ry 
 Optimized for a Real-space Cutoff    1.23 Angstroem

   l    n(q)    QCUT    max X(q) W(low)/X(q) W(high)/X(q)  e(spline) 
   0      8    10.645     4.192    0.69E-04    0.93E-04    0.58E-07
   0      8    10.645     8.473    0.40E-03    0.65E-03    0.17E-06
   1      7    10.645     2.474    0.80E-04    0.12E-03    0.30E-07
   1      7    10.645     3.912    0.24E-03    0.53E-03    0.16E-06
 Optimization of the real space projectors (new method)

 maximal supplied QI-value         = 14.36
 optimisation between [QCUT,QGAM] = [ 10.77, 21.69] = [ 32.49,131.70] Ry 
 Optimized for a Real-space Cutoff    1.46 Angstroem

   l    n(q)    QCUT    max X(q) W(low)/X(q) W(high)/X(q)  e(spline) 
   2      9    10.771     3.903    0.38E-04    0.12E-03    0.82E-07
   2      9    10.771    18.372    0.13E-03    0.32E-03    0.28E-06
   0     10    10.771    13.697    0.11E-04    0.86E-05    0.85E-08
   0     10    10.771    65.529    0.40E-04    0.12E-03    0.14E-06
   1      9    10.771     7.604    0.48E-04    0.31E-04    0.38E-07
   1      9    10.771    12.136    0.35E-03    0.16E-03    0.23E-06
 PAW_PBE C 08Apr2002                    :
 energy of atom  1       EATOM= -147.1560
 kinetic energy error for atom=    0.0116 (will be added to EATOM!!)
 PAW_PBE O 08Apr2002                    :
 energy of atom  2       EATOM= -432.3788
 kinetic energy error for atom=    0.0389 (will be added to EATOM!!)
  PAW_PBE Pt 04Feb2005                  :
 energy of atom  3       EATOM= -729.1182
 kinetic energy error for atom=    0.0051 (will be added to EATOM!!)
 
 
 POSCAR: C    O    Pt                            
  positions in direct lattice
  No initial velocities read in
 exchange correlation table for  LEXCH =        8
   RHO(1)=    0.500       N(1)  =     2000
   RHO(2)=  100.500       N(2)  =     4000

 VTST: version 3.2, (02/03/18)

 CHAIN: initializing optimizer
 
 OPT: Using VASP QUASI-newton optimizer
 CHAIN: Read ICHAIN            0
 
 POSCAR: C    O    Pt                            
  positions in direct lattice
  No initial velocities read in
 


--------------------------------------------------------------------------------------------------------


 ion  position               nearest neighbor table
   1  0.705  0.438  0.479-   3 1.16   2 1.96  36 2.01
   2  0.902  0.380  0.469-   1 1.96  38 2.04  36 2.57
   3  0.677  0.465  0.529-   1 1.16
   4  0.987  0.329  0.074-  15 2.81  16 2.81  12 2.81   5 2.81  11 2.81   6 2.81  18 2.81   8 2.81
                             7 2.81
   5  0.320  0.329  0.074-  13 2.81  10 2.81   4 2.81  12 2.81  16 2.81  17 2.81   8 2.81   9 2.81
                             6 2.81
   6  0.653  0.329  0.074-  14 2.81  18 2.81  11 2.81   4 2.81  17 2.81   7 2.81  10 2.81   9 2.81
                             5 2.81
   7  0.987  0.662  0.074-  18 2.81  21 2.81  19 2.81  12 2.81   8 2.81  10 2.81   9 2.81   6 2.81
                             4 2.81
   8  0.320  0.662  0.074-  16 2.81  19 2.81  10 2.81   7 2.81  20 2.81   4 2.81  11 2.81   5 2.81
                             9 2.81
   9  0.653  0.662  0.074-  17 2.81  20 2.81  21 2.81  11 2.81  12 2.81   7 2.81   6 2.81   5 2.81
                             8 2.81
  10  0.320  0.995  0.074-  13 2.81  19 2.81   5 2.81   8 2.81  12 2.81   7 2.81  14 2.81   6 2.81
                            11 2.81
  11  0.653  0.995  0.074-  14 2.81  20 2.81  15 2.81   9 2.81   6 2.81  12 2.81   4 2.81   8 2.81
                            10 2.81
  12  0.987  0.995  0.074-  15 2.81  21 2.81  13 2.81   7 2.81   4 2.81  10 2.81   5 2.81  11 2.81
                             9 2.81
  13  0.209  0.106  0.179-  27 2.73  26 2.75  25 2.76  10 2.81   5 2.81  12 2.81  19 2.81  15 2.81
                            21 2.81  16 2.81  17 2.81  14 2.81
  14  0.542  0.106  0.179-  23 2.71  26 2.79   6 2.81  11 2.81  20 2.81  15 2.81  10 2.81  18 2.81
                            19 2.81  17 2.81  13 2.81  24 2.86
  15  0.876  0.106  0.179-  28 2.70  25 2.73   4 2.81  12 2.81  11 2.81  21 2.81  13 2.81  20 2.81
                            14 2.81  16 2.81  18 2.81  24 2.87
  16  0.209  0.440  0.179-  25 2.71  29 2.78  22 2.80   8 2.81   4 2.81  19 2.81  18 2.81   5 2.81
                            15 2.81  20 2.81  13 2.81  17 2.81
  17  0.542  0.440  0.179-  26 2.74  30 2.74  29 2.80   9 2.81  20 2.81  21 2.81  18 2.81   6 2.81
                             5 2.81  14 2.81  13 2.81  16 2.81
  18  0.876  0.440  0.179-  30 2.77   7 2.81   6 2.81  21 2.81  16 2.81  19 2.81  17 2.81   4 2.81
                            14 2.81  15 2.81  22 2.84  24 2.88
  19  0.209  0.773  0.179-  23 2.71  27 2.74   8 2.81  10 2.81   7 2.81  16 2.81  13 2.81  18 2.81
                            21 2.81  14 2.81  20 2.81  22 2.84
  20  0.542  0.773  0.179-  28 2.70  23 2.75  29 2.79  11 2.81   9 2.81  17 2.81  14 2.81  21 2.81
                            15 2.81   8 2.81  16 2.81  19 2.81
  21  0.876  0.773  0.179-  28 2.73  27 2.74  30 2.78  12 2.81   7 2.81   9 2.81  18 2.81  15 2.81
                            19 2.81  13 2.81  17 2.81  20 2.81
  22  0.101  0.547  0.285-  31 2.69  25 2.72  29 2.75  37 2.75  16 2.80  38 2.81  23 2.82  24 2.82
                            18 2.84  19 2.84  27 2.86  30 2.88
  23  0.428  0.888  0.279-  14 2.71  19 2.71  27 2.75  20 2.75  24 2.80  26 2.81  22 2.82  28 2.82
                            31 2.83  35 2.83  29 2.84  32 2.85
  24  0.763  0.216  0.288-  32 2.70  28 2.78  38 2.80  23 2.80  25 2.80  30 2.81  22 2.82  26 2.84
                            14 2.86  15 2.87  18 2.88  36 2.90
  25  0.097  0.222  0.280-  16 2.71  22 2.72  15 2.73  13 2.76  29 2.79  26 2.79  24 2.80  33 2.82
                            28 2.83  38 2.84  27 2.84  34 2.98
  26  0.429  0.222  0.281-  33 2.69  17 2.74  13 2.75  30 2.77  29 2.77  14 2.79  25 2.79  27 2.81
                            23 2.81  24 2.84  35 2.86  36 2.94
  27  0.100  0.886  0.280-  13 2.73  19 2.74  21 2.74  23 2.75  37 2.76  26 2.81  25 2.84  28 2.85
                            30 2.86  22 2.86  35 2.88  34 2.94
  28  0.761  0.886  0.278-  20 2.70  15 2.70  21 2.73  24 2.78  29 2.81  32 2.81  23 2.82  25 2.83
                            30 2.84  27 2.85  39 2.95  34 2.98
  29  0.430  0.552  0.283-  31 2.73  22 2.75  26 2.77  33 2.77  16 2.78  20 2.79  25 2.79  30 2.80
                            17 2.80  28 2.81  23 2.84  39 2.88
  30  0.760  0.548  0.281-  17 2.74  26 2.77  18 2.77  21 2.78  29 2.80  24 2.81  37 2.82  28 2.84
                            27 2.86  39 2.86  22 2.88  36 3.00
  31  0.320  0.661  0.384-  22 2.69  29 2.73  32 2.79  35 2.80  37 2.80  38 2.81  23 2.83  39 2.84
                            33 2.89
  32  0.653  0.991  0.386-  24 2.70  35 2.78  31 2.79  34 2.79  39 2.80  28 2.81  38 2.83  36 2.85
                            23 2.85
  33  0.326  0.322  0.384-  36 2.65  26 2.69  35 2.74  29 2.77  38 2.82  25 2.82  34 2.83  39 2.84
                            31 2.89
  34  0.985  0.993  0.392-  37 2.75  38 2.76  39 2.77  32 2.79  33 2.83  35 2.86  27 2.94  25 2.98
                            28 2.98
  35  0.326  0.996  0.388-  36 2.69  33 2.74  37 2.77  32 2.78  31 2.80  23 2.83  34 2.86  26 2.86
                            27 2.88
  36  0.639  0.321  0.396-   1 2.01   2 2.57  33 2.65  35 2.69  39 2.80  32 2.85  24 2.90  26 2.94
                            38 2.97  37 2.98  30 3.00
  37  0.993  0.672  0.384-  34 2.75  22 2.75  27 2.76  35 2.77  39 2.79  31 2.80  30 2.82  38 2.93
                            36 2.98
  38  0.993  0.324  0.390-   2 2.04  34 2.76  24 2.80  31 2.81  22 2.81  33 2.82  32 2.83  25 2.84
                            37 2.93  36 2.97
  39  0.658  0.662  0.391-  34 2.77  37 2.79  36 2.80  32 2.80  33 2.84  31 2.84  30 2.86  29 2.88
                            28 2.95
 

IMPORTANT INFORMATION: All symmetrisations will be switched off!
NOSYMM: (Re-)initialisation of all symmetry stuff for point group C_1.

 
 
 KPOINTS: mesh auto                               

Automatic generation of k-mesh.
Space group operators:
 irot       det(A)        alpha          n_x          n_y          n_z        tau_x        tau_y        tau_z
    1     1.000000     0.000000     1.000000     0.000000     0.000000     0.000000     0.000000     0.000000
 
 Subroutine IBZKPT returns following result:
 ===========================================
 
 Found      4 irreducible k-points:
 
 Following reciprocal coordinates:
            Coordinates               Weight
  0.000000  0.000000  0.000000      1.000000
  0.500000  0.000000  0.000000      1.000000
 -0.000000  0.500000  0.000000      1.000000
  0.500000  0.500000  0.000000      1.000000
 
 Following cartesian coordinates:
            Coordinates               Weight
  0.000000  0.000000  0.000000      1.000000
  0.068522  0.000000  0.000000      1.000000
  0.034261  0.059342  0.000000      1.000000
  0.102783  0.059342  0.000000      1.000000
 


--------------------------------------------------------------------------------------------------------




 Dimension of arrays:
   k-points           NKPTS =      4   k-points in BZ     NKDIM =      4   number of bands    NBANDS=    228
   number of dos      NEDOS =    301   number of ions     NIONS =     39
   non local maximal  LDIM  =      6   non local SUM 2l+1 LMDIM =     18
   total plane-waves  NPLWV = 276480
   max r-space proj   IRMAX =   2756   max aug-charges    IRDMAX=  12646
   dimension x,y,z NGX =    48 NGY =   48 NGZ =  120
   dimension x,y,z NGXF=    96 NGYF=   96 NGZF=  240
   support grid    NGXF=    96 NGYF=   96 NGZF=  240
   ions per type =               1   2  36
   NGX,Y,Z   is equivalent  to a cutoff of   9.47,  9.47,  9.12 a.u.
   NGXF,Y,Z  is equivalent  to a cutoff of  18.94, 18.94, 18.24 a.u.

 SYSTEM =  metal                                   
 POSCAR =  C    O    Pt                            

 Startparameter for this run:
   NWRITE =      2    write-flag & timer
   PREC   = normal    normal or accurate (medium, high low for compatibility)
   ISTART =      0    job   : 0-new  1-cont  2-samecut
   ICHARG =      2    charge: 1-file 2-atom 10-const
   ISPIN  =      1    spin polarized calculation?
   LNONCOLLINEAR =      F non collinear calculations
   LSORBIT =      F    spin-orbit coupling
   INIWAV =      1    electr: 0-lowe 1-rand  2-diag
   LASPH  =      F    aspherical Exc in radial PAW
   METAGGA=      F    non-selfconsistent MetaGGA calc.

 Electronic Relaxation 1
   ENCUT  =  450.0 eV  33.07 Ry    5.75 a.u.  14.57 14.57 37.84*2*pi/ulx,y,z
   ENINI  =  450.0     initial cutoff
   ENAUG  =  644.9 eV  augmentation charge cutoff
   NELM   =     60;   NELMIN=  8; NELMDL= -5     # of ELM steps 
   EDIFF  = 0.1E-03   stopping-criterion for ELM
   LREAL  =      T    real-space projection
   NLSPLINE    = F    spline interpolate recip. space projectors
   LCOMPAT=      F    compatible to vasp.4.4
   GGA_COMPAT  = T    GGA compatible to vasp.4.4-vasp.4.6
   LMAXPAW     = -100 max onsite density
   LMAXMIX     =    2 max onsite mixed and CHGCAR
   VOSKOWN=      0    Vosko Wilk Nusair interpolation
   ROPT   =   -0.00050  -0.00050  -0.00050
 Ionic relaxation
   EDIFFG = -.5E-01   stopping-criterion for IOM
   NSW    =   5000    number of steps for IOM
   NBLOCK =      1;   KBLOCK =   5000    inner block; outer block 
   IBRION =      1    ionic relax: 0-MD 1-quasi-New 2-CG
   NFREE  =      0    steps in history (QN), initial steepest desc. (CG)
   ISIF   =      2    stress and relaxation
   IWAVPR =     11    prediction:  0-non 1-charg 2-wave 3-comb
   ISYM   =      0    0-nonsym 1-usesym 2-fastsym
   LCORR  =      T    Harris-Foulkes like correction to forces

   POTIM  = 0.2000    time-step for ionic-motion
   TEIN   =    0.0    initial temperature
   TEBEG  =    0.0;   TEEND  =   0.0 temperature during run
   SMASS  =  -3.00    Nose mass-parameter (am)
   estimated Nose-frequenzy (Omega)   =  0.10E-29 period in steps =****** mass=  -0.162E-26a.u.
   SCALEE = 1.0000    scale energy and forces
   NPACO  =    256;   APACO  = 16.0  distance and # of slots for P.C.
   PSTRESS=    0.0 pullay stress

  Mass of Ions in am
   POMASS =  12.01 16.00195.08
  Ionic Valenz
   ZVAL   =   4.00  6.00 10.00
  Atomic Wigner-Seitz radii
   RWIGS  =  -1.00 -1.00 -1.00
  virtual crystal weights 
   VCA    =   1.00  1.00  1.00
   NELECT =     376.0000    total number of electrons
   NUPDOWN=      -1.0000    fix difference up-down

 DOS related values:
   EMIN   =  10.00;   EMAX   =-10.00  energy-range for DOS
   EFERMI =   0.00
   ISMEAR =     1;   SIGMA  =   0.20  broadening in eV -4-tet -1-fermi 0-gaus

 Electronic relaxation 2 (details)
   IALGO  =     68    algorithm
   LDIAG  =      T    sub-space diagonalisation (order eigenvalues)
   LSUBROT=      F    optimize rotation matrix (better conditioning)
   TURBO    =      0    0=normal 1=particle mesh
   IRESTART =      0    0=no restart 2=restart with 2 vectors
   NREBOOT  =      0    no. of reboots
   NMIN     =      0    reboot dimension
   EREF     =   0.00    reference energy to select bands
   IMIX   =      4    mixing-type and parameters
     AMIX     =   0.40;   BMIX     =  1.00
     AMIX_MAG =   1.60;   BMIX_MAG =  1.00
     AMIN     =   0.10
     WC   =   100.;   INIMIX=   1;  MIXPRE=   1;  MAXMIX= -45

 Intra band minimization:
   WEIMIN = 0.0010     energy-eigenvalue tresh-hold
   EBREAK =  0.11E-06  absolut break condition
   DEPER  =   0.30     relativ break condition  

   TIME   =   0.40     timestep for ELM

  volume/ion in A,a.u.               =      34.49       232.77
  Fermi-wavevector in a.u.,A,eV,Ry     =   1.070385  2.022734 15.588510  1.145723
  Thomas-Fermi vector in A             =   2.206093
 
 Write flags
   LWAVE        =      F    write WAVECAR
   LDOWNSAMPLE  =      F    k-point downsampling of WAVECAR
   LCHARG       =      F    write CHGCAR
   LVTOT        =      F    write LOCPOT, total local potential
   LVHAR        =      F    write LOCPOT, Hartree potential only
   LELF         =      F    write electronic localiz. function (ELF)
   LORBIT       =      0    0 simple, 1 ext, 2 COOP (PROOUT), +10 PAW based schemes


 Dipole corrections
   LMONO  =      F    monopole corrections only (constant potential shift)
   LDIPOL =      F    correct potential (dipole corrections)
   IDIPOL =      0    1-x, 2-y, 3-z, 4-all directions 
   EPSILON=  1.0000000 bulk dielectric constant

 Exchange correlation treatment:
   GGA     =    --    GGA type
   LEXCH   =     8    internal setting for exchange type
   VOSKOWN=      0    Vosko Wilk Nusair interpolation
   LHFCALC =     F    Hartree Fock is set to
   LHFONE  =     F    Hartree Fock one center treatment
   AEXX    =    0.0000 exact exchange contribution

 Linear response parameters
   LEPSILON=     F    determine dielectric tensor
   LRPA    =     F    only Hartree local field effects (RPA)
   LNABLA  =     F    use nabla operator in PAW spheres
   LVEL    =     F    velocity operator in full k-point grid
   LINTERFAST=   F  fast interpolation
   KINTER  =     0    interpolate to denser k-point grid
   CSHIFT  =0.1000    complex shift for real part using Kramers Kronig
   OMEGAMAX=  -1.0    maximum frequency
   DEG_THRESHOLD= 0.2000000E-02 threshold for treating states as degnerate
   RTIME   =   -0.100 relaxation time in fs
  (WPLASMAI=    0.000 imaginary part of plasma frequency in eV, 0.658/RTIME)
   DFIELD  = 0.0000000 0.0000000 0.0000000 field for delta impulse in time
 
 Orbital magnetization related:
   ORBITALMAG=     F  switch on orbital magnetization
   LCHIMAG   =     F  perturbation theory with respect to B field
   DQ        =  0.001000  dq finite difference perturbation B field
   LLRAUG    =     F  two centre corrections for induced B field



--------------------------------------------------------------------------------------------------------


 quasi-Newton-method for relaxation of ions
   using selective dynamics as specified on POSCAR
 charge density and potential will be updated during run
 non-spin polarized calculation
 RMM-DIIS sequential band-by-band and
  variant of blocked Davidson during initial phase
 perform sub-space diagonalisation
    before iterative eigenvector-optimisation
 modified Broyden-mixing scheme, WC =      100.0
 initial mixing is a Kerker type mixing with AMIX =  0.4000 and BMIX =      1.0000
 Hartree-type preconditioning will be used
 using additional bands           40
 real space projection scheme for non local part
 use partial core corrections
 calculate Harris-corrections to forces 
   (improved forces if not selfconsistent)
 use gradient corrections 
 use of overlap-Matrix (Vanderbilt PP)
 Methfessel and Paxton  Order N= 1 SIGMA  =   0.20


--------------------------------------------------------------------------------------------------------


  energy-cutoff  :      450.00
  volume of cell :     1345.22
      direct lattice vectors                 reciprocal lattice vectors
     7.296955120 -4.212899000  0.000000000     0.137043463  0.000000000  0.000000000
     0.000000000  8.425798000  0.000000000     0.068521732  0.118683121  0.000000000
     0.000000000  0.000000000 21.879635000     0.000000000  0.000000000  0.045704602

  length of vectors
     8.425798004  8.425798000 21.879635000     0.137043463  0.137043463  0.045704602


 
 k-points in units of 2pi/SCALE and weight: mesh auto                               
   0.00000000  0.00000000  0.00000000       0.250
   0.06852173  0.00000000  0.00000000       0.250
   0.03426087  0.05934156  0.00000000       0.250
   0.10278260  0.05934156  0.00000000       0.250
 
 k-points in reciprocal lattice and weights: mesh auto                               
   0.00000000  0.00000000  0.00000000       0.250
   0.50000000  0.00000000  0.00000000       0.250
  -0.00000000  0.50000000  0.00000000       0.250
   0.50000000  0.50000000  0.00000000       0.250
 
 position of ions in fractional coordinates (direct lattice) 
   0.70516089  0.43833195  0.47907323
   0.90181480  0.38008211  0.46901272
   0.67702435  0.46518784  0.52896177
   0.98675500  0.32859100  0.07437600
   0.32008800  0.32859100  0.07437600
   0.65342200  0.32859100  0.07437600
   0.98675500  0.66192500  0.07437600
   0.32008800  0.66192500  0.07437600
   0.65342200  0.66192500  0.07437600
   0.32008800  0.99525800  0.07437600
   0.65342200  0.99525800  0.07437600
   0.98675500  0.99525800  0.07437600
   0.20897700  0.10636900  0.17918600
   0.54231100  0.10636900  0.17918600
   0.87564400  0.10636900  0.17918600
   0.20897700  0.43970300  0.17918600
   0.54231100  0.43970300  0.17918600
   0.87564400  0.43970300  0.17918600
   0.20897700  0.77303600  0.17918600
   0.54231100  0.77303600  0.17918600
   0.87564400  0.77303600  0.17918600
   0.10070038  0.54695992  0.28491569
   0.42772474  0.88794690  0.27914152
   0.76258884  0.21568001  0.28756967
   0.09729777  0.22217636  0.27979383
   0.42902333  0.22229471  0.28117827
   0.09978326  0.88581760  0.27993506
   0.76146256  0.88622251  0.27848941
   0.42963284  0.55160428  0.28293156
   0.75978741  0.54783991  0.28141572
   0.32047454  0.66148133  0.38385787
   0.65316663  0.99121861  0.38567329
   0.32590569  0.32155927  0.38376463
   0.98503370  0.99284831  0.39234675
   0.32572832  0.99632599  0.38799664
   0.63859013  0.32124093  0.39581258
   0.99291976  0.67164223  0.38407882
   0.99251774  0.32377678  0.38981244
   0.65774582  0.66185049  0.39053001
 
 position of ions in cartesian coordinates  (Angst):
   5.14552738  0.72252488 10.48194752
   6.58050214 -0.59675964 10.26182720
   4.94021627  1.06734355 11.57349038
   7.20030695 -1.38845776  1.62731973
   2.33566777  1.42014298  1.62731973
   4.76799101  0.01584050  1.62731973
   7.20030695  1.42014719  1.62731973
   2.33566777  4.22874793  1.62731973
   4.76799101  2.82444545  1.62731973
   2.33566777  7.03734445  1.62731973
   4.76799101  5.63304198  1.62731973
   7.20030695  4.22874371  1.62731973
   1.52489579  0.01584471  3.92052428
   3.95721903 -1.38845776  3.92052428
   6.38953497 -2.79275602  3.92052428
   1.52489579  2.82444966  3.92052428
   3.95721903  1.42014719  3.92052428
   6.38953497  0.01584893  3.92052428
   1.52489579  5.63304619  3.92052428
   3.95721903  4.22874371  3.92052428
   6.38953497  2.82444545  3.92052428
   0.73480615  4.18433323  6.23385129
   3.12108826  5.67970005  6.10751467
   5.56457653 -1.39543357  6.29191952
   0.70997747  1.46210748  6.12178684
   3.13056399  0.06557833  6.15207787
   0.72811400  7.04334333  6.12487700
   5.55635811  4.25916698  6.09324672
   3.13501154  2.83770650  6.19043925
   5.54413460  1.41508083  6.15727329
   2.33848833  4.22338119  8.39867015
   4.76612756  5.60008278  8.43839077
   2.37811920  1.33638568  8.39663003
   7.18774670  4.21569184  8.58440378
   2.37682494  7.02258103  8.48922497
   4.65976354  0.01639542  8.66023489
   7.24529089  1.47605113  8.40350439
   7.24235744 -1.45329928  8.52895390
   4.79954175  2.80560185  8.54465416
 


--------------------------------------------------------------------------------------------------------


 k-point  1 :   0.0000 0.0000 0.0000  plane waves:   29241
 k-point  2 :   0.5000 0.0000 0.0000  plane waves:   29108
 k-point  3 :  -0.0000 0.5000 0.0000  plane waves:   29108
 k-point  4 :   0.5000 0.5000 0.0000  plane waves:   29108

 maximum and minimum number of plane-waves per node :     14624    14548

 maximum number of plane-waves:     29241
 maximum index in each direction: 
   IXMAX=   14   IYMAX=   14   IZMAX=   37
   IXMIN=  -15   IYMIN=  -15   IZMIN=  -37


 real space projection operators:
  total allocation   :      13554.20 KBytes
  max/ min on nodes  :       6783.67       6770.53


 parallel 3D FFT for wavefunctions:
    minimum data exchange during FFTs selected (reduces bandwidth)
 parallel 3D FFT for charge:
    minimum data exchange during FFTs selected (reduces bandwidth)


 total amount of memory used by VASP MPI-rank0   131951. kBytes
=======================================================================

   base      :      30000. kBytes
   nonlr-proj:      10143. kBytes
   fftplans  :      13556. kBytes
   grid      :      23353. kBytes
   one-center:        311. kBytes
   wavefun   :      54588. kBytes
 
     INWAV:  cpu time    0.0000: real time    0.0000
 Broyden mixing: mesh for mixing (old mesh)
   NGX = 29   NGY = 29   NGZ = 75
  (NGX  = 96   NGY  = 96   NGZ  =240)
  gives a total of  63075 points

 initial charge density was supplied:
 charge density of overlapping atoms calculated
 number of electron     376.0000000 magnetization 
 keeping initial charge density in first step


--------------------------------------------------------------------------------------------------------


 Maximum index for non-local projection operator         1324
 Maximum index for augmentation-charges         1558 (set IRDMAX)


--------------------------------------------------------------------------------------------------------


 First call to EWALD:  gamma=   0.161
 Maximum number of real-space cells 4x 4x 2
 Maximum number of reciprocal cells 2x 2x 5

    FEWALD:  cpu time    0.0027: real time    0.0027


--------------------------------------- Iteration      1(   1)  ---------------------------------------


    POTLOK:  cpu time    0.2473: real time    0.2974
    SETDIJ:  cpu time    0.0217: real time    0.0218
     EDDAV:  cpu time   16.0505: real time   17.1984
       DOS:  cpu time    0.0010: real time    0.0010
    --------------------------------------------
      LOOP:  cpu time   16.3205: real time   17.5186

 eigenvalue-minimisations  :  1824
 total energy-change (2. order) : 0.2418081E+04  (-0.1595098E+05)
 number of electron     376.0000000 magnetization 
 augmentation part      376.0000000 magnetization 

 Free energy of the ion-electron system (eV)
  ---------------------------------------------------
  alpha Z        PSCENC =       975.10247152
  Ewald energy   TEWEN  =     91371.47682587
  -Hartree energ DENC   =   -120462.47670169
  -exchange      EXHF   =         0.00000000
  -V(xc)+E(xc)   XCENC  =       189.55571073
  PAW double counting   =     24789.08602224   -23775.73976456
  entropy T*S    EENTRO =         0.01944689
  eigenvalues    EBANDS =      2071.16303260
  atomic energy  EATOM  =     27259.89416086
  Solvation  Ediel_sol  =         0.00000000
  ---------------------------------------------------
  free energy    TOTEN  =      2418.08120446 eV

  energy without entropy =     2418.06175756  energy(sigma->0) =     2418.07472216


--------------------------------------------------------------------------------------------------------




--------------------------------------- Iteration      1(   2)  ---------------------------------------


     EDDAV:  cpu time   15.5877: real time   16.3806
       DOS:  cpu time    0.0010: real time    0.0010
    --------------------------------------------
      LOOP:  cpu time   15.5887: real time   16.3816

 eigenvalue-minimisations  :  2120
 total energy-change (2. order) :-0.2482083E+04  (-0.2306703E+04)
 number of electron     376.0000000 magnetization 
 augmentation part      376.0000000 magnetization 

 Free energy of the ion-electron system (eV)
  ---------------------------------------------------
  alpha Z        PSCENC =       975.10247152
  Ewald energy   TEWEN  =     91371.47682587
  -Hartree energ DENC   =   -120462.47670169
  -exchange      EXHF   =         0.00000000
  -V(xc)+E(xc)   XCENC  =       189.55571073
  PAW double counting   =     24789.08602224   -23775.73976456
  entropy T*S    EENTRO =        -0.00270707
  eigenvalues    EBANDS =      -410.89787298
  atomic energy  EATOM  =     27259.89416086
  Solvation  Ediel_sol  =         0.00000000
  ---------------------------------------------------
  free energy    TOTEN  =       -64.00185508 eV

  energy without entropy =      -63.99914801  energy(sigma->0) =      -64.00095272


--------------------------------------------------------------------------------------------------------




--------------------------------------- Iteration      1(   3)  ---------------------------------------


     EDDAV:  cpu time   15.1855: real time   15.2700
       DOS:  cpu time    0.0010: real time    0.0010
    --------------------------------------------
      LOOP:  cpu time   15.1865: real time   15.2710

 eigenvalue-minimisations  :  2192
 total energy-change (2. order) :-0.1768635E+03  (-0.1608137E+03)
 number of electron     376.0000000 magnetization 
 augmentation part      376.0000000 magnetization 

 Free energy of the ion-electron system (eV)
  ---------------------------------------------------
  alpha Z        PSCENC =       975.10247152
  Ewald energy   TEWEN  =     91371.47682587
  -Hartree energ DENC   =   -120462.47670169
  -exchange      EXHF   =         0.00000000
  -V(xc)+E(xc)   XCENC  =       189.55571073
  PAW double counting   =     24789.08602224   -23775.73976456
  entropy T*S    EENTRO =        -0.00569935
  eigenvalues    EBANDS =      -587.75834690
  atomic energy  EATOM  =     27259.89416086
  Solvation  Ediel_sol  =         0.00000000
  ---------------------------------------------------
  free energy    TOTEN  =      -240.86532128 eV

  energy without entropy =     -240.85962193  energy(sigma->0) =     -240.86342150


--------------------------------------------------------------------------------------------------------




--------------------------------------- Iteration      1(   4)  ---------------------------------------


     EDDAV:  cpu time   16.4687: real time   16.7120
       DOS:  cpu time    0.0010: real time    0.0010
    --------------------------------------------
      LOOP:  cpu time   16.4697: real time   16.7130

 eigenvalue-minimisations  :  2384
 total energy-change (2. order) :-0.7462097E+01  (-0.7201539E+01)
 number of electron     376.0000000 magnetization 
 augmentation part      376.0000000 magnetization 

 Free energy of the ion-electron system (eV)
  ---------------------------------------------------
  alpha Z        PSCENC =       975.10247152
  Ewald energy   TEWEN  =     91371.47682587
  -Hartree energ DENC   =   -120462.47670169
  -exchange      EXHF   =         0.00000000
  -V(xc)+E(xc)   XCENC  =       189.55571073
  PAW double counting   =     24789.08602224   -23775.73976456
  entropy T*S    EENTRO =        -0.00125413
  eigenvalues    EBANDS =      -595.22488934
  atomic energy  EATOM  =     27259.89416086
  Solvation  Ediel_sol  =         0.00000000
  ---------------------------------------------------
  free energy    TOTEN  =      -248.32741850 eV

  energy without entropy =     -248.32616437  energy(sigma->0) =     -248.32700046


--------------------------------------------------------------------------------------------------------




--------------------------------------- Iteration      1(   5)  ---------------------------------------


     EDDAV:  cpu time   16.6669: real time   19.0171
       DOS:  cpu time    0.0011: real time    0.0011
    CHARGE:  cpu time    0.6938: real time    0.6986
    MIXING:  cpu time    0.0487: real time    0.0490
    --------------------------------------------
      LOOP:  cpu time   17.4106: real time   19.7659

 eigenvalue-minimisations  :  2328
 total energy-change (2. order) :-0.2005266E+00  (-0.1982731E+00)
 number of electron     376.0000076 magnetization 
 augmentation part      105.7643783 magnetization 

 Broyden mixing:
  rms(total) = 0.27409E+01    rms(broyden)= 0.27405E+01
  rms(prec ) = 0.30644E+01
  weight for this iteration     100.00

 Free energy of the ion-electron system (eV)
  ---------------------------------------------------
  alpha Z        PSCENC =       975.10247152
  Ewald energy   TEWEN  =     91371.47682587
  -Hartree energ DENC   =   -120462.47670169
  -exchange      EXHF   =         0.00000000
  -V(xc)+E(xc)   XCENC  =       189.55571073
  PAW double counting   =     24789.08602224   -23775.73976456
  entropy T*S    EENTRO =        -0.00105515
  eigenvalues    EBANDS =      -595.42561494
  atomic energy  EATOM  =     27259.89416086
  Solvation  Ediel_sol  =         0.00000000
  ---------------------------------------------------
  free energy    TOTEN  =      -248.52794512 eV

  energy without entropy =     -248.52688997  energy(sigma->0) =     -248.52759341


--------------------------------------------------------------------------------------------------------




--------------------------------------- Iteration      1(   6)  ---------------------------------------


    POTLOK:  cpu time    0.3138: real time    0.4347
    SETDIJ:  cpu time    0.0220: real time    0.0394
    EDDIAG:  cpu time    2.7633: real time    2.8681
  RMM-DIIS:  cpu time    5.8690: real time    6.3084
    ORTHCH:  cpu time    0.5154: real time    0.5181
       DOS:  cpu time    0.0093: real time    0.0094
    CHARGE:  cpu time    0.6272: real time    0.6306
    MIXING:  cpu time    0.0052: real time    0.0053
    --------------------------------------------
      LOOP:  cpu time   10.1251: real time   10.8139

 eigenvalue-minimisations  :  1832
 total energy-change (2. order) : 0.1252415E+01  (-0.5475015E+01)
 number of electron     376.0000069 magnetization 
 augmentation part      112.9775333 magnetization 

 Broyden mixing:
  rms(total) = 0.30207E+01    rms(broyden)= 0.30198E+01
  rms(prec ) = 0.40123E+01
  weight for this iteration     100.00

 eigenvalues of (default mixing * dielectric matrix)
  average eigenvalue GAMMA=   0.4793
  0.4793

 Free energy of the ion-electron system (eV)
  ---------------------------------------------------
  alpha Z        PSCENC =       975.10247152
  Ewald energy   TEWEN  =     91371.47682587
  -Hartree energ DENC   =   -119984.44891052
  -exchange      EXHF   =         0.00000000
  -V(xc)+E(xc)   XCENC  =       182.46158411
  PAW double counting   =     26717.36941022   -25757.76402904
  entropy T*S    EENTRO =        -0.23745075
  eigenvalues    EBANDS =     -1011.12959223
  atomic energy  EATOM  =     27259.89416086
  Solvation  Ediel_sol  =         0.00000000
  ---------------------------------------------------
  free energy    TOTEN  =      -247.27552995 eV

  energy without entropy =     -247.03807921  energy(sigma->0) =     -247.19637970


--------------------------------------------------------------------------------------------------------




--------------------------------------- Iteration      1(   7)  ---------------------------------------


    POTLOK:  cpu time    0.2856: real time    0.2871
    SETDIJ:  cpu time    0.0402: real time    0.0405
    EDDIAG:  cpu time    2.0210: real time    2.0320
  RMM-DIIS:  cpu time    5.0655: real time    5.2338
    ORTHCH:  cpu time    0.3373: real time    0.4192
       DOS:  cpu time    0.0010: real time    0.0010
    CHARGE:  cpu time    0.7564: real time    0.7605
    MIXING:  cpu time    0.0230: real time    0.0232
    --------------------------------------------
      LOOP:  cpu time    8.5302: real time    8.7973

 eigenvalue-minimisations  :  1829
 total energy-change (2. order) : 0.8586545E+01  (-0.3343239E+01)
 number of electron     376.0000084 magnetization 
 augmentation part      111.4263950 magnetization 

 Broyden mixing:
  rms(total) = 0.17917E+01    rms(broyden)= 0.17906E+01
  rms(prec ) = 0.26059E+01
  weight for this iteration     100.00

 eigenvalues of (default mixing * dielectric matrix)
  average eigenvalue GAMMA=   0.6534
  1.0425  0.2643

 Free energy of the ion-electron system (eV)
  ---------------------------------------------------
  alpha Z        PSCENC =       975.10247152
  Ewald energy   TEWEN  =     91371.47682587
  -Hartree energ DENC   =   -120185.99190531
  -exchange      EXHF   =         0.00000000
  -V(xc)+E(xc)   XCENC  =       180.04865845
  PAW double counting   =     27368.70521301   -26416.35864990
  entropy T*S    EENTRO =        -0.08740443
  eigenvalues    EBANDS =      -791.47835512
  atomic energy  EATOM  =     27259.89416086
  Solvation  Ediel_sol  =         0.00000000
  ---------------------------------------------------
  free energy    TOTEN  =      -238.68898506 eV

  energy without entropy =     -238.60158063  energy(sigma->0) =     -238.65985025


--------------------------------------------------------------------------------------------------------




--------------------------------------- Iteration      1(   8)  ---------------------------------------


    POTLOK:  cpu time    0.2676: real time    0.2690
    SETDIJ:  cpu time    0.0267: real time    0.0268
    EDDIAG:  cpu time    1.8371: real time    2.0393
  RMM-DIIS:  cpu time    4.8504: real time    5.8999
    ORTHCH:  cpu time    0.4267: real time    0.4293
       DOS:  cpu time    0.0011: real time    0.0011
    CHARGE:  cpu time    0.6851: real time    0.6894
    MIXING:  cpu time    0.0235: real time    0.0237
    --------------------------------------------
      LOOP:  cpu time    8.1181: real time    9.3786

 eigenvalue-minimisations  :  1832
 total energy-change (2. order) :-0.5407103E+01  (-0.8008733E+00)
 number of electron     376.0000084 magnetization 
 augmentation part      112.3943557 magnetization 

 Broyden mixing:
  rms(total) = 0.25289E+01    rms(broyden)= 0.25288E+01
  rms(prec ) = 0.45666E+01
  weight for this iteration     100.00

 eigenvalues of (default mixing * dielectric matrix)
  average eigenvalue GAMMA=   0.5489
  1.2071  0.2826  0.1570

 Free energy of the ion-electron system (eV)
  ---------------------------------------------------
  alpha Z        PSCENC =       975.10247152
  Ewald energy   TEWEN  =     91371.47682587
  -Hartree energ DENC   =   -120111.34660535
  -exchange      EXHF   =         0.00000000
  -V(xc)+E(xc)   XCENC  =       178.85971523
  PAW double counting   =     28258.14627385   -27319.76082998
  entropy T*S    EENTRO =         0.03330635
  eigenvalues    EBANDS =      -856.50140622
  atomic energy  EATOM  =     27259.89416086
  Solvation  Ediel_sol  =         0.00000000
  ---------------------------------------------------
  free energy    TOTEN  =      -244.09608786 eV

  energy without entropy =     -244.12939421  energy(sigma->0) =     -244.10718998


--------------------------------------------------------------------------------------------------------




--------------------------------------- Iteration      1(   9)  ---------------------------------------


    POTLOK:  cpu time    0.3189: real time    0.3210
    SETDIJ:  cpu time    0.0431: real time    0.0434
    EDDIAG:  cpu time    1.5695: real time    1.5844
  RMM-DIIS:  cpu time    4.8232: real time    4.9022
    ORTHCH:  cpu time    0.2187: real time    0.3129
       DOS:  cpu time    0.0010: real time    0.0010
    CHARGE:  cpu time    0.4852: real time    0.6485
    MIXING:  cpu time    0.0123: real time    0.0123
    --------------------------------------------
      LOOP:  cpu time    7.4720: real time    7.8256

 eigenvalue-minimisations  :  1831
 total energy-change (2. order) : 0.1264611E+02  (-0.3779902E+00)
 number of electron     376.0000082 magnetization 
 augmentation part      112.6105860 magnetization 

 Broyden mixing:
  rms(total) = 0.81849E+00    rms(broyden)= 0.81836E+00
  rms(prec ) = 0.12358E+01
  weight for this iteration     100.00

 eigenvalues of (default mixing * dielectric matrix)
  average eigenvalue GAMMA=   0.5327
  1.3147  0.3484  0.3484  0.1193

 Free energy of the ion-electron system (eV)
  ---------------------------------------------------
  alpha Z        PSCENC =       975.10247152
  Ewald energy   TEWEN  =     91371.47682587
  -Hartree energ DENC   =   -120083.40925700
  -exchange      EXHF   =         0.00000000
  -V(xc)+E(xc)   XCENC  =       178.46877170
  PAW double counting   =     28708.73764660   -27777.19130600
  entropy T*S    EENTRO =        -0.01023033
  eigenvalues    EBANDS =      -864.51905815
  atomic energy  EATOM  =     27259.89416086
  Solvation  Ediel_sol  =         0.00000000
  ---------------------------------------------------
  free energy    TOTEN  =      -231.44997493 eV

  energy without entropy =     -231.43974460  energy(sigma->0) =     -231.44656482


--------------------------------------------------------------------------------------------------------




--------------------------------------- Iteration      1(  10)  ---------------------------------------


    POTLOK:  cpu time    0.2182: real time    0.2194
    SETDIJ:  cpu time    0.0175: real time    0.0176
    EDDIAG:  cpu time    1.8228: real time    2.0116
  RMM-DIIS:  cpu time    4.9320: real time    5.1488
    ORTHCH:  cpu time    0.4562: real time    0.4587
       DOS:  cpu time    0.0011: real time    0.0011
    CHARGE:  cpu time    0.5501: real time    0.5538
    MIXING:  cpu time    0.0284: real time    0.0286
    --------------------------------------------
      LOOP:  cpu time    8.0264: real time    8.4397

 eigenvalue-minimisations  :  1831
 total energy-change (2. order) : 0.9174442E+00  (-0.1138532E+00)
 number of electron     376.0000080 magnetization 
 augmentation part      112.7450185 magnetization 

 Broyden mixing:
  rms(total) = 0.48187E+00    rms(broyden)= 0.48155E+00
  rms(prec ) = 0.63370E+00
  weight for this iteration     100.00

 eigenvalues of (default mixing * dielectric matrix)
  average eigenvalue GAMMA=   0.5271
  1.3898  0.5169  0.3757  0.2363  0.1170

 Free energy of the ion-electron system (eV)
  ---------------------------------------------------
  alpha Z        PSCENC =       975.10247152
  Ewald energy   TEWEN  =     91371.47682587
  -Hartree energ DENC   =   -120093.14688961
  -exchange      EXHF   =         0.00000000
  -V(xc)+E(xc)   XCENC  =       178.39507217
  PAW double counting   =     29031.77210059   -28104.84793096
  entropy T*S    EENTRO =        -0.01576727
  eigenvalues    EBANDS =      -849.16257390
  atomic energy  EATOM  =     27259.89416086
  Solvation  Ediel_sol  =         0.00000000
  ---------------------------------------------------
  free energy    TOTEN  =      -230.53253073 eV

  energy without entropy =     -230.51676346  energy(sigma->0) =     -230.52727497


--------------------------------------------------------------------------------------------------------




--------------------------------------- Iteration      1(  11)  ---------------------------------------


    POTLOK:  cpu time    0.2902: real time    0.3400
    SETDIJ:  cpu time    0.0221: real time    0.0222
    EDDIAG:  cpu time    2.0624: real time    2.0758
  RMM-DIIS:  cpu time    5.0812: real time    5.1466
    ORTHCH:  cpu time    0.3727: real time    0.3747
       DOS:  cpu time    0.0010: real time    0.0010
    CHARGE:  cpu time    0.6866: real time    0.6911
    MIXING:  cpu time    0.0134: real time    0.0135
    --------------------------------------------
      LOOP:  cpu time    8.5296: real time    8.6648

 eigenvalue-minimisations  :  1831
 total energy-change (2. order) : 0.4328303E+00  (-0.3463051E-01)
 number of electron     376.0000079 magnetization 
 augmentation part      112.8564100 magnetization 

 Broyden mixing:
  rms(total) = 0.26875E+00    rms(broyden)= 0.26869E+00
  rms(prec ) = 0.32381E+00
  weight for this iteration     100.00

 eigenvalues of (default mixing * dielectric matrix)
  average eigenvalue GAMMA=   0.5727
  1.4882  0.6565  0.5338  0.3834  0.2572  0.1170

 Free energy of the ion-electron system (eV)
  ---------------------------------------------------
  alpha Z        PSCENC =       975.10247152
  Ewald energy   TEWEN  =     91371.47682587
  -Hartree energ DENC   =   -120075.67956751
  -exchange      EXHF   =         0.00000000
  -V(xc)+E(xc)   XCENC  =       178.32480492
  PAW double counting   =     29295.06221271   -28371.58908761
  entropy T*S    EENTRO =        -0.01410643
  eigenvalues    EBANDS =      -862.67741476
  atomic energy  EATOM  =     27259.89416086
  Solvation  Ediel_sol  =         0.00000000
  ---------------------------------------------------
  free energy    TOTEN  =      -230.09970042 eV

  energy without entropy =     -230.08559399  energy(sigma->0) =     -230.09499828


--------------------------------------------------------------------------------------------------------




--------------------------------------- Iteration      1(  12)  ---------------------------------------


    POTLOK:  cpu time    0.2741: real time    0.2758
    SETDIJ:  cpu time    0.0146: real time    0.0146
    EDDIAG:  cpu time    1.9736: real time    1.9862
  RMM-DIIS:  cpu time    5.3252: real time    5.3636
    ORTHCH:  cpu time    0.4239: real time    0.4264
       DOS:  cpu time    0.0155: real time    0.0155
    CHARGE:  cpu time    0.7659: real time    0.7704
    MIXING:  cpu time    0.0212: real time    0.0213
    --------------------------------------------
      LOOP:  cpu time    8.8140: real time    8.8738

 eigenvalue-minimisations  :  1832
 total energy-change (2. order) : 0.7899177E-01  (-0.1710117E-01)
 number of electron     376.0000078 magnetization 
 augmentation part      112.9338572 magnetization 

 Broyden mixing:
  rms(total) = 0.22713E+00    rms(broyden)= 0.22709E+00
  rms(prec ) = 0.26385E+00
  weight for this iteration     100.00

 eigenvalues of (default mixing * dielectric matrix)
  average eigenvalue GAMMA=   0.6775
  1.8287  1.0869  0.7515  0.4295  0.1169  0.2518  0.2773

 Free energy of the ion-electron system (eV)
  ---------------------------------------------------
  alpha Z        PSCENC =       975.10247152
  Ewald energy   TEWEN  =     91371.47682587
  -Hartree energ DENC   =   -120067.86620998
  -exchange      EXHF   =         0.00000000
  -V(xc)+E(xc)   XCENC  =       178.26926564
  PAW double counting   =     29546.46963481   -28626.16387597
  entropy T*S    EENTRO =        -0.01537768
  eigenvalues    EBANDS =      -867.18760372
  atomic energy  EATOM  =     27259.89416086
  Solvation  Ediel_sol  =         0.00000000
  ---------------------------------------------------
  free energy    TOTEN  =      -230.02070865 eV

  energy without entropy =     -230.00533097  energy(sigma->0) =     -230.01558276


--------------------------------------------------------------------------------------------------------




--------------------------------------- Iteration      1(  13)  ---------------------------------------


    POTLOK:  cpu time    0.3164: real time    0.3249
    SETDIJ:  cpu time    0.0136: real time    0.0185
    EDDIAG:  cpu time    1.5420: real time    1.7174
  RMM-DIIS:  cpu time    5.1332: real time    5.1679
    ORTHCH:  cpu time    0.4421: real time    0.4445
       DOS:  cpu time    0.0149: real time    0.0150
    CHARGE:  cpu time    0.4724: real time    0.4757
    MIXING:  cpu time    0.0133: real time    0.0134
    --------------------------------------------
      LOOP:  cpu time    7.9480: real time    8.1774

 eigenvalue-minimisations  :  1830
 total energy-change (2. order) : 0.1096133E-01  (-0.1521560E-01)
 number of electron     376.0000077 magnetization 
 augmentation part      112.9701252 magnetization 

 Broyden mixing:
  rms(total) = 0.22668E+00    rms(broyden)= 0.22666E+00
  rms(prec ) = 0.27454E+00
  weight for this iteration     100.00

 eigenvalues of (default mixing * dielectric matrix)
  average eigenvalue GAMMA=   0.7129
  2.2049  1.2519  0.8290  0.4764  0.1169  0.3159  0.2744  0.2342

 Free energy of the ion-electron system (eV)
  ---------------------------------------------------
  alpha Z        PSCENC =       975.10247152
  Ewald energy   TEWEN  =     91371.47682587
  -Hartree energ DENC   =   -120065.72020463
  -exchange      EXHF   =         0.00000000
  -V(xc)+E(xc)   XCENC  =       178.17473750
  PAW double counting   =     29844.64372264   -28927.95071522
  entropy T*S    EENTRO =        -0.01980568
  eigenvalues    EBANDS =      -865.61094017
  atomic energy  EATOM  =     27259.89416086
  Solvation  Ediel_sol  =         0.00000000
  ---------------------------------------------------
  free energy    TOTEN  =      -230.00974732 eV

  energy without entropy =     -229.98994163  energy(sigma->0) =     -230.00314542


--------------------------------------------------------------------------------------------------------




--------------------------------------- Iteration      1(  14)  ---------------------------------------


    POTLOK:  cpu time    0.2269: real time    0.2283
    SETDIJ:  cpu time    0.0197: real time    0.0198
    EDDIAG:  cpu time    1.6645: real time    1.6751
  RMM-DIIS:  cpu time    5.6195: real time    6.0477
    ORTHCH:  cpu time    0.4361: real time    0.4385
       DOS:  cpu time    0.0011: real time    0.0011
    CHARGE:  cpu time    0.5285: real time    0.5324
    MIXING:  cpu time    0.0048: real time    0.0049
    --------------------------------------------
      LOOP:  cpu time    8.5012: real time    8.9478

 eigenvalue-minimisations  :  1830
 total energy-change (2. order) : 0.5212883E-01  (-0.1039599E-01)
 number of electron     376.0000078 magnetization 
 augmentation part      112.9401761 magnetization 

 Broyden mixing:
  rms(total) = 0.98372E-01    rms(broyden)= 0.98250E-01
  rms(prec ) = 0.12903E+00
  weight for this iteration     100.00

 eigenvalues of (default mixing * dielectric matrix)
  average eigenvalue GAMMA=   0.7196
  2.3745  1.2584  0.8825  0.6174  0.4454  0.1169  0.2998  0.2538  0.2277

 Free energy of the ion-electron system (eV)
  ---------------------------------------------------
  alpha Z        PSCENC =       975.10247152
  Ewald energy   TEWEN  =     91371.47682587
  -Hartree energ DENC   =   -120065.60494560
  -exchange      EXHF   =         0.00000000
  -V(xc)+E(xc)   XCENC  =       178.08805297
  PAW double counting   =     30022.77914141   -29108.12041989
  entropy T*S    EENTRO =        -0.00309134
  eigenvalues    EBANDS =      -863.56981428
  atomic energy  EATOM  =     27259.89416086
  Solvation  Ediel_sol  =         0.00000000
  ---------------------------------------------------
  free energy    TOTEN  =      -229.95761848 eV

  energy without entropy =     -229.95452714  energy(sigma->0) =     -229.95658803


--------------------------------------------------------------------------------------------------------




--------------------------------------- Iteration      1(  15)  ---------------------------------------


    POTLOK:  cpu time    0.2374: real time    0.2390
    SETDIJ:  cpu time    0.0361: real time    0.0363
    EDDIAG:  cpu time    2.4278: real time    3.1195
  RMM-DIIS:  cpu time    4.9975: real time    5.5265
    ORTHCH:  cpu time    0.3971: real time    0.4000
       DOS:  cpu time    0.0011: real time    0.0011
    CHARGE:  cpu time    0.6503: real time    0.8370
    MIXING:  cpu time    0.0266: real time    0.0392
    --------------------------------------------
      LOOP:  cpu time    8.7739: real time   10.1987

 eigenvalue-minimisations  :  1831
 total energy-change (2. order) : 0.1008845E-01  (-0.3159530E-02)
 number of electron     376.0000078 magnetization 
 augmentation part      112.9411510 magnetization 

 Broyden mixing:
  rms(total) = 0.56608E-01    rms(broyden)= 0.56597E-01
  rms(prec ) = 0.70196E-01
  weight for this iteration     100.00

 eigenvalues of (default mixing * dielectric matrix)
  average eigenvalue GAMMA=   0.7072
  2.4666  1.2554  0.8285  0.8285  0.4608  0.1169  0.3499  0.2843  0.2568  0.2238

 Free energy of the ion-electron system (eV)
  ---------------------------------------------------
  alpha Z        PSCENC =       975.10247152
  Ewald energy   TEWEN  =     91371.47682587
  -Hartree energ DENC   =   -120067.42591873
  -exchange      EXHF   =         0.00000000
  -V(xc)+E(xc)   XCENC  =       178.08154947
  PAW double counting   =     30078.32465641   -29164.27418701
  entropy T*S    EENTRO =        -0.00895155
  eigenvalues    EBANDS =      -861.11813687
  atomic energy  EATOM  =     27259.89416086
  Solvation  Ediel_sol  =         0.00000000
  ---------------------------------------------------
  free energy    TOTEN  =      -229.94753003 eV

  energy without entropy =     -229.93857848  energy(sigma->0) =     -229.94454618


--------------------------------------------------------------------------------------------------------




--------------------------------------- Iteration      1(  16)  ---------------------------------------


    POTLOK:  cpu time    0.2195: real time    0.2378
    SETDIJ:  cpu time    0.0147: real time    0.0148
    EDDIAG:  cpu time    1.9501: real time    2.1736
  RMM-DIIS:  cpu time    5.4768: real time    5.6481
    ORTHCH:  cpu time    0.3401: real time    0.3418
       DOS:  cpu time    0.0013: real time    0.0013
    CHARGE:  cpu time    0.5213: real time    0.5243
    MIXING:  cpu time    0.0070: real time    0.0071
    --------------------------------------------
      LOOP:  cpu time    8.5307: real time    8.9487

 eigenvalue-minimisations  :  1827
 total energy-change (2. order) : 0.4857208E-02  (-0.6917994E-03)
 number of electron     376.0000078 magnetization 
 augmentation part      112.9416231 magnetization 

 Broyden mixing:
  rms(total) = 0.25091E-01    rms(broyden)= 0.25088E-01
  rms(prec ) = 0.30384E-01
  weight for this iteration     100.00

 eigenvalues of (default mixing * dielectric matrix)
  average eigenvalue GAMMA=   0.6931
  2.4939  1.2483  0.8553  0.8553  0.4901  0.4901  0.1169  0.3107  0.2888  0.2519
  0.2227

 Free energy of the ion-electron system (eV)
  ---------------------------------------------------
  alpha Z        PSCENC =       975.10247152
  Ewald energy   TEWEN  =     91371.47682587
  -Hartree energ DENC   =   -120068.00663771
  -exchange      EXHF   =         0.00000000
  -V(xc)+E(xc)   XCENC  =       178.08450273
  PAW double counting   =     30099.33874174   -29185.49079775
  entropy T*S    EENTRO =        -0.01040101
  eigenvalues    EBANDS =      -860.33153906
  atomic energy  EATOM  =     27259.89416086
  Solvation  Ediel_sol  =         0.00000000
  ---------------------------------------------------
  free energy    TOTEN  =      -229.94267282 eV

  energy without entropy =     -229.93227181  energy(sigma->0) =     -229.93920582


--------------------------------------------------------------------------------------------------------




--------------------------------------- Iteration      1(  17)  ---------------------------------------


    POTLOK:  cpu time    0.2462: real time    0.2476
    SETDIJ:  cpu time    0.0281: real time    0.0282
    EDDIAG:  cpu time    1.5647: real time    1.7163
  RMM-DIIS:  cpu time    5.0478: real time    5.4551
    ORTHCH:  cpu time    0.2515: real time    0.2531
       DOS:  cpu time    0.0049: real time    0.0049
    CHARGE:  cpu time    0.5627: real time    0.5662
    MIXING:  cpu time    0.0147: real time    0.0149
    --------------------------------------------
      LOOP:  cpu time    7.7206: real time    8.2863

 eigenvalue-minimisations  :  1821
 total energy-change (2. order) : 0.2477626E-03  (-0.1757228E-03)
 number of electron     376.0000078 magnetization 
 augmentation part      112.9423801 magnetization 

 Broyden mixing:
  rms(total) = 0.18969E-01    rms(broyden)= 0.18967E-01
  rms(prec ) = 0.23013E-01
  weight for this iteration     100.00

 eigenvalues of (default mixing * dielectric matrix)
  average eigenvalue GAMMA=   0.7333
  2.5041  1.2224  1.2224  1.1637  0.7333  0.4800  0.1169  0.3436  0.2967  0.2539
  0.2416  0.2210

 Free energy of the ion-electron system (eV)
  ---------------------------------------------------
  alpha Z        PSCENC =       975.10247152
  Ewald energy   TEWEN  =     91371.47682587
  -Hartree energ DENC   =   -120068.36031121
  -exchange      EXHF   =         0.00000000
  -V(xc)+E(xc)   XCENC  =       178.08746157
  PAW double counting   =     30102.67088662   -29188.83505943
  entropy T*S    EENTRO =        -0.00974279
  eigenvalues    EBANDS =      -859.96911808
  atomic energy  EATOM  =     27259.89416086
  Solvation  Ediel_sol  =         0.00000000
  ---------------------------------------------------
  free energy    TOTEN  =      -229.94242506 eV

  energy without entropy =     -229.93268226  energy(sigma->0) =     -229.93917746


--------------------------------------------------------------------------------------------------------




--------------------------------------- Iteration      1(  18)  ---------------------------------------


    POTLOK:  cpu time    0.2175: real time    0.2192
    SETDIJ:  cpu time    0.0192: real time    0.0194
    EDDIAG:  cpu time    2.1038: real time    2.1164
  RMM-DIIS:  cpu time    5.9128: real time    5.9518
    ORTHCH:  cpu time    0.3768: real time    0.3793
       DOS:  cpu time    0.0020: real time    0.0020
    CHARGE:  cpu time    0.5726: real time    0.5761
    MIXING:  cpu time    0.0089: real time    0.0090
    --------------------------------------------
      LOOP:  cpu time    9.2136: real time    9.2731

 eigenvalue-minimisations  :  1812
 total energy-change (2. order) :-0.2334841E-03  (-0.9566090E-04)
 number of electron     376.0000078 magnetization 
 augmentation part      112.9409729 magnetization 

 Broyden mixing:
  rms(total) = 0.13412E-01    rms(broyden)= 0.13410E-01
  rms(prec ) = 0.16392E-01
  weight for this iteration     100.00

 eigenvalues of (default mixing * dielectric matrix)
  average eigenvalue GAMMA=   0.7441
  2.4925  1.6665  1.3895  0.9598  0.8387  0.4744  0.1169  0.4066  0.3363  0.2884
  0.2556  0.2292  0.2186

 Free energy of the ion-electron system (eV)
  ---------------------------------------------------
  alpha Z        PSCENC =       975.10247152
  Ewald energy   TEWEN  =     91371.47682587
  -Hartree energ DENC   =   -120069.43744742
  -exchange      EXHF   =         0.00000000
  -V(xc)+E(xc)   XCENC  =       178.09271707
  PAW double counting   =     30102.22501827   -29188.32367915
  entropy T*S    EENTRO =        -0.01072881
  eigenvalues    EBANDS =      -858.96199677
  atomic energy  EATOM  =     27259.89416086
  Solvation  Ediel_sol  =         0.00000000
  ---------------------------------------------------
  free energy    TOTEN  =      -229.94265854 eV

  energy without entropy =     -229.93192974  energy(sigma->0) =     -229.93908227


--------------------------------------------------------------------------------------------------------




--------------------------------------- Iteration      1(  19)  ---------------------------------------


    POTLOK:  cpu time    0.1882: real time    0.2405
    SETDIJ:  cpu time    0.0175: real time    0.0176
    EDDIAG:  cpu time    1.6069: real time    1.9886
  RMM-DIIS:  cpu time    3.8090: real time    4.9271
    ORTHCH:  cpu time    0.3901: real time    0.3922
       DOS:  cpu time    0.0017: real time    0.0017
    --------------------------------------------
      LOOP:  cpu time    6.0133: real time    7.5677

 eigenvalue-minimisations  :  1493
 total energy-change (2. order) :-0.6902757E-04  (-0.5017594E-04)
 number of electron     376.0000078 magnetization 
 augmentation part      112.9409729 magnetization 

 Free energy of the ion-electron system (eV)
  ---------------------------------------------------
  alpha Z        PSCENC =       975.10247152
  Ewald energy   TEWEN  =     91371.47682587
  -Hartree energ DENC   =   -120070.39524072
  -exchange      EXHF   =         0.00000000
  -V(xc)+E(xc)   XCENC  =       178.09690753
  PAW double counting   =     30101.23707323   -29187.27754757
  entropy T*S    EENTRO =        -0.01064912
  eigenvalues    EBANDS =      -858.06672918
  atomic energy  EATOM  =     27259.89416086
  Solvation  Ediel_sol  =         0.00000000
  ---------------------------------------------------
  free energy    TOTEN  =      -229.94272757 eV

  energy without entropy =     -229.93207845  energy(sigma->0) =     -229.93917786


--------------------------------------------------------------------------------------------------------




 average (electrostatic) potential at core
  the test charge radii are     0.6991  0.7215  1.2059
  (the norm of the test charge is              1.0000)
       1 -56.2655       2 -74.3996       3 -76.2124       4 -72.3672       5 -72.3674
       6 -72.3401       7 -72.3450       8 -72.3952       9 -72.3716      10 -72.3265
      11 -72.3600      12 -72.3404      13 -72.9905      14 -73.0454      15 -73.0186
      16 -73.0503      17 -73.0783      18 -72.9673      19 -73.0591      20 -73.0818
      21 -73.0378      22 -73.0401      23 -73.0473      24 -72.9048      25 -73.0718
      26 -73.0878      27 -73.0279      28 -72.9906      29 -73.0446      30 -72.9166
      31 -72.4440      32 -72.4237      33 -72.5893      34 -72.2237      35 -72.3796
      36 -73.2191      37 -72.4917      38 -73.0340      39 -72.3218
 
 
 
 E-fermi :   1.0663     XC(G=0):  -6.6252     alpha+bet : -6.8913


 k-point     1 :       0.0000    0.0000    0.0000
  band No.  band energies     occupation 
      1     -22.0794      2.00000
      2     -16.3923      2.00000
      3      -8.4191      2.00000
      4      -8.1625      2.00000
      5      -6.8110      2.00000
      6      -5.9235      2.00000
      7      -5.8311      2.00000
      8      -5.7967      2.00000
      9      -5.7593      2.00000
     10      -5.7424      2.00000
     11      -5.7269      2.00000
     12      -5.6736      2.00000
     13      -5.6264      2.00000
     14      -5.5825      2.00000
     15      -5.3598      2.00000
     16      -5.2027      2.00000
     17      -5.1570      2.00000
     18      -5.1329      2.00000
     19      -5.1057      2.00000
     20      -5.0739      2.00000
     21      -5.0442      2.00000
     22      -5.0343      2.00000
     23      -4.6821      2.00000
     24      -4.6315      2.00000
     25      -4.6159      2.00000
     26      -4.5913      2.00000
     27      -4.5772      2.00000
     28      -4.5259      2.00000
     29      -4.4431      2.00000
     30      -4.4265      2.00000
     31      -4.3948      2.00000
     32      -4.3658      2.00000
     33      -4.3550      2.00000
     34      -4.2779      2.00000
     35      -4.2121      2.00000
     36      -4.1934      2.00000
     37      -4.1752      2.00000
     38      -4.1521      2.00000
     39      -4.1335      2.00000
     40      -4.1268      2.00000
     41      -4.0952      2.00000
     42      -4.0819      2.00000
     43      -4.0520      2.00000
     44      -4.0421      2.00000
     45      -4.0313      2.00000
     46      -3.9924      2.00000
     47      -3.5426      2.00000
     48      -3.5280      2.00000
     49      -3.4881      2.00000
     50      -3.4588      2.00000
     51      -3.4497      2.00000
     52      -3.4218      2.00000
     53      -3.3815      2.00000
     54      -3.3547      2.00000
     55      -3.3254      2.00000
     56      -3.3108      2.00000
     57      -3.3039      2.00000
     58      -3.2677      2.00000
     59      -3.2029      2.00000
     60      -3.1032      2.00000
     61      -2.8850      2.00000
     62      -2.8415      2.00000
     63      -2.7562      2.00000
     64      -2.6689      2.00000
     65      -2.6283      2.00000
     66      -2.6061      2.00000
     67      -2.5703      2.00000
     68      -2.5417      2.00000
     69      -2.5180      2.00000
     70      -2.5095      2.00000
     71      -2.4765      2.00000
     72      -2.4667      2.00000
     73      -2.4446      2.00000
     74      -2.4337      2.00000
     75      -2.4290      2.00000
     76      -2.4122      2.00000
     77      -2.3932      2.00000
     78      -2.3732      2.00000
     79      -2.3569      2.00000
     80      -2.3508      2.00000
     81      -2.3412      2.00000
     82      -2.3175      2.00000
     83      -2.3000      2.00000
     84      -2.2551      2.00000
     85      -2.2194      2.00000
     86      -2.1709      2.00000
     87      -2.1605      2.00000
     88      -2.1509      2.00000
     89      -2.1266      2.00000
     90      -2.1078      2.00000
     91      -2.0924      2.00000
     92      -2.0732      2.00000
     93      -2.0525      2.00000
     94      -2.0205      2.00000
     95      -2.0007      2.00000
     96      -1.9656      2.00000
     97      -1.9356      2.00000
     98      -1.8600      2.00000
     99      -1.8028      2.00000
    100      -1.7463      2.00000
    101      -1.6702      2.00000
    102      -1.6587      2.00000
    103      -1.6407      2.00000
    104      -1.5974      2.00000
    105      -1.5843      2.00000
    106      -1.5821      2.00000
    107      -1.5731      2.00000
    108      -1.5294      2.00000
    109      -1.5256      2.00000
    110      -1.5168      2.00000
    111      -1.5026      2.00000
    112      -1.4866      2.00000
    113      -1.4608      2.00000
    114      -1.2981      2.00000
    115      -1.2493      2.00000
    116      -1.1507      2.00000
    117      -1.1251      2.00000
    118      -1.0669      2.00000
    119      -1.0392      2.00000
    120      -1.0226      2.00000
    121      -0.9646      2.00000
    122      -0.9011      2.00000
    123      -0.8896      2.00000
    124      -0.8605      2.00000
    125      -0.8167      2.00000
    126      -0.8059      2.00000
    127      -0.7929      2.00000
    128      -0.7623      2.00000
    129      -0.7031      2.00000
    130      -0.6963      2.00000
    131      -0.6860      2.00000
    132      -0.6731      2.00000
    133      -0.6273      2.00000
    134      -0.5868      2.00000
    135      -0.5526      2.00000
    136      -0.5054      2.00000
    137      -0.4596      2.00000
    138      -0.4236      2.00000
    139      -0.4026      2.00000
    140      -0.3838      2.00000
    141      -0.2836      2.00000
    142      -0.2660      2.00000
    143      -0.2411      2.00000
    144      -0.2242      2.00000
    145      -0.1949      2.00000
    146      -0.1602      2.00000
    147      -0.0963      2.00000
    148      -0.0451      2.00000
    149       0.0026      2.00000
    150       0.0261      2.00000
    151       0.0294      2.00000
    152       0.0689      2.00000
    153       0.1068      2.00000
    154       0.1115      2.00000
    155       0.1430      2.00000
    156       0.1857      2.00000
    157       0.2115      2.00000
    158       0.2332      2.00000
    159       0.2403      2.00000
    160       0.2646      2.00000
    161       0.2720      2.00000
    162       0.2831      2.00000
    163       0.3132      2.00000
    164       0.3205      2.00000
    165       0.3260      2.00000
    166       0.3442      2.00000
    167       0.3753      2.00001
    168       0.4030      2.00003
    169       0.4239      2.00005
    170       0.4528      2.00013
    171       0.4853      2.00032
    172       0.5047      2.00053
    173       0.5635      2.00217
    174       0.5730      2.00269
    175       0.5974      2.00452
    176       0.6022      2.00498
    177       0.6073      2.00552
    178       0.6474      2.01166
    179       0.6617      2.01484
    180       0.6797      2.01974
    181       0.7257      2.03685
    182       0.7544      2.04990
    183       0.7637      2.05416
    184       0.7679      2.05601
    185       0.7777      2.06021
    186       0.7843      2.06282
    187       0.7887      2.06443
    188       0.7933      2.06596
    189       0.8047      2.06902
    190       0.8218      2.07091
    191       0.8288      2.07046
    192       0.8531      2.06132
    193       0.8645      2.05203
    194       0.8928      2.01069
    195       0.9166      1.95114
    196       1.0618      1.03744
    197       1.0658      1.00373
    198       1.1569      0.31334
    199       1.1803      0.18758
    200       1.1938      0.12753
    201       1.2175      0.04404
    202       1.2303      0.00988
    203       1.2418     -0.01463
    204       1.3858     -0.04634
    205       1.4537     -0.01949
    206       1.8966     -0.00000
    207       1.9690     -0.00000
    208       2.0415     -0.00000
    209       2.0678     -0.00000
    210       2.1649     -0.00000
    211       2.4506     -0.00000
    212       3.4996     -0.00000
    213       3.9673     -0.00000
    214       4.3581     -0.00000
    215       4.4171     -0.00000
    216       4.4231     -0.00000
    217       4.5459     -0.00000
    218       4.8603     -0.00000
    219       5.3465     -0.00000
    220       5.7140     -0.00000
    221       5.8162     -0.00000
    222       5.8584     -0.00000
    223       5.8783     -0.00000
    224       5.9001     -0.00000
    225       5.9195     -0.00000
    226       6.0661     -0.00000
    227       6.5447      0.00000
    228       6.8454      0.00000

 k-point     2 :       0.5000    0.0000    0.0000
  band No.  band energies     occupation 
      1     -22.0793      2.00000
      2     -16.3919      2.00000
      3      -8.3709      2.00000
      4      -7.3866      2.00000
      5      -7.2702      2.00000
      6      -6.0834      2.00000
      7      -6.0162      2.00000
      8      -5.9357      2.00000
      9      -5.8690      2.00000
     10      -5.6698      2.00000
     11      -5.4912      2.00000
     12      -5.3904      2.00000
     13      -5.3389      2.00000
     14      -5.2049      2.00000
     15      -5.0113      2.00000
     16      -4.9875      2.00000
     17      -4.9622      2.00000
     18      -4.9274      2.00000
     19      -4.9151      2.00000
     20      -4.9054      2.00000
     21      -4.8781      2.00000
     22      -4.8572      2.00000
     23      -4.8506      2.00000
     24      -4.8258      2.00000
     25      -4.7753      2.00000
     26      -4.7569      2.00000
     27      -4.7514      2.00000
     28      -4.6961      2.00000
     29      -4.6839      2.00000
     30      -4.5100      2.00000
     31      -4.4358      2.00000
     32      -4.4105      2.00000
     33      -4.3994      2.00000
     34      -4.3709      2.00000
     35      -4.3553      2.00000
     36      -4.1338      2.00000
     37      -4.0973      2.00000
     38      -4.0277      2.00000
     39      -4.0145      2.00000
     40      -3.9903      2.00000
     41      -3.9650      2.00000
     42      -3.9522      2.00000
     43      -3.9289      2.00000
     44      -3.7813      2.00000
     45      -3.7563      2.00000
     46      -3.6991      2.00000
     47      -3.6500      2.00000
     48      -3.6326      2.00000
     49      -3.6185      2.00000
     50      -3.5952      2.00000
     51      -3.4585      2.00000
     52      -3.4470      2.00000
     53      -3.4262      2.00000
     54      -3.3732      2.00000
     55      -3.3597      2.00000
     56      -3.2759      2.00000
     57      -3.2614      2.00000
     58      -3.2281      2.00000
     59      -3.1685      2.00000
     60      -3.1495      2.00000
     61      -3.1294      2.00000
     62      -3.1184      2.00000
     63      -3.0807      2.00000
     64      -3.0433      2.00000
     65      -2.9943      2.00000
     66      -2.9643      2.00000
     67      -2.9091      2.00000
     68      -2.8560      2.00000
     69      -2.8261      2.00000
     70      -2.7786      2.00000
[...]
     86      -2.2240      2.00000
     87      -2.2106      2.00000
     88      -2.1956      2.00000
     89      -2.1851      2.00000
     90      -2.1766      2.00000
     91      -2.1621      2.00000
     92      -2.1007      2.00000
     93      -2.0839      2.00000
     94      -2.0361      2.00000
     95      -1.9841      2.00000
     96      -1.9652      2.00000
     97      -1.9346      2.00000
     98      -1.9100      2.00000
     99      -1.8878      2.00000
    100      -1.8503      2.00000
    101      -1.7928      2.00000
    102      -1.7713      2.00000
    103      -1.7614      2.00000
    104      -1.7431      2.00000
    105      -1.7213      2.00000
    106      -1.6932      2.00000
    107      -1.6726      2.00000
    108      -1.6552      2.00000
    109      -1.6227      2.00000
    110      -1.5579      2.00000
    111      -1.5314      2.00000
    112      -1.4684      2.00000
    113      -1.4639      2.00000
    114      -1.3859      2.00000
    115      -1.3162      2.00000
    116      -1.3007      2.00000
    117      -1.2347      2.00000
    118      -1.2065      2.00000
    119      -1.1701      2.00000
    120      -1.1102      2.00000
    121      -1.0962      2.00000
    122      -1.0647      2.00000
    123      -1.0463      2.00000
    124      -1.0275      2.00000
    125      -1.0096      2.00000
    126      -0.9865      2.00000
    127      -0.9663      2.00000
    128      -0.9534      2.00000
    129      -0.9320      2.00000
    130      -0.9162      2.00000
    131      -0.8916      2.00000
    132      -0.8314      2.00000
    133      -0.7841      2.00000
    134      -0.7620      2.00000
    135      -0.7438      2.00000
    136      -0.7166      2.00000
    137      -0.7099      2.00000
    138      -0.6687      2.00000
    139      -0.6186      2.00000
    140      -0.5736      2.00000
    141      -0.5111      2.00000
    142      -0.4876      2.00000
    143      -0.4229      2.00000
    144      -0.3083      2.00000
    145      -0.2798      2.00000
    146      -0.2115      2.00000
    147      -0.1927      2.00000
    148      -0.1566      2.00000
    149      -0.1146      2.00000
    150      -0.0671      2.00000
    151      -0.0490      2.00000
    152       0.0265      2.00000
    153       0.0435      2.00000
    154       0.0649      2.00000
    155       0.0705      2.00000
    156       0.0851      2.00000
    157       0.1100      2.00000
    158       0.1480      2.00000
    159       0.1792      2.00000
    160       0.1957      2.00000
    161       0.2323      2.00000
    162       0.2729      2.00000
    163       0.3005      2.00000
    164       0.3203      2.00000
    165       0.3432      2.00000
    166       0.3808      2.00001
    167       0.4910      2.00027
    168       0.5585      2.00148
    169       0.5781      2.00232
    170       0.5996      2.00370
    171       0.6356      2.00760
    172       0.6617      2.01217
    173       0.6956      2.02101
    174       0.7639      2.04885
    175       0.7733      2.05318
    176       0.7895      2.06022
    177       0.8331      2.07092
    178       0.8542      2.06699
    179       0.8901      2.03535
    180       0.9093      2.00089
    181       0.9287      1.95018
    182       0.9901      1.67050
    183       1.0252      1.43035
    184       1.0691      1.07555
    185       1.0760      1.01745
    186       1.0834      0.95461
    187       1.1119      0.71784
    188       1.1273      0.59696
    189       1.1492      0.43774
    190       1.1635      0.34506
    191       1.2907     -0.06103
    192       1.3149     -0.07038
    193       1.3453     -0.06765
    194       1.3819     -0.05359
    195       1.4058     -0.04259
    196       1.4819     -0.01503
    197       1.5832     -0.00206
    198       1.7214     -0.00005
    199       1.8021     -0.00000
    200       1.9904     -0.00000
    201       2.2430     -0.00000
    202       2.3100     -0.00000
    203       2.7779     -0.00000
    204       2.9223     -0.00000
    205       2.9379     -0.00000
    206       2.9661     -0.00000
    207       2.9895     -0.00000
    208       3.2275     -0.00000
    209       3.3905     -0.00000
    210       3.5019     -0.00000
    211       3.5366     -0.00000
    212       3.5897     -0.00000
    213       3.7128     -0.00000
    214       3.8207     -0.00000
    215       3.9550     -0.00000
    216       4.1477     -0.00000
    217       4.2084     -0.00000
    218       4.3948     -0.00000
    219       4.4433     -0.00000
    220       4.5957     -0.00000
    221       4.6701     -0.00000
    222       4.8081     -0.00000
    223       5.1574     -0.00000
    224       5.5013     -0.00000
    225       6.0284     -0.00000
    226       6.5184     -0.00000
    227       6.5596      0.00000
    228       6.6009      0.00000


--------------------------------------------------------------------------------------------------------


 soft charge-density along one line, spin component           1
         0         1         2         3         4         5         6         7         8         9
 total charge-density along one line
 
 pseudopotential strength for first ion, spin component:           1
 10.091   0.015   0.004   0.009   0.000  -0.004  -0.008   0.000
  0.015  -0.002  -0.000  -0.000  -0.000  -0.000  -0.000   0.000
  0.004  -0.000  -4.245  -0.007   0.001  -0.010  -0.002   0.000
  0.009  -0.000  -0.007  -4.257   0.003  -0.002  -0.015   0.000
  0.000  -0.000   0.001   0.003  -4.241   0.000   0.000  -0.009
 -0.004  -0.000  -0.010  -0.002   0.000  -0.770  -0.000   0.000
 -0.008  -0.000  -0.002  -0.015   0.000  -0.000  -0.770   0.000
  0.000   0.000   0.000   0.000  -0.009   0.000   0.000  -0.770
 total augmentation occupancy for first ion, spin component:           1
  1.623  -0.846   0.022   0.000  -0.064   0.038   0.078  -0.023
 -0.846   1.170  -0.225  -0.507   0.083  -0.090  -0.214   0.029
  0.022  -0.225   0.855   0.196   0.004   0.117   0.058  -0.006
  0.000  -0.507   0.196   1.293   0.003   0.058   0.238  -0.008
 -0.064   0.083   0.004   0.003   0.795  -0.006  -0.009   0.098
  0.038  -0.090   0.117   0.058  -0.006   0.021   0.023  -0.004
  0.078  -0.214   0.058   0.238  -0.009   0.023   0.067  -0.006
 -0.023   0.029  -0.006  -0.008   0.098  -0.004  -0.006   0.014


------------------------ aborting loop because EDIFF is reached ----------------------------------------


    CHARGE:  cpu time    0.4075: real time    0.5134
    FORLOC:  cpu time    0.0667: real time    0.0672
    FORNL :  cpu time    2.8504: real time    2.8729
    STRESS:  cpu time    7.0416: real time    7.1040
    FORCOR:  cpu time    0.3504: real time    0.3533
    FORHAR:  cpu time    0.1249: real time    0.1259
    MIXING:  cpu time    0.0480: real time    0.0483
    OFIELD:  cpu time    0.0001: real time    0.0001

  FORCE on cell =-STRESS in cart. coord.  units (eV):
  Direction    XX          YY          ZZ          XY          YZ          ZX
  --------------------------------------------------------------------------------------
  Alpha Z   975.10247   975.10247   975.10247
  Ewald  111109.54703111129.34164************  -199.78287   256.49761   -73.54185
  Hartree117862.74213117857.64419************  -131.71230   111.73810   -44.67413
  E(xc)   -1666.00586 -1665.83901 -1673.35804    -0.44154     0.76359    -0.19310
  Local  ************************239618.73215   322.12183  -344.35312   113.09489
  n-local   124.52795   123.55570    92.52754    -0.55559     0.12842     0.38990
  augment  1895.17106  1894.24254  1931.44489     1.91329    -3.88608     0.53548
  Kinetic  5523.00166  5516.62720  5598.49503     9.47690   -22.18120     5.78037
  Fock        0.00000     0.00000     0.00000     0.00000     0.00000     0.00000
  -------------------------------------------------------------------------------------
  Total     -36.23677   -37.93318    -3.23125     1.01972    -1.29267     1.39157
  in kB     -43.15859   -45.17905    -3.84848     1.21450    -1.53960     1.65738
  external pressure =      -30.73 kB  Pullay stress =        0.00 kB


 VOLUME and BASIS-vectors are now :
 -----------------------------------------------------------------------------
  energy-cutoff  :      450.00
  volume of cell :     1345.22
      direct lattice vectors                 reciprocal lattice vectors
     7.296955120 -4.212899000  0.000000000     0.137043463  0.000000000  0.000000000
     0.000000000  8.425798000  0.000000000     0.068521732  0.118683121  0.000000000
     0.000000000  0.000000000 21.879635000     0.000000000  0.000000000  0.045704602

  length of vectors
     8.425798004  8.425798000 21.879635000     0.137043463  0.137043463  0.045704602


 FORCES acting on ions
    electron-ion (+dipol)            ewald-force                    non-local-force                 convergence-correction
 -----------------------------------------------------------------------------------------------
   0.148E+02 0.197E+02 -.886E+03   -.159E+02 -.240E+02 0.876E+03   0.108E+01 0.347E+01 0.103E+02   -.117E-02 -.320E-02 -.375E-02
   -.898E+02 0.576E+02 -.159E+04   0.929E+02 -.559E+02 0.161E+04   -.278E+01 -.134E+01 -.226E+02   -.827E-02 0.152E-01 0.178E-01
   0.564E+02 -.116E+03 -.153E+04   -.640E+02 0.139E+03 0.158E+04   0.784E+01 -.236E+02 -.559E+02   0.127E-01 -.123E-01 -.114E-01
   0.214E+00 0.180E+00 0.234E+04   -.186E+00 -.156E+00 -.234E+04   0.235E-01 -.337E-01 -.122E+01   -.411E-01 -.402E-01 -.196E-01
   0.348E+00 -.139E+00 0.234E+04   -.390E+00 0.111E+00 -.234E+04   -.166E-01 -.567E-02 -.113E+01   0.199E-01 -.156E-01 -.107E-01
   -.398E+00 0.291E+00 0.234E+04   0.348E+00 -.335E+00 -.234E+04   0.219E-01 0.506E-02 -.115E+01   -.557E-03 0.181E-01 0.242E-02
   0.202E+00 0.434E+00 0.234E+04   -.116E+00 -.441E+00 -.234E+04   0.328E-02 0.159E-01 -.118E+01   -.569E-01 0.479E-01 -.216E-01
   0.267E+00 0.349E+00 0.234E+04   -.328E+00 -.350E+00 -.234E+04   -.197E-02 0.323E-01 -.125E+01   0.516E-01 -.991E-02 -.256E-01
   0.377E-01 0.283E-01 0.234E+04   -.523E-01 -.750E-01 -.234E+04   0.108E-01 0.300E-01 -.122E+01   0.357E-01 0.145E-01 0.704E-02
   -.199E-01 -.397E+00 0.234E+04   0.772E-01 0.242E+00 -.234E+04   -.650E-01 0.940E-01 -.110E+01   0.463E-02 0.252E-01 -.121E-01
   -.585E+00 -.309E+00 0.234E+04   0.566E+00 0.410E+00 -.234E+04   -.804E-02 -.372E-01 -.125E+01   0.372E-01 -.326E-01 0.593E-02
   0.112E-01 -.598E+00 0.234E+04   0.775E-01 0.598E+00 -.234E+04   -.111E-01 0.457E-02 -.104E+01   -.504E-01 -.767E-02 -.285E-02
   0.592E+00 -.477E+01 0.859E+03   -.748E+00 0.473E+01 -.859E+03   0.103E+00 0.850E-01 -.535E+00   -.672E-02 0.729E-02 0.302E-02
   -.678E+01 -.107E+01 0.862E+03   0.666E+01 0.109E+01 -.862E+03   0.197E+00 0.670E-01 -.323E+00   0.237E-01 0.706E-02 0.694E-02
   0.432E+00 -.595E+01 0.857E+03   -.259E+00 0.588E+01 -.857E+03   -.935E-01 0.185E+00 -.303E+00   -.371E-01 -.487E-01 -.287E-01
   0.132E+01 0.182E+01 0.859E+03   -.139E+01 -.180E+01 -.859E+03   0.224E-01 0.196E-01 -.333E+00   0.274E-01 -.456E-01 -.262E-02
   0.123E+01 0.671E-01 0.863E+03   -.129E+01 -.501E-01 -.863E+03   0.166E-01 0.239E-01 -.434E+00   0.268E-01 0.711E-02 0.263E-02
   0.779E+00 0.487E+01 0.859E+03   -.705E+00 -.492E+01 -.858E+03   -.549E-01 -.290E-02 -.270E+00   -.701E-01 0.110E-01 -.182E-01
   0.269E+01 0.273E+01 0.863E+03   -.267E+01 -.269E+01 -.863E+03   -.128E+00 -.589E-01 -.439E+00   0.134E-01 0.388E-01 0.410E-03
   0.157E+00 0.375E+00 0.864E+03   -.224E+00 -.345E+00 -.864E+03   0.543E-02 0.117E-01 -.508E+00   0.725E-01 -.149E-01 -.697E-02
   0.505E+00 0.815E+00 0.863E+03   -.375E+00 -.684E+00 -.863E+03   -.458E-01 -.835E-01 -.448E+00   -.499E-01 0.375E-01 -.290E-01
   -.268E+01 0.374E+01 -.639E+03   0.251E+01 -.389E+01 0.639E+03   0.178E+00 0.160E+00 0.290E+00   -.179E-02 0.164E-01 0.208E-01
   0.805E+00 0.317E+01 -.625E+03   -.817E+00 -.306E+01 0.625E+03   0.206E-01 -.291E+00 0.584E+00   0.300E-01 0.189E-01 -.539E-02
   -.394E+01 0.107E+01 -.675E+03   0.375E+01 -.722E+00 0.675E+03   0.297E+00 -.363E+00 -.544E-01   -.471E-01 -.292E-03 -.295E-01
   -.941E+00 0.602E+01 -.646E+03   0.491E+00 -.526E+01 0.646E+03   0.388E+00 -.579E+00 -.304E+00   0.700E-02 -.624E-01 -.193E-01
   0.582E+01 0.115E+01 -.633E+03   -.520E+01 -.125E+01 0.633E+03   -.590E+00 0.864E-02 0.236E+00   0.461E-02 0.648E-02 -.374E-01
   -.470E+01 -.939E+01 -.629E+03   0.461E+01 0.930E+01 0.629E+03   0.138E+00 0.342E-01 0.484E+00   -.153E-01 0.387E-01 0.186E-01
   -.382E+01 -.332E+01 -.632E+03   0.389E+01 0.341E+01 0.632E+03   -.172E-01 -.688E-01 0.595E+00   -.901E-02 -.267E-01 -.269E-01
   0.472E+01 -.795E+00 -.638E+03   -.475E+01 0.776E+00 0.638E+03   -.109E+00 -.644E-01 0.203E+00   0.627E-01 -.932E-02 -.655E-02
   0.175E+01 0.233E+01 -.635E+03   -.176E+01 -.264E+01 0.635E+03   0.873E-01 0.285E+00 0.368E+00   -.391E-01 0.319E-01 -.166E-01
   -.178E+02 -.256E+01 -.215E+04   0.182E+02 0.288E+01 0.215E+04   -.499E+00 -.338E+00 0.151E+01   0.266E-01 0.763E-02 -.574E-02
   0.195E+02 0.235E+02 -.214E+04   -.199E+02 -.242E+02 0.214E+04   0.345E+00 0.949E+00 0.152E+01   -.532E-02 -.338E-01 -.161E-01
   0.349E+02 -.175E+02 -.212E+04   -.351E+02 0.172E+02 0.212E+04   0.370E-01 0.569E+00 0.134E+01   0.218E-01 -.229E-01 -.223E-01
   -.138E+02 -.151E+00 -.219E+04   0.136E+02 -.101E+00 0.219E+04   0.264E+00 0.312E+00 0.888E+00   -.919E-02 -.341E-01 0.535E-02
   0.187E+02 0.151E+02 -.217E+04   -.187E+02 -.155E+02 0.216E+04   -.502E-01 0.345E+00 0.969E+00   -.146E-01 0.426E-02 -.118E-01
   0.779E+02 0.573E+02 -.200E+04   -.807E+02 -.550E+02 0.201E+04   0.251E+01 -.206E+01 -.404E+01   0.226E-01 0.102E-01 0.396E-01
   -.542E+02 -.398E+02 -.206E+04   0.553E+02 0.420E+02 0.206E+04   -.111E+01 -.229E+01 0.247E+01   -.219E-01 0.397E-01 -.109E-02
   -.741E+02 0.873E+02 -.204E+04   0.743E+02 -.877E+02 0.205E+04   -.253E+00 0.369E+00 -.823E+00   -.102E-01 0.778E-02 0.211E-01
   0.221E+02 -.621E+02 -.212E+04   -.218E+02 0.631E+02 0.212E+04   -.396E+00 -.891E+00 0.115E+01   0.207E-01 -.126E-01 0.622E-02
 -----------------------------------------------------------------------------------------------
   -.733E+01 0.252E+02 0.751E+02   0.178E-13 0.277E-12 0.819E-11   0.735E+01 -.250E+02 -.749E+02   0.256E-01 -.211E-01 -.234E+00
 
 
 POSITION                                       TOTAL-FORCE (eV/Angst)
 -----------------------------------------------------------------------------------
      5.11806      0.61084     10.45199        -0.007998     -0.826343      0.028071
      6.61149     -0.57688     10.23328         0.308369      0.329769      0.244287
      4.97814      1.06225     11.51953         0.260025     -0.096899     -0.226216
      7.20031     -1.38846      1.62732         0.009019     -0.053732      0.152674
      2.33567      1.42014      1.62732        -0.039324     -0.053645      0.149553
      4.76799      0.01584      1.62732        -0.030198     -0.024670      0.157916
      7.20031      1.42015      1.62732         0.031552      0.053167      0.109053
      2.33567      4.22875      1.62732        -0.012955      0.017482      0.155983
      4.76799      2.82445      1.62732         0.030694     -0.005798      0.160966
      2.33567      7.03734      1.62732        -0.004296     -0.040008      0.028770
      4.76799      5.63304      1.62732         0.008902      0.028438      0.129268
      7.20031      4.22874      1.62732         0.025859     -0.006853      0.044164
      1.52490      0.01584      3.92052        -0.061061      0.047526     -0.215663
      3.95722     -1.38846      3.92052         0.099883      0.095133     -0.113986
      6.38953     -2.79276      3.92052         0.041115      0.062271     -0.098095
      1.52490      2.82445      3.92052        -0.027197     -0.017196     -0.088719
      3.95722      1.42015      3.92052        -0.017187      0.044402     -0.117278
      6.38953      0.01585      3.92052        -0.052506     -0.044161      0.054351
      1.52490      5.63305      3.92052        -0.103340      0.021311     -0.253295
      3.95722      4.22874      3.92052         0.009998      0.023709     -0.219847
      6.38953      2.82445      3.92052         0.032948      0.080895     -0.314861
      0.69944      4.21373      6.19471         0.005353      0.018979     -0.032533
      3.13810      5.65694      6.15885         0.037738     -0.162062      0.100973
      5.55879     -1.36219      6.24982         0.057161     -0.018575     -0.068074
      0.68356      1.44804      6.20191        -0.055997      0.114673      0.218661
      3.15767      0.02050      6.18110         0.039031     -0.082809      0.192623
      0.70412      7.05150      6.17074         0.035030     -0.027697      0.013587
      5.57561      4.23701      6.17232         0.036746     -0.011065      0.086848
      3.15676      2.83308      6.18788        -0.075964     -0.095930     -0.043594
      5.56792      1.41254      6.18990         0.037936      0.003253      0.086998
      2.36110      4.22782      8.42596        -0.035298     -0.014049      0.116916
      4.75555      5.58740      8.44443        -0.010140      0.222543      0.090195
      2.33353      1.37297      8.41901        -0.135935      0.228858      0.159184
      7.19656      4.21387      8.51446         0.043623      0.022851     -0.207950
      2.34503      7.01262      8.46989        -0.078763      0.024133     -0.017202
      4.67210      0.06726      8.68341        -0.269037      0.164191     -0.454248
      7.24631      1.47253      8.41447         0.007356     -0.133063      0.165716
      7.23890     -1.44801      8.59799        -0.048724     -0.053200      0.134353
      4.79586      2.84270      8.49085        -0.092415      0.164172     -0.309550
 -----------------------------------------------------------------------------------
    total drift:                                0.048395      0.141433     -0.032168
  FORCES: max atom, RMS     0.826858    0.226281
  Number: max atom                 1
  FORCE total and by dimension    1.413125    0.826343


--------------------------------------------------------------------------------------------------------



  FREE ENERGIE OF THE ION-ELECTRON SYSTEM (eV)
  ---------------------------------------------------
  free  energy   TOTEN  =      -230.66728130 eV

  energy  without entropy=     -230.65004956  energy(sigma->0) =     -230.66153739
 
 d Force = 0.3773083E-01[ 0.315E-01, 0.439E-01]  d Energy = 0.3770980E-01 0.210E-04
 d Force =-0.1029669E+02[-0.103E+02,-0.102E+02]  d Ewald  =-0.1029684E+02 0.149E-03


--------------------------------------------------------------------------------------------------------


    POTLOK:  cpu time    0.2300: real time    0.3972


--------------------------------------------------------------------------------------------------------


 stress matrix after NEB project (eV)
    -36.23677      1.01972      1.39157
      1.01972    -37.93318     -1.29267
      1.39157     -1.29267     -3.23125
  FORCES: max atom, RMS     0.826858    0.226281
  FORCE total and by dimension    1.413125    0.826343
  Stress total and by dimension   52.647557   37.933181
 Quasi-Newton relaxation of ions (Broydens 2nd method)
  g(Force)  = 0.385E-01   g(Stress)= 0.000E+00

 retain information from N=  3 steps
 eigenvalues of (default step * inverse Hessian matrix)
  average eigenvalue of G=   3.3083
 eigenvalue spectrum of G is  0.3443  2.4651  7.1154
  RESET_HESSIAN           0


--------------------------------------------------------------------------------------------------------


    WAVPRE:  cpu time    0.0685: real time    0.2270
    FEWALD:  cpu time    0.0064: real time    0.0142

 real space projection operators:
  total allocation   :      13550.09 KBytes
  max/ min on nodes  :       6783.53       6766.56

    ORTHCH:  cpu time    1.2885: real time    1.5047
     LOOP+:  cpu time   80.4020: real time   86.5861


--------------------------------------- Iteration      6(   1)  ---------------------------------------


