<?xml version="1.0" encoding="ISO-8859-1"?>
<modeling>
 <generator>
  <i name="program" type="string"> vasp </i>
  <i name="version" type="string">5.4.4  </i>
  <i name="subversion" type="string">16052018 (build Apr 24 2014 20:13:14) complex standard parallel Constrained Minimization Technique (TS), Periodic NBO, VASPsol, libbeef, VASP2WANNIER90, Constrained Cell Relaxation </i>
  <i name="platform" type="string">Center for Computational Chemistry </i>
  <i name="user" type="string">phu </i>
  <i name="host" type="string">node09 </i>
  <i name="date" type="string">2025 11 24 </i>
  <i name="time" type="string">21:19:15 </i>
 </generator>
 <incar>
  <i type="string" name="SYSTEM"> metal</i>
  <i type="int" name="ISTART">     0</i>
  <i type="string" name="PREC">normal</i>
  <i type="string" name="ALGO">Fast</i>
  <i type="int" name="NSIM">     4</i>
  <i type="int" name="ISPIN">     1</i>
  <i type="int" name="NELMIN">     8</i>
  <i type="int" name="IBRION">     1</i>
  <i name="EDIFFG">     -0.05000000</i>
  <i type="int" name="NSW">  5000</i>
  <i type="int" name="ISIF">     2</i>
  <i type="int" name="ISYM">     0</i>
  <i name="ENCUT">    450.00000000</i>
  <i name="POTIM">      0.20000000</i>
  <i type="string" name="LREAL">A</i>
  <i type="int" name="ISMEAR">     1</i>
  <i name="SIGMA">      0.20000000</i>
  <i type="logical" name="LWAVE"> F  </i>
  <i type="logical" name="LCHARG"> F  </i>
  <v type="int" name="KPOINT_BSE">    -1     0     0     0</v>
  <i type="int" name="VOSKOWN">     0</i>
 </incar>
 <structure name="primitive_cell" >
  <crystal>
   <varray name="basis" >
    <v>       7.29695512      -4.21289900       0.00000000 </v>
    <v>       0.00000000       8.42579800       0.00000000 </v>
    <v>       0.00000000       0.00000000      21.87963500 </v>
   </varray>
   <i name="volume">   1345.21837528 </i>
   <varray name="rec_basis" >
    <v>       0.13704346       0.00000000       0.00000000 </v>
    <v>       0.06852173       0.11868312       0.00000000 </v>
    <v>       0.00000000       0.00000000       0.04570460 </v>
   </varray>
  </crystal>
  <varray name="positions" >
   <v>      -0.29483911       0.43833195       0.47907323 </v>
   <v>      -0.32297565       0.46518784      -0.47103823 </v>
   <v>      -0.09818520       0.38008211       0.46901272 </v>
   <v>      -0.36140987       0.32124093       0.39581258 </v>
   <v>      -0.34225418      -0.33814951       0.39053001 </v>
   <v>      -0.00708024      -0.32835777       0.38407882 </v>
   <v>       0.32590569       0.32155927       0.38376463 </v>
   <v>      -0.00748226       0.32377678       0.38981244 </v>
   <v>       0.32572832      -0.00367401       0.38799664 </v>
   <v>      -0.34683337      -0.00878139       0.38567329 </v>
   <v>      -0.24021259      -0.45216009       0.28141572 </v>
   <v>      -0.01496630      -0.00715169       0.39234675 </v>
   <v>      -0.23741116       0.21568001       0.28756967 </v>
   <v>       0.42902333       0.22229471       0.28117827 </v>
   <v>       0.32047454      -0.33851867       0.38385787 </v>
   <v>       0.42963284      -0.44839572       0.28293156 </v>
   <v>       0.10070038      -0.45304008       0.28491569 </v>
   <v>       0.09978326      -0.11418240       0.27993506 </v>
   <v>      -0.23853744      -0.11377749       0.27848941 </v>
   <v>       0.42772474      -0.11205310       0.27914152 </v>
   <v>       0.09729777       0.22217636       0.27979383 </v>
   <v>      -0.45768900       0.43970300       0.17918600 </v>
   <v>      -0.12435600       0.43970300       0.17918600 </v>
   <v>      -0.45768900       0.10636900       0.17918600 </v>
   <v>      -0.12435600      -0.22696400       0.17918600 </v>
   <v>       0.20897700       0.10636900       0.17918600 </v>
   <v>      -0.45768900      -0.22696400       0.17918600 </v>
   <v>      -0.12435600       0.10636900       0.17918600 </v>
   <v>       0.20897700      -0.22696400       0.17918600 </v>
   <v>       0.20897700       0.43970300       0.17918600 </v>
   <v>      -0.34657800       0.32859100       0.07437600 </v>
   <v>      -0.34657800      -0.33807500       0.07437600 </v>
   <v>      -0.01324500      -0.33807500       0.07437600 </v>
   <v>       0.32008800       0.32859100       0.07437600 </v>
   <v>      -0.01324500       0.32859100       0.07437600 </v>
   <v>       0.32008800      -0.00474200       0.07437600 </v>
   <v>      -0.34657800      -0.00474200       0.07437600 </v>
   <v>      -0.01324500      -0.00474200       0.07437600 </v>
   <v>       0.32008800      -0.33807500       0.07437600 </v>
  </varray>
 </structure>
 <varray name="primitive_index" >
  <v type="int" >        1 </v>
  <v type="int" >        3 </v>
  <v type="int" >        2 </v>
  <v type="int" >       36 </v>
  <v type="int" >       39 </v>
  <v type="int" >       37 </v>
  <v type="int" >       33 </v>
  <v type="int" >       38 </v>
  <v type="int" >       35 </v>
  <v type="int" >       32 </v>
  <v type="int" >       30 </v>
  <v type="int" >       34 </v>
  <v type="int" >       24 </v>
  <v type="int" >       26 </v>
  <v type="int" >       31 </v>
  <v type="int" >       29 </v>
  <v type="int" >       22 </v>
  <v type="int" >       27 </v>
  <v type="int" >       28 </v>
  <v type="int" >       23 </v>
  <v type="int" >       25 </v>
  <v type="int" >       17 </v>
  <v type="int" >       18 </v>
  <v type="int" >       14 </v>
  <v type="int" >       21 </v>
  <v type="int" >       13 </v>
  <v type="int" >       20 </v>
  <v type="int" >       15 </v>
  <v type="int" >       19 </v>
  <v type="int" >       16 </v>
  <v type="int" >        6 </v>
  <v type="int" >        9 </v>
  <v type="int" >        7 </v>
  <v type="int" >        5 </v>
  <v type="int" >        4 </v>
  <v type="int" >       10 </v>
  <v type="int" >       11 </v>
  <v type="int" >       12 </v>
  <v type="int" >        8 </v>
 </varray>
 <kpoints>
  <generation param="Gamma">
   <v type="int" name="divisions">       2        2        1 </v>
   <v name="usershift">      0.00000000       0.00000000       0.00000000 </v>
   <v name="genvec1">      0.50000000       0.00000000       0.00000000 </v>
   <v name="genvec2">     -0.00000000       0.50000000       0.00000000 </v>
   <v name="genvec3">      0.00000000       0.00000000       1.00000000 </v>
   <v name="shift">      0.00000000       0.00000000       0.00000000 </v>
  </generation>
  <varray name="kpointlist" >
   <v>       0.00000000       0.00000000       0.00000000 </v>
   <v>       0.50000000       0.00000000       0.00000000 </v>
   <v>      -0.00000000       0.50000000       0.00000000 </v>
   <v>       0.50000000       0.50000000       0.00000000 </v>
  </varray>
  <varray name="weights" >
   <v>       0.25000000 </v>
   <v>       0.25000000 </v>
   <v>       0.25000000 </v>
   <v>       0.25000000 </v>
  </varray>
 </kpoints>
 <parameters>
  <separator name="general" >
   <i type="string" name="SYSTEM">metal</i>
   <i type="logical" name="LCOMPAT"> F  </i>
  </separator>
  <separator name="electronic" >
   <i type="string" name="PREC">normal</i>
   <i name="ENMAX">    450.00000000</i>
   <i name="ENAUG">    644.87300000</i>
   <i name="EDIFF">      0.00010000</i>
   <i type="int" name="IALGO">    68</i>
   <i type="int" name="IWAVPR">    11</i>
   <i type="int" name="NBANDS">   228</i>
   <i name="NELECT">    376.00000000</i>
   <i type="int" name="TURBO">     0</i>
   <i type="int" name="IRESTART">     0</i>
   <i type="int" name="NREBOOT">     0</i>
   <i type="int" name="NMIN">     0</i>
   <i name="EREF">      0.00000000</i>
   <separator name="electronic smearing" >
    <i type="int" name="ISMEAR">     1</i>
    <i name="SIGMA">      0.20000000</i>
    <i name="KSPACING">      0.50000000</i>
    <i type="logical" name="KGAMMA"> T  </i>
   </separator>
   <separator name="electronic projectors" >
    <i type="logical" name="LREAL"> T  </i>
    <v name="ROPT">     -0.00050000     -0.00050000     -0.00050000</v>
    <i type="int" name="LMAXPAW">  -100</i>
    <i type="int" name="LMAXMIX">     2</i>
    <i type="logical" name="NLSPLINE"> F  </i>
   </separator>
   <separator name="electronic startup" >
    <i type="int" name="ISTART">     0</i>
    <i type="int" name="ICHARG">     2</i>
    <i type="int" name="INIWAV">     1</i>
   </separator>
   <separator name="electronic spin" >
    <i type="int" name="ISPIN">     1</i>
    <i type="logical" name="LNONCOLLINEAR"> F  </i>
    <v name="MAGMOM">      1.00000000      1.00000000      1.00000000      1.00000000      1.00000000      1.00000000      1.00000000      1.00000000      1.00000000      1.00000000      1.00000000      1.00000000      1.00000000      1.00000000      1.00000000      1.00000000      1.00000000      1.00000000      1.00000000      1.00000000
      1.00000000      1.00000000      1.00000000      1.00000000      1.00000000      1.00000000      1.00000000      1.00000000      1.00000000      1.00000000      1.00000000      1.00000000      1.00000000      1.00000000      1.00000000      1.00000000      1.00000000      1.00000000      1.00000000</v>
    <i name="NUPDOWN">     -1.00000000</i>
    <i type="logical" name="LSORBIT"> F  </i>
    <v name="SAXIS">      0.00000000      0.00000000      1.00000000</v>
    <i type="logical" name="LSPIRAL"> F  </i>
    <v name="QSPIRAL">      0.00000000      0.00000000      0.00000000</v>
    <i type="logical" name="LZEROZ"> F  </i>
   </separator>
   <separator name="electronic exchange-correlation" >
    <i type="logical" name="LASPH"> F  </i>
    <i type="logical" name="LMETAGGA"> F  </i>
   </separator>
   <separator name="electronic convergence" >
    <i type="int" name="NELM">    60</i>
    <i type="int" name="NELMDL">    -5</i>
    <i type="int" name="NELMIN">     8</i>
    <i name="ENINI">    450.00000000</i>
    <separator name="electronic convergence detail" >
     <i type="logical" name="LDIAG"> T  </i>
     <i type="logical" name="LSUBROT"> F  </i>
     <i name="WEIMIN">      0.00100000</i>
     <i name="EBREAK">      0.00000011</i>
     <i name="DEPER">      0.30000000</i>
     <i type="int" name="NRMM">     4</i>
     <i name="TIME">      0.40000000</i>
    </separator>
   </separator>
   <separator name="electronic mixer" >
    <i name="AMIX">      0.40000000</i>
    <i name="BMIX">      1.00000000</i>
    <i name="AMIN">      0.10000000</i>
    <i name="AMIX_MAG">      1.60000000</i>
    <i name="BMIX_MAG">      1.00000000</i>
    <separator name="electronic mixer details" >
     <i type="int" name="IMIX">     4</i>
     <i type="logical" name="MIXFIRST"> F  </i>
     <i type="int" name="MAXMIX">   -45</i>
     <i name="WC">    100.00000000</i>
     <i type="int" name="INIMIX">     1</i>
     <i type="int" name="MIXPRE">     1</i>
     <i type="int" name="MREMOVE">     5</i>
    </separator>
   </separator>
   <separator name="electronic dipolcorrection" >
    <i type="logical" name="LDIPOL"> F  </i>
    <i type="logical" name="LMONO"> F  </i>
    <i type="int" name="IDIPOL">     0</i>
    <i name="EPSILON">      1.00000000</i>
    <v name="DIPOL">   -100.00000000   -100.00000000   -100.00000000</v>
    <i name="EFIELD">      0.00000000</i>
   </separator>
  </separator>
  <separator name="grids" >
   <i type="int" name="NGX">    48</i>
   <i type="int" name="NGY">    48</i>
   <i type="int" name="NGZ">   120</i>
   <i type="int" name="NGXF">    96</i>
   <i type="int" name="NGYF">    96</i>
   <i type="int" name="NGZF">   240</i>
   <i type="logical" name="ADDGRID"> F  </i>
  </separator>
  <separator name="ionic" >
   <i type="int" name="NSW">  5000</i>
   <i type="int" name="IBRION">     1</i>
   <i type="int" name="MDALGO">     0</i>
   <i type="int" name="ISIF">     2</i>
   <i name="PSTRESS">      0.00000000</i>
   <i name="EDIFFG">     -0.05000000</i>
   <i type="int" name="NFREE">     0</i>
   <i name="POTIM">      0.20000000</i>
   <i name="SMASS">     -3.00000000</i>
   <i name="SCALEE">      1.00000000</i>
  </separator>
  <separator name="ionic md" >
   <i name="TEBEG">      0.00010000</i>
   <i name="TEEND">      0.00010000</i>
   <i type="int" name="NBLOCK">     1</i>
   <i type="int" name="KBLOCK">  5000</i>
   <i type="int" name="NPACO">   256</i>
   <i name="APACO">     16.00000000</i>
  </separator>
  <separator name="symmetry" >
   <i type="int" name="ISYM">     0</i>
   <i name="SYMPREC">      0.00001000</i>
  </separator>
  <separator name="dos" >
   <i type="int" name="LORBIT">     0</i>
   <v name="RWIGS">     -1.00000000     -1.00000000     -1.00000000</v>
   <i type="int" name="NEDOS">   301</i>
   <i name="EMIN">     10.00000000</i>
   <i name="EMAX">    -10.00000000</i>
   <i name="EFERMI">      0.00000000</i>
  </separator>
  <separator name="writing" >
   <i type="int" name="NWRITE">     2</i>
   <i type="logical" name="LWAVE"> F  </i>
   <i type="logical" name="LDOWNSAMPLE"> F  </i>
   <i type="logical" name="LCHARG"> F  </i>
   <i type="logical" name="LPARD"> F  </i>
   <i type="logical" name="LVTOT"> F  </i>
   <i type="logical" name="LVHAR"> F  </i>
   <i type="logical" name="LELF"> F  </i>
   <i type="logical" name="LOPTICS"> F  </i>
   <v name="STM">      0.00000000      0.00000000      0.00000000      0.00000000      0.00000000      0.00000000      0.00000000</v>
  </separator>
  <separator name="performance" >
   <i type="int" name="NPAR">     4</i>
   <i type="int" name="NSIM">     4</i>
   <i type="int" name="NBLK">    -1</i>
   <i type="logical" name="LPLANE"> T  </i>
   <i type="logical" name="LSCALAPACK"> T  </i>
   <i type="logical" name="LSCAAWARE"> F  </i>
   <i type="logical" name="LSCALU"> F  </i>
   <i type="logical" name="LASYNC"> F  </i>
   <i type="logical" name="LORBITALREAL"> F  </i>
  </separator>
  <separator name="miscellaneous" >
   <i type="int" name="IDIOT">     3</i>
   <i type="int" name="ISPECIAL">     0</i>
   <i type="logical" name="LMUSIC"> F  </i>
   <v name="POMASS">     12.01100000     16.00000000    195.08000000</v>
   <v name="DARWINR">      0.00000000      0.00000000      0.00000000</v>
   <v name="DARWINV">      1.00000000      1.00000000      1.00000000</v>
   <i type="logical" name="LCORR"> T  </i>
  </separator>
  <i type="logical" name="GGA_COMPAT"> T  </i>
  <i type="logical" name="LBERRY"> F  </i>
  <i type="int" name="ICORELEVEL">     0</i>
  <i type="logical" name="LDAU"> F  </i>
  <i type="int" name="I_CONSTRAINED_M">     0</i>
  <separator name="electronic exchange-correlation" >
   <i type="string" name="GGA">--</i>
   <i type="int" name="VOSKOWN">     0</i>
   <i type="logical" name="LHFCALC"> F  </i>
   <i type="string" name="PRECFOCK"></i>
   <i type="logical" name="LSYMGRAD"> F  </i>
   <i type="logical" name="LHFONE"> F  </i>
   <i type="logical" name="LRHFCALC"> F  </i>
   <i type="logical" name="LTHOMAS"> F  </i>
   <i type="logical" name="LMODELHF"> F  </i>
   <i name="ENCUT4O">     -1.00000000</i>
   <i type="int" name="EXXOEP">     0</i>
   <i type="int" name="FOURORBIT">     0</i>
   <i name="AEXX">      0.00000000</i>
   <i name="HFALPHA">      0.00000000</i>
   <i name="MCALPHA">      0.00000000</i>
   <i name="ALDAX">      1.00000000</i>
   <i name="AGGAX">      1.00000000</i>
   <i name="ALDAC">      1.00000000</i>
   <i name="AGGAC">      1.00000000</i>
   <i type="int" name="NKREDX">     1</i>
   <i type="int" name="NKREDY">     1</i>
   <i type="int" name="NKREDZ">     1</i>
   <i type="logical" name="SHIFTRED"> F  </i>
   <i type="logical" name="ODDONLY"> F  </i>
   <i type="logical" name="EVENONLY"> F  </i>
   <i type="int" name="LMAXFOCK">     0</i>
   <i type="int" name="NMAXFOCKAE">     0</i>
   <i type="logical" name="LFOCKAEDFT"> F  </i>
   <i name="HFSCREEN">      0.00000000</i>
   <i name="HFSCREENC">      0.00000000</i>
   <i type="int" name="NBANDSGWLOW">     0</i>
  </separator>
  <separator name="vdW DFT" >
   <i type="logical" name="LUSE_VDW"> F  </i>
   <i name="Zab_VDW">     -0.84910000</i>
   <i name="PARAM1">      0.12340000</i>
   <i name="PARAM2">      1.00000000</i>
   <i name="PARAM3">      0.00000000</i>
  </separator>
  <separator name="model GW" >
   <i type="int" name="MODEL_GW">     0</i>
   <i name="MODEL_EPS0">     20.69566731</i>
   <i name="MODEL_ALPHA">      1.00000000</i>
  </separator>
  <separator name="linear response parameters" >
   <i type="logical" name="LEPSILON"> F  </i>
   <i type="logical" name="LRPA"> F  </i>
   <i type="logical" name="LNABLA"> F  </i>
   <i type="logical" name="LVEL"> F  </i>
   <i type="int" name="KINTER">     0</i>
   <i name="CSHIFT">      0.10000000</i>
   <i name="OMEGAMAX">     -1.00000000</i>
   <i name="DEG_THRESHOLD">      0.00200000</i>
   <i name="RTIME">     -0.10000000</i>
   <i name="WPLASMAI">      0.00000000</i>
   <v name="DFIELD">      0.00000000      0.00000000      0.00000000</v>
   <v name="WPLASMA">      0.00000000      0.00000000      0.00000000      0.00000000      0.00000000      0.00000000      0.00000000      0.00000000      0.00000000</v>
  </separator>
  <separator name="orbital magnetization" >
   <i type="logical" name="NUCIND"> F  </i>
   <v name="MAGPOS">      0.00000000      0.00000000      0.00000000</v>
   <i type="logical" name="LNICSALL"> T  </i>
   <i type="logical" name="ORBITALMAG"> F  </i>
   <i type="logical" name="LMAGBLOCH"> F  </i>
   <i type="logical" name="LCHIMAG"> F  </i>
   <i type="logical" name="LGAUGE"> T  </i>
   <i type="int" name="MAGATOM">     0</i>
   <v name="MAGDIPOL">      0.00000000      0.00000000      0.00000000</v>
   <v name="AVECCONST">      0.00000000      0.00000000      0.00000000</v>
  </separator>
  <separator name="response functions" >
   <i type="logical" name="LADDER"> F  </i>
   <i type="logical" name="LRPAFORCE"> F  </i>
   <i type="logical" name="LFXC"> F  </i>
   <i type="logical" name="LHARTREE"> T  </i>
   <i type="int" name="IBSE">     0</i>
   <v type="int" name="KPOINT">    -1     0     0     0</v>
   <i type="logical" name="LTCTE"> F  </i>
   <i type="logical" name="LTETE"> F  </i>
   <i type="logical" name="LTRIPLET"> F  </i>
   <i type="logical" name="LFXCEPS"> F  </i>
   <i type="logical" name="LFXHEG"> F  </i>
   <i type="int" name="NATURALO">     2</i>
   <i type="logical" name="L2ORDER"> F  </i>
   <i type="logical" name="LMP2LT"> F  </i>
   <i type="logical" name="LUSEW"> F  </i>
   <i name="ENCUTGW">     -2.00000000</i>
   <i name="ENCUTGWSOFT">     -2.00000000</i>
   <i name="ENCUTLF">     -1.00000000</i>
   <i type="int" name="LMAXMP2">    -1</i>
   <i name="SCISSOR">      0.00000000</i>
   <i type="int" name="NOMEGA">     0</i>
   <i type="int" name="NOMEGAR">     0</i>
   <i type="int" name="NBANDSGW">    -1</i>
   <i type="int" name="NBANDSO">    -1</i>
   <i type="int" name="NBANDSV">    -1</i>
   <i type="int" name="NELM">     1</i>
   <i type="int" name="NELMHF">     1</i>
   <i type="int" name="DIM">     3</i>
   <i type="int" name="ANTIRES">     0</i>
   <i name="OMEGAMAX">    -30.00000000</i>
   <i name="OMEGAMIN">    -30.00000000</i>
   <i name="OMEGATL">   -200.00000000</i>
   <i type="int" name="OMEGAGRID">   140</i>
   <i name="CSHIFT">     -0.10000000</i>
   <i type="logical" name="SELFENERGY"> F  </i>
   <i type="logical" name="LSPECTRAL"> F  </i>
   <i type="logical" name="LSPECTRALGW"> F  </i>
   <i type="logical" name="LSINGLES"> F  </i>
   <i type="logical" name="LFERMIGW"> F  </i>
   <i type="logical" name="ODDONLYGW"> F  </i>
   <i type="logical" name="EVENONLYGW"> F  </i>
   <i type="int" name="NKREDLFX">     1</i>
   <i type="int" name="NKREDLFY">     1</i>
   <i type="int" name="NKREDLFZ">     1</i>
   <i type="int" name="MAXMEM">  2800</i>
   <i type="int" name="TELESCOPE">     0</i>
   <i type="int" name="TAUPAR">     1</i>
   <i type="int" name="OMEGAPAR">    -1</i>
   <i name="LAMBDA">      1.00000000</i>
  </separator>
  <separator name="External order field" >
   <i name="OFIELD_KAPPA">      0.00000000</i>
   <v name="OFIELD_K">      0.00000000      0.00000000      0.00000000</v>
   <i name="OFIELD_Q6_NEAR">      0.00000000</i>
   <i name="OFIELD_Q6_FAR">      0.00000000</i>
   <i name="OFIELD_A">      0.00000000</i>
  </separator>
  <separator name="solvation model" >
   <i type="logical" name="LSOL"> F  </i>
  </separator>
 </parameters>
 <atominfo>
  <atoms>      39 </atoms>
  <types>       3 </types>
  <array name="atoms" >
   <dimension dim="1">ion</dimension>
   <field type="string">element</field>
   <field type="int">atomtype</field>
   <set>
    <rc><c>C </c><c>   1</c></rc>
    <rc><c>O </c><c>   2</c></rc>
    <rc><c>O </c><c>   2</c></rc>
    <rc><c>Pt</c><c>   3</c></rc>
    <rc><c>Pt</c><c>   3</c></rc>
    <rc><c>Pt</c><c>   3</c></rc>
    <rc><c>Pt</c><c>   3</c></rc>
    <rc><c>Pt</c><c>   3</c></rc>
    <rc><c>Pt</c><c>   3</c></rc>
    <rc><c>Pt</c><c>   3</c></rc>
    <rc><c>Pt</c><c>   3</c></rc>
    <rc><c>Pt</c><c>   3</c></rc>
    <rc><c>Pt</c><c>   3</c></rc>
    <rc><c>Pt</c><c>   3</c></rc>
    <rc><c>Pt</c><c>   3</c></rc>
    <rc><c>Pt</c><c>   3</c></rc>
    <rc><c>Pt</c><c>   3</c></rc>
    <rc><c>Pt</c><c>   3</c></rc>
    <rc><c>Pt</c><c>   3</c></rc>
    <rc><c>Pt</c><c>   3</c></rc>
    <rc><c>Pt</c><c>   3</c></rc>
    <rc><c>Pt</c><c>   3</c></rc>
    <rc><c>Pt</c><c>   3</c></rc>
    <rc><c>Pt</c><c>   3</c></rc>
    <rc><c>Pt</c><c>   3</c></rc>
    <rc><c>Pt</c><c>   3</c></rc>
    <rc><c>Pt</c><c>   3</c></rc>
    <rc><c>Pt</c><c>   3</c></rc>
    <rc><c>Pt</c><c>   3</c></rc>
    <rc><c>Pt</c><c>   3</c></rc>
    <rc><c>Pt</c><c>   3</c></rc>
    <rc><c>Pt</c><c>   3</c></rc>
    <rc><c>Pt</c><c>   3</c></rc>
    <rc><c>Pt</c><c>   3</c></rc>
    <rc><c>Pt</c><c>   3</c></rc>
    <rc><c>Pt</c><c>   3</c></rc>
    <rc><c>Pt</c><c>   3</c></rc>
    <rc><c>Pt</c><c>   3</c></rc>
    <rc><c>Pt</c><c>   3</c></rc>
   </set>
  </array>
  <array name="atomtypes" >
   <dimension dim="1">type</dimension>
   <field type="int">atomspertype</field>
   <field type="string">element</field>
   <field>mass</field>
   <field>valence</field>
   <field type="string">pseudopotential</field>
   <set>
    <rc><c>   1</c><c>C </c><c>     12.01100000</c><c>      4.00000000</c><c> PAW_PBE C 08Apr2002                    </c></rc>
    <rc><c>   2</c><c>O </c><c>     16.00000000</c><c>      6.00000000</c><c> PAW_PBE O 08Apr2002                    </c></rc>
    <rc><c>  36</c><c>Pt</c><c>    195.08000000</c><c>     10.00000000</c><c>  PAW_PBE Pt 04Feb2005                  </c></rc>
   </set>
  </array>
 </atominfo>
 <structure name="initialpos" >
  <crystal>
   <varray name="basis" >
    <v>       7.29695512      -4.21289900       0.00000000 </v>
    <v>       0.00000000       8.42579800       0.00000000 </v>
    <v>       0.00000000       0.00000000      21.87963500 </v>
   </varray>
   <i name="volume">   1345.21837528 </i>
   <varray name="rec_basis" >
    <v>       0.13704346       0.00000000       0.00000000 </v>
    <v>       0.06852173       0.11868312       0.00000000 </v>
    <v>       0.00000000       0.00000000       0.04570460 </v>
   </varray>
  </crystal>
  <varray name="positions" >
   <v>       0.70516089       0.43833195       0.47907323 </v>
   <v>       0.90181480       0.38008211       0.46901272 </v>
   <v>       0.67702435       0.46518784       0.52896177 </v>
   <v>       0.98675500       0.32859100       0.07437600 </v>
   <v>       0.32008800       0.32859100       0.07437600 </v>
   <v>       0.65342200       0.32859100       0.07437600 </v>
   <v>       0.98675500       0.66192500       0.07437600 </v>
   <v>       0.32008800       0.66192500       0.07437600 </v>
   <v>       0.65342200       0.66192500       0.07437600 </v>
   <v>       0.32008800       0.99525800       0.07437600 </v>
   <v>       0.65342200       0.99525800       0.07437600 </v>
   <v>       0.98675500       0.99525800       0.07437600 </v>
   <v>       0.20897700       0.10636900       0.17918600 </v>
   <v>       0.54231100       0.10636900       0.17918600 </v>
   <v>       0.87564400       0.10636900       0.17918600 </v>
   <v>       0.20897700       0.43970300       0.17918600 </v>
   <v>       0.54231100       0.43970300       0.17918600 </v>
   <v>       0.87564400       0.43970300       0.17918600 </v>
   <v>       0.20897700       0.77303600       0.17918600 </v>
   <v>       0.54231100       0.77303600       0.17918600 </v>
   <v>       0.87564400       0.77303600       0.17918600 </v>
   <v>       0.10070038       0.54695992       0.28491569 </v>
   <v>       0.42772474       0.88794690       0.27914152 </v>
   <v>       0.76258884       0.21568001       0.28756967 </v>
   <v>       0.09729777       0.22217636       0.27979383 </v>
   <v>       0.42902333       0.22229471       0.28117827 </v>
   <v>       0.09978326       0.88581760       0.27993506 </v>
   <v>       0.76146256       0.88622251       0.27848941 </v>
   <v>       0.42963284       0.55160428       0.28293156 </v>
   <v>       0.75978741       0.54783991       0.28141572 </v>
   <v>       0.32047454       0.66148133       0.38385787 </v>
   <v>       0.65316663       0.99121861       0.38567329 </v>
   <v>       0.32590569       0.32155927       0.38376463 </v>
   <v>       0.98503370       0.99284831       0.39234675 </v>
   <v>       0.32572832       0.99632599       0.38799664 </v>
   <v>       0.63859013       0.32124093       0.39581258 </v>
   <v>       0.99291976       0.67164223       0.38407882 </v>
   <v>       0.99251774       0.32377678       0.38981244 </v>
   <v>       0.65774582       0.66185049       0.39053001 </v>
  </varray>
  <varray name="selective"  type="logical" >
   <v type="logical" >  T  T  T </v>
   <v type="logical" >  T  T  T </v>
   <v type="logical" >  T  T  T </v>
   <v type="logical" >  F  F  F </v>
   <v type="logical" >  F  F  F </v>
   <v type="logical" >  F  F  F </v>
   <v type="logical" >  F  F  F </v>
   <v type="logical" >  F  F  F </v>
   <v type="logical" >  F  F  F </v>
   <v type="logical" >  F  F  F </v>
   <v type="logical" >  F  F  F </v>
   <v type="logical" >  F  F  F </v>
   <v type="logical" >  F  F  F </v>
   <v type="logical" >  F  F  F </v>
   <v type="logical" >  F  F  F </v>
   <v type="logical" >  F  F  F </v>
   <v type="logical" >  F  F  F </v>
   <v type="logical" >  F  F  F </v>
   <v type="logical" >  F  F  F </v>
   <v type="logical" >  F  F  F </v>
   <v type="logical" >  F  F  F </v>
   <v type="logical" >  T  T  T </v>
   <v type="logical" >  T  T  T </v>
   <v type="logical" >  T  T  T </v>
   <v type="logical" >  T  T  T </v>
   <v type="logical" >  T  T  T </v>
   <v type="logical" >  T  T  T </v>
   <v type="logical" >  T  T  T </v>
   <v type="logical" >  T  T  T </v>
   <v type="logical" >  T  T  T </v>
   <v type="logical" >  T  T  T </v>
   <v type="logical" >  T  T  T </v>
   <v type="logical" >  T  T  T </v>
   <v type="logical" >  T  T  T </v>
   <v type="logical" >  T  T  T </v>
   <v type="logical" >  T  T  T </v>
   <v type="logical" >  T  T  T </v>
   <v type="logical" >  T  T  T </v>
   <v type="logical" >  T  T  T </v>
  </varray>
  <nose>
   <v>      -3.00000000       0.00000000       0.00010000       0.00010000 </v>
  </nose>
 </structure>
 <calculation>
  <scstep>
   <time name="dav">   16.05   17.20</time>
   <time name="total">   16.32   17.52</time>
   <energy>
    <i name="alphaZ">    975.10247152 </i>
    <i name="ewald">  91371.47682587 </i>
    <i name="hartreedc">-120462.47670169 </i>
    <i name="XCdc">    189.55571073 </i>
    <i name="pawpsdc">  24789.08602224 </i>
    <i name="pawaedc"> -23775.73976456 </i>
    <i name="eentropy">      0.01944689 </i>
    <i name="bandstr">   2071.16303260 </i>
    <i name="atom">  27259.89416086 </i>
    <i name="e_fr_energy">   2418.08120446 </i>
    <i name="e_wo_entrp">   2418.06175756 </i>
    <i name="e_0_energy">   2418.07472216 </i>
   </energy>
  </scstep>
  <scstep>
   <time name="dav">   15.59   16.38</time>
   <time name="total">   15.59   16.38</time>
   <energy>
    <i name="e_fr_energy">    -64.00185508 </i>
    <i name="e_wo_entrp">    -63.99914801 </i>
    <i name="e_0_energy">    -64.00095272 </i>
   </energy>
  </scstep>
  <scstep>
   <time name="dav">   15.19   15.27</time>
   <time name="total">   15.19   15.27</time>
   <energy>
    <i name="e_fr_energy">   -240.86532128 </i>
    <i name="e_wo_entrp">   -240.85962193 </i>
    <i name="e_0_energy">   -240.86342150 </i>
   </energy>
  </scstep>
  <scstep>
   <time name="dav">   16.47   16.71</time>
   <time name="total">   16.47   16.71</time>
   <energy>
    <i name="e_fr_energy">   -248.32741850 </i>
    <i name="e_wo_entrp">   -248.32616437 </i>
    <i name="e_0_energy">   -248.32700046 </i>
   </energy>
  </scstep>
  <scstep>
   <time name="dav">   16.67   19.02</time>
   <time name="total">   17.41   19.77</time>
   <energy>
    <i name="e_fr_energy">   -248.52794512 </i>
    <i name="e_wo_entrp">   -248.52688997 </i>
    <i name="e_0_energy">   -248.52759341 </i>
   </energy>
  </scstep>
  <scstep>
   <time name="diag">    2.76    2.87</time>
   <time name="diis">    5.87    6.31</time>
   <time name="orth">    0.52    0.52</time>
   <time name="total">   10.13   10.81</time>
   <energy>
    <i name="e_fr_energy">   -247.27552995 </i>
    <i name="e_wo_entrp">   -247.03807921 </i>
    <i name="e_0_energy">   -247.19637970 </i>
   </energy>
  </scstep>
  <scstep>
   <time name="diag">    2.02    2.03</time>
   <time name="diis">    5.07    5.23</time>
   <time name="orth">    0.34    0.42</time>
   <time name="total">    8.53    8.80</time>
   <energy>
    <i name="e_fr_energy">   -238.68898506 </i>
    <i name="e_wo_entrp">   -238.60158063 </i>
    <i name="e_0_energy">   -238.65985025 </i>
   </energy>
  </scstep>
  <scstep>
   <time name="diag">    1.84    2.04</time>
   <time name="diis">    4.85    5.90</time>
   <time name="orth">    0.43    0.43</time>
   <time name="total">    8.12    9.38</time>
   <energy>
    <i name="e_fr_energy">   -244.09608786 </i>
    <i name="e_wo_entrp">   -244.12939421 </i>
    <i name="e_0_energy">   -244.10718998 </i>
   </energy>
  </scstep>
  <scstep>
   <time name="diag">    1.57    1.58</time>
   <time name="diis">    4.82    4.90</time>
   <time name="orth">    0.22    0.31</time>
   <time name="total">    7.47    7.83</time>
   <energy>
    <i name="e_fr_energy">   -231.44997493 </i>
    <i name="e_wo_entrp">   -231.43974460 </i>
    <i name="e_0_energy">   -231.44656482 </i>
   </energy>
  </scstep>
  <scstep>
   <time name="diag">    1.82    2.01</time>
   <time name="diis">    4.93    5.15</time>
   <time name="orth">    0.46    0.46</time>
   <time name="total">    8.03    8.44</time>
   <energy>
    <i name="e_fr_energy">   -230.53253073 </i>
    <i name="e_wo_entrp">   -230.51676346 </i>
    <i name="e_0_energy">   -230.52727497 </i>
   </energy>
  </scstep>
  <scstep>
   <time name="diag">    2.06    2.08</time>
   <time name="diis">    5.08    5.15</time>
   <time name="orth">    0.37    0.37</time>
   <time name="total">    8.53    8.66</time>
   <energy>
    <i name="e_fr_energy">   -230.09970042 </i>
    <i name="e_wo_entrp">   -230.08559399 </i>
    <i name="e_0_energy">   -230.09499828 </i>
   </energy>
  </scstep>
  <scstep>
   <time name="diag">    1.97    1.99</time>
   <time name="diis">    5.33    5.36</time>
   <time name="orth">    0.42    0.43</time>
   <time name="total">    8.81    8.87</time>
   <energy>
    <i name="e_fr_energy">   -230.02070865 </i>
    <i name="e_wo_entrp">   -230.00533097 </i>
    <i name="e_0_energy">   -230.01558276 </i>
   </energy>
  </scstep>
  <scstep>
   <time name="diag">    1.54    1.72</time>
   <time name="diis">    5.13    5.17</time>
   <time name="orth">    0.44    0.44</time>
   <time name="total">    7.95    8.18</time>
   <energy>
    <i name="e_fr_energy">   -230.00974732 </i>
    <i name="e_wo_entrp">   -229.98994163 </i>
    <i name="e_0_energy">   -230.00314542 </i>
   </energy>
  </scstep>
  <scstep>
   <time name="diag">    1.66    1.68</time>
   <time name="diis">    5.62    6.05</time>
   <time name="orth">    0.44    0.44</time>
   <time name="total">    8.50    8.95</time>
   <energy>
    <i name="e_fr_energy">   -229.95761848 </i>
    <i name="e_wo_entrp">   -229.95452714 </i>
    <i name="e_0_energy">   -229.95658803 </i>
   </energy>
  </scstep>
  <scstep>
   <time name="diag">    2.43    3.12</time>
   <time name="diis">    5.00    5.53</time>
   <time name="orth">    0.40    0.40</time>
   <time name="total">    8.77   10.20</time>
   <energy>
    <i name="e_fr_energy">   -229.94753003 </i>
    <i name="e_wo_entrp">   -229.93857848 </i>
    <i name="e_0_energy">   -229.94454618 </i>
   </energy>
  </scstep>
  <scstep>
   <time name="diag">    1.95    2.17</time>
   <time name="diis">    5.48    5.65</time>
   <time name="orth">    0.34    0.34</time>
   <time name="total">    8.53    8.95</time>
   <energy>
    <i name="e_fr_energy">   -229.94267282 </i>
    <i name="e_wo_entrp">   -229.93227181 </i>
    <i name="e_0_energy">   -229.93920582 </i>
   </energy>
  </scstep>
  <scstep>
   <time name="diag">    1.56    1.72</time>
   <time name="diis">    5.05    5.46</time>
   <time name="orth">    0.25    0.25</time>
   <time name="total">    7.72    8.29</time>
   <energy>
    <i name="e_fr_energy">   -229.94242506 </i>
    <i name="e_wo_entrp">   -229.93268226 </i>
    <i name="e_0_energy">   -229.93917746 </i>
   </energy>
  </scstep>
  <scstep>
   <time name="diag">    2.10    2.12</time>
   <time name="diis">    5.91    5.95</time>
   <time name="orth">    0.38    0.38</time>
   <time name="total">    9.21    9.27</time>
   <energy>
    <i name="e_fr_energy">   -229.94265854 </i>
    <i name="e_wo_entrp">   -229.93192974 </i>
    <i name="e_0_energy">   -229.93908227 </i>
   </energy>
  </scstep>
  <scstep>
   <time name="diag">    1.61    1.99</time>
   <time name="diis">    3.81    4.93</time>
   <time name="orth">    0.39    0.39</time>
   <time name="total">    6.01    7.57</time>
   <energy>
    <i name="alphaZ">    975.10247152 </i>
    <i name="ewald">  91371.47682587 </i>
    <i name="hartreedc">-120070.39524072 </i>
    <i name="XCdc">    178.09690753 </i>
    <i name="pawpsdc">  30101.23707323 </i>
    <i name="pawaedc"> -29187.27754757 </i>
    <i name="eentropy">     -0.01064912 </i>
    <i name="bandstr">   -858.06672918 </i>
    <i name="atom">  27259.89416086 </i>
    <i name="e_fr_energy">   -229.94272757 </i>
    <i name="e_wo_entrp">   -229.93207845 </i>
    <i name="e_0_energy">   -229.93917786 </i>
   </energy>
  </scstep>
  <structure>
   <crystal>
    <varray name="basis" >
     <v>       7.29695512      -4.21289900       0.00000000 </v>
     <v>       0.00000000       8.42579800       0.00000000 </v>
     <v>       0.00000000       0.00000000      21.87963500 </v>
    </varray>
    <i name="volume">   1345.21837528 </i>
    <varray name="rec_basis" >
     <v>       0.13704346       0.00000000       0.00000000 </v>
     <v>       0.06852173       0.11868312       0.00000000 </v>
     <v>       0.00000000       0.00000000       0.04570460 </v>
    </varray>
   </crystal>
   <varray name="positions" >
    <v>       0.70516089       0.43833195       0.47907323 </v>
    <v>       0.90181480       0.38008211       0.46901272 </v>
    <v>       0.67702435       0.46518784       0.52896177 </v>
    <v>       0.98675500       0.32859100       0.07437600 </v>
    <v>       0.32008800       0.32859100       0.07437600 </v>
    <v>       0.65342200       0.32859100       0.07437600 </v>
    <v>       0.98675500       0.66192500       0.07437600 </v>
    <v>       0.32008800       0.66192500       0.07437600 </v>
    <v>       0.65342200       0.66192500       0.07437600 </v>
    <v>       0.32008800       0.99525800       0.07437600 </v>
    <v>       0.65342200       0.99525800       0.07437600 </v>
    <v>       0.98675500       0.99525800       0.07437600 </v>
    <v>       0.20897700       0.10636900       0.17918600 </v>
    <v>       0.54231100       0.10636900       0.17918600 </v>
    <v>       0.87564400       0.10636900       0.17918600 </v>
    <v>       0.20897700       0.43970300       0.17918600 </v>
    <v>       0.54231100       0.43970300       0.17918600 </v>
    <v>       0.87564400       0.43970300       0.17918600 </v>
    <v>       0.20897700       0.77303600       0.17918600 </v>
    <v>       0.54231100       0.77303600       0.17918600 </v>
    <v>       0.87564400       0.77303600       0.17918600 </v>
    <v>       0.10070038       0.54695992       0.28491569 </v>
    <v>       0.42772474       0.88794690       0.27914152 </v>
    <v>       0.76258884       0.21568001       0.28756967 </v>
    <v>       0.09729777       0.22217636       0.27979383 </v>
    <v>       0.42902333       0.22229471       0.28117827 </v>
    <v>       0.09978326       0.88581760       0.27993506 </v>
    <v>       0.76146256       0.88622251       0.27848941 </v>
    <v>       0.42963284       0.55160428       0.28293156 </v>
    <v>       0.75978741       0.54783991       0.28141572 </v>
    <v>       0.32047454       0.66148133       0.38385787 </v>
    <v>       0.65316663       0.99121861       0.38567329 </v>
    <v>       0.32590569       0.32155927       0.38376463 </v>
    <v>       0.98503370       0.99284831       0.39234675 </v>
    <v>       0.32572832       0.99632599       0.38799664 </v>
    <v>       0.63859013       0.32124093       0.39581258 </v>
    <v>       0.99291976       0.67164223       0.38407882 </v>
    <v>       0.99251774       0.32377678       0.38981244 </v>
    <v>       0.65774582       0.66185049       0.39053001 </v>
   </varray>
  </structure>
  <varray name="forces" >
   <v>      -0.25404731      -1.57058387      -1.36543876 </v>
   <v>       0.29095062       0.13780544      -0.70324801 </v>
   <v>       0.29052385       0.18194222      -0.03618206 </v>
   <v>      -0.03200478      -0.05317411       0.18810055 </v>
   <v>      -0.02311207      -0.07992674       0.13725126 </v>
   <v>      -0.03495830      -0.04843129       0.14004426 </v>
   <v>       0.03731703       0.06670152       0.12135468 </v>
   <v>      -0.01564281       0.01383395       0.25395948 </v>
   <v>       0.04017394      -0.01991889       0.16469919 </v>
   <v>      -0.01067214      -0.00602071      -0.00739174 </v>
   <v>       0.03039481       0.04588275       0.12371079 </v>
   <v>       0.04146190      -0.03342084       0.01267256 </v>
   <v>      -0.02843281      -0.01610389      -0.61426267 </v>
   <v>       0.23823232       0.22998014      -0.15041952 </v>
   <v>       0.00609582       0.27867388      -0.45199452 </v>
   <v>       0.01272513       0.17872154      -0.41027556 </v>
   <v>      -0.03199162       0.14206826      -0.31663308 </v>
   <v>       0.03103350      -0.13211619       0.25928956 </v>
   <v>      -0.23821097      -0.16620596      -0.49311802 </v>
   <v>      -0.17448777      -0.03967894      -0.53519711 </v>
   <v>       0.04774844      -0.01031549      -0.54340637 </v>
   <v>      -0.64105598       0.53003197      -0.66825428 </v>
   <v>       0.27250656      -0.25043354       0.78952050 </v>
   <v>      -0.15269184       0.59005334      -0.71392320 </v>
   <v>      -0.39983834      -0.36747898       1.14718095 </v>
   <v>       0.42084186      -0.70698714       0.28930524 </v>
   <v>      -0.44223706       0.14799388       0.79534001 </v>
   <v>       0.27538887      -0.38324791       1.25903994 </v>
   <v>       0.47231670       0.01182588      -0.02165920 </v>
   <v>       0.38385189      -0.04746837       0.47357505 </v>
   <v>       0.42705487       0.10138307       0.39626615 </v>
   <v>      -0.16977216      -0.40207073       0.05357484 </v>
   <v>      -0.67176843       0.46783624       0.28551625 </v>
   <v>       0.09941595      -0.07346617      -0.97863149 </v>
   <v>      -0.53286489      -0.22064685      -0.31368619 </v>
   <v>       0.50871107       0.80697738       0.86701079 </v>
   <v>      -0.00162150       0.04434364       0.04783529 </v>
   <v>      -0.08601552       0.17864395       1.16812428 </v>
   <v>       0.01468117       0.47299757      -0.64964987 </v>
  </varray>
  <varray name="stress" >
   <v>     -41.95724011       1.69003699       1.33519004 </v>
   <v>       1.69003702     -44.19005102      -2.38014305 </v>
   <v>       1.33519018      -2.38014309      -6.36495072 </v>
  </varray>
  <energy>
   <i name="e_fr_energy">   -229.94272757 </i>
   <i name="e_wo_entrp">   -229.93917786 </i>
   <i name="e_0_energy">     -0.01064912 </i>
  </energy>
  <time name="totalsc">  209.25  222.69</time>
 </calculation>
 <calculation>
  <scstep>
   <time name="dav">   13.21   13.36</time>
   <time name="total">   14.14   14.43</time>
   <energy>
    <i name="alphaZ">    975.10247152 </i>
    <i name="ewald">  91342.97946539 </i>
    <i name="hartreedc">-120044.68151172 </i>
    <i name="XCdc">    178.04020785 </i>
    <i name="pawpsdc">  30101.40864641 </i>
    <i name="pawaedc"> -29187.43179899 </i>
    <i name="eentropy">     -0.01451533 </i>
    <i name="bandstr">   -855.47571272 </i>
    <i name="atom">  27259.89416086 </i>
    <i name="e_fr_energy">   -230.17858672 </i>
    <i name="e_wo_entrp">   -230.16407139 </i>
    <i name="e_0_energy">   -230.17374828 </i>
   </energy>
  </scstep>
  <scstep>
   <time name="diag">    1.83    1.84</time>
   <time name="diis">    5.91    5.95</time>
   <time name="orth">    0.38    0.38</time>
   <time name="total">    8.91    8.97</time>
   <energy>
    <i name="e_fr_energy">   -230.27309733 </i>
    <i name="e_wo_entrp">   -230.27017173 </i>
    <i name="e_0_energy">   -230.27212213 </i>
   </energy>
  </scstep>
  <scstep>
   <time name="diag">    2.06    2.07</time>
   <time name="diis">    5.54    5.58</time>
   <time name="orth">    0.33    0.33</time>
   <time name="total">    8.69    8.74</time>
   <energy>
    <i name="e_fr_energy">   -230.24608170 </i>
    <i name="e_wo_entrp">   -230.22821850 </i>
    <i name="e_0_energy">   -230.24012730 </i>
   </energy>
  </scstep>
  <scstep>
   <time name="diag">    2.29    2.31</time>
   <time name="diis">    4.87    4.90</time>
   <time name="orth">    0.38    0.38</time>
   <time name="total">    8.24    8.28</time>
   <energy>
    <i name="e_fr_energy">   -230.23191428 </i>
    <i name="e_wo_entrp">   -230.21725751 </i>
    <i name="e_0_energy">   -230.22702869 </i>
   </energy>
  </scstep>
  <scstep>
   <time name="diag">    1.81    1.82</time>
   <time name="diis">    5.30    5.33</time>
   <time name="orth">    0.33    0.33</time>
   <time name="total">    8.22    8.28</time>
   <energy>
    <i name="e_fr_energy">   -230.22896450 </i>
    <i name="e_wo_entrp">   -230.21799679 </i>
    <i name="e_0_energy">   -230.22530860 </i>
   </energy>
  </scstep>
  <scstep>
   <time name="diag">    2.16    2.17</time>
   <time name="diis">    5.03    5.06</time>
   <time name="orth">    0.28    0.28</time>
   <time name="total">    8.27    8.32</time>
   <energy>
    <i name="e_fr_energy">   -230.22853190 </i>
    <i name="e_wo_entrp">   -230.21434254 </i>
    <i name="e_0_energy">   -230.22380211 </i>
   </energy>
  </scstep>
  <scstep>
   <time name="diag">    1.75    1.76</time>
   <time name="diis">    4.80    4.83</time>
   <time name="orth">    0.41    0.42</time>
   <time name="total">    7.71    7.76</time>
   <energy>
    <i name="e_fr_energy">   -230.22692834 </i>
    <i name="e_wo_entrp">   -230.21436460 </i>
    <i name="e_0_energy">   -230.22274043 </i>
   </energy>
  </scstep>
  <scstep>
   <time name="diag">    1.95    1.96</time>
   <time name="diis">    5.10    5.14</time>
   <time name="orth">    0.40    0.41</time>
   <time name="total">    8.33    8.38</time>
   <energy>
    <i name="e_fr_energy">   -230.22656949 </i>
    <i name="e_wo_entrp">   -230.21326844 </i>
    <i name="e_0_energy">   -230.22213581 </i>
   </energy>
  </scstep>
  <scstep>
   <time name="diag">    1.64    1.65</time>
   <time name="diis">    3.33    3.35</time>
   <time name="orth">    0.42    0.42</time>
   <time name="total">    6.17    6.21</time>
   <energy>
    <i name="e_fr_energy">   -230.22645628 </i>
    <i name="e_wo_entrp">   -230.21350725 </i>
    <i name="e_0_energy">   -230.22213993 </i>
   </energy>
  </scstep>
  <scstep>
   <time name="diag">    1.86    1.87</time>
   <time name="diis">    3.22    3.24</time>
   <time name="orth">    0.30    0.30</time>
   <time name="total">    5.62    5.65</time>
   <energy>
    <i name="alphaZ">    975.10247152 </i>
    <i name="ewald">  91342.97946539 </i>
    <i name="hartreedc">-120040.55809398 </i>
    <i name="XCdc">    177.98929571 </i>
    <i name="pawpsdc">  30092.17066158 </i>
    <i name="pawaedc"> -29178.16689301 </i>
    <i name="eentropy">     -0.01300052 </i>
    <i name="bandstr">   -859.62454713 </i>
    <i name="atom">  27259.89416086 </i>
    <i name="e_fr_energy">   -230.22647958 </i>
    <i name="e_wo_entrp">   -230.21347906 </i>
    <i name="e_0_energy">   -230.22214607 </i>
   </energy>
  </scstep>
  <structure>
   <crystal>
    <varray name="basis" >
     <v>       7.29695512      -4.21289900       0.00000000 </v>
     <v>       0.00000000       8.42579800       0.00000000 </v>
     <v>       0.00000000       0.00000000      21.87963500 </v>
    </varray>
    <i name="volume">   1345.21837528 </i>
    <varray name="rec_basis" >
     <v>       0.13704346       0.00000000       0.00000000 </v>
     <v>       0.06852173       0.11868312       0.00000000 </v>
     <v>       0.00000000       0.00000000       0.04570460 </v>
    </varray>
   </crystal>
   <varray name="positions" >
    <v>       0.70448905       0.43439903       0.47786897 </v>
    <v>       0.90258423       0.38078243       0.46839248 </v>
    <v>       0.67779265       0.46598868       0.52892986 </v>
    <v>       0.98675500       0.32859100       0.07437600 </v>
    <v>       0.32008800       0.32859100       0.07437600 </v>
    <v>       0.65342200       0.32859100       0.07437600 </v>
    <v>       0.98675500       0.66192500       0.07437600 </v>
    <v>       0.32008800       0.66192500       0.07437600 </v>
    <v>       0.65342200       0.66192500       0.07437600 </v>
    <v>       0.32008800       0.99525800       0.07437600 </v>
    <v>       0.65342200       0.99525800       0.07437600 </v>
    <v>       0.98675500       0.99525800       0.07437600 </v>
    <v>       0.20897700       0.10636900       0.17918600 </v>
    <v>       0.54231100       0.10636900       0.17918600 </v>
    <v>       0.87564400       0.10636900       0.17918600 </v>
    <v>       0.20897700       0.43970300       0.17918600 </v>
    <v>       0.54231100       0.43970300       0.17918600 </v>
    <v>       0.87564400       0.43970300       0.17918600 </v>
    <v>       0.20897700       0.77303600       0.17918600 </v>
    <v>       0.54231100       0.77303600       0.17918600 </v>
    <v>       0.87564400       0.77303600       0.17918600 </v>
    <v>       0.09900508       0.54732617       0.28432631 </v>
    <v>       0.42844540       0.88773367       0.27983785 </v>
    <v>       0.76218504       0.21682947       0.28694002 </v>
    <v>       0.09624038       0.22080606       0.28080560 </v>
    <v>       0.43013626       0.22123200       0.28143342 </v>
    <v>       0.09861375       0.88557178       0.28063652 </v>
    <v>       0.76219083       0.88570892       0.27959984 </v>
    <v>       0.43088190       0.55225589       0.28291246 </v>
    <v>       0.76080252       0.54823875       0.28183340 </v>
    <v>       0.32160390       0.66227820       0.38420737 </v>
    <v>       0.65271766       0.99007329       0.38572054 </v>
    <v>       0.32412917       0.32174247       0.38401645 </v>
    <v>       0.98529661       0.99281151       0.39148364 </v>
    <v>       0.32431914       0.99511607       0.38771998 </v>
    <v>       0.63993544       0.32376175       0.39657726 </v>
    <v>       0.99291547       0.67174165       0.38412101 </v>
    <v>       0.99229027       0.32407218       0.39084268 </v>
    <v>       0.65778465       0.66295318       0.38995705 </v>
   </varray>
  </structure>
  <varray name="forces" >
   <v>      -0.55814027      -0.52650659       1.69558452 </v>
   <v>       0.26542487       0.22399982      -0.35134565 </v>
   <v>       0.72692397      -0.71585356      -2.62246192 </v>
   <v>      -0.01830415      -0.05143336       0.17631451 </v>
   <v>      -0.02787936      -0.06920700       0.14057969 </v>
   <v>      -0.03529008      -0.04034384       0.14884318 </v>
   <v>       0.03580678       0.06003969       0.11359891 </v>
   <v>      -0.01618214       0.01481159       0.22427737 </v>
   <v>       0.03371796      -0.01583408       0.16554036 </v>
   <v>      -0.00867013      -0.01733887       0.00630831 </v>
   <v>       0.02195312       0.04100800       0.12752760 </v>
   <v>       0.03913297      -0.02599269       0.02073871 </v>
   <v>      -0.04514469      -0.00199083      -0.50539795 </v>
   <v>       0.19917109       0.18686529      -0.14715218 </v>
   <v>       0.01081545       0.20583369      -0.34422764 </v>
   <v>      -0.00078560       0.11411304      -0.29887707 </v>
   <v>      -0.02716469       0.11858010      -0.26150518 </v>
   <v>       0.00512750      -0.10713158       0.19369439 </v>
   <v>      -0.19863839      -0.10195620      -0.41097557 </v>
   <v>      -0.11293604      -0.01491946      -0.43448685 </v>
   <v>       0.04304059       0.02381122      -0.47508365 </v>
   <v>      -0.40975232       0.33590679      -0.44493828 </v>
   <v>       0.18989062      -0.23584137       0.58517302 </v>
   <v>      -0.07599533       0.38859268      -0.48073393 </v>
   <v>      -0.30128932      -0.18493177       0.90301098 </v>
   <v>       0.30893114      -0.51482590       0.30406704 </v>
   <v>      -0.28948785       0.10126587       0.53693767 </v>
   <v>       0.22473626      -0.25376987       0.91472117 </v>
   <v>       0.26189039      -0.03748611      -0.01866394 </v>
   <v>       0.27339882      -0.03099027       0.36607624 </v>
   <v>       0.27307247       0.05636360       0.29290781 </v>
   <v>      -0.12508774      -0.18979180       0.05131933 </v>
   <v>      -0.49865329       0.38807744       0.23231297 </v>
   <v>       0.09642769      -0.02371692      -0.79541377 </v>
   <v>      -0.34965080      -0.11272044      -0.22334149 </v>
   <v>       0.15647253       0.53638731       0.30304718 </v>
   <v>       0.00918044      -0.01790611       0.10323372 </v>
   <v>      -0.04842777       0.08388392       0.77789976 </v>
   <v>      -0.02763471       0.41094858      -0.56910935 </v>
  </varray>
  <varray name="stress" >
   <v>     -42.93924936       1.81944713       2.10281945 </v>
   <v>       1.81944716     -45.21915050      -3.09040769 </v>
   <v>       2.10281947      -3.09040775      -9.11111819 </v>
  </varray>
  <energy>
   <i name="e_fr_energy">   -230.22647958 </i>
   <i name="e_wo_entrp">   -230.22214607 </i>
   <i name="e_0_energy">     -0.01300052 </i>
  </energy>
  <time name="totalsc">   94.66   97.11</time>
 </calculation>
 <calculation>
  <scstep>
   <time name="dav">   17.49   18.81</time>
   <time name="total">   18.68   20.35</time>
   <energy>
    <i name="alphaZ">    975.10247152 </i>
    <i name="ewald">  91357.14621844 </i>
    <i name="hartreedc">-120050.62967525 </i>
    <i name="XCdc">    178.14895897 </i>
    <i name="pawpsdc">  30092.11751375 </i>
    <i name="pawaedc"> -29178.11319297 </i>
    <i name="eentropy">     -0.01486746 </i>
    <i name="bandstr">   -863.96149773 </i>
    <i name="atom">  27259.89416086 </i>
    <i name="e_fr_energy">   -230.30990985 </i>
    <i name="e_wo_entrp">   -230.29504239 </i>
    <i name="e_0_energy">   -230.30495403 </i>
   </energy>
  </scstep>
  <scstep>
   <time name="diag">    1.66    1.79</time>
   <time name="diis">    5.05    5.59</time>
   <time name="orth">    0.45    0.45</time>
   <time name="total">    7.85    8.73</time>
   <energy>
    <i name="e_fr_energy">   -230.34998199 </i>
    <i name="e_wo_entrp">   -230.34040851 </i>
    <i name="e_0_energy">   -230.34679083 </i>
   </energy>
  </scstep>
  <scstep>
   <time name="diag">    1.81    1.84</time>
   <time name="diis">    4.79    5.13</time>
   <time name="orth">    0.39    0.40</time>
   <time name="total">    7.76    8.14</time>
   <energy>
    <i name="e_fr_energy">   -230.34269806 </i>
    <i name="e_wo_entrp">   -230.32615265 </i>
    <i name="e_0_energy">   -230.33718292 </i>
   </energy>
  </scstep>
  <scstep>
   <time name="diag">    1.56    1.77</time>
   <time name="diis">    4.65    5.48</time>
   <time name="orth">    0.39    0.39</time>
   <time name="total">    7.59    8.64</time>
   <energy>
    <i name="e_fr_energy">   -230.33755776 </i>
    <i name="e_wo_entrp">   -230.32343737 </i>
    <i name="e_0_energy">   -230.33285097 </i>
   </energy>
  </scstep>
  <scstep>
   <time name="diag">    1.45    2.29</time>
   <time name="diis">    4.72    5.70</time>
   <time name="orth">    0.42    0.42</time>
   <time name="total">    7.37    9.21</time>
   <energy>
    <i name="e_fr_energy">   -230.33713829 </i>
    <i name="e_wo_entrp">   -230.32542267 </i>
    <i name="e_0_energy">   -230.33323309 </i>
   </energy>
  </scstep>
  <scstep>
   <time name="diag">    1.95    1.96</time>
   <time name="diis">    5.15    5.18</time>
   <time name="orth">    0.30    0.30</time>
   <time name="total">    8.12    8.17</time>
   <energy>
    <i name="e_fr_energy">   -230.33531852 </i>
    <i name="e_wo_entrp">   -230.31963579 </i>
    <i name="e_0_energy">   -230.33009094 </i>
   </energy>
  </scstep>
  <scstep>
   <time name="diag">    1.92    1.94</time>
   <time name="diis">    5.57    5.60</time>
   <time name="orth">    0.49    0.49</time>
   <time name="total">    9.08    9.13</time>
   <energy>
    <i name="e_fr_energy">   -230.33419733 </i>
    <i name="e_wo_entrp">   -230.32100123 </i>
    <i name="e_0_energy">   -230.32979863 </i>
   </energy>
  </scstep>
  <scstep>
   <time name="diag">    1.54    1.55</time>
   <time name="diis">    3.63    4.53</time>
   <time name="orth">    0.40    0.40</time>
   <time name="total">    6.34    7.26</time>
   <energy>
    <i name="e_fr_energy">   -230.33407890 </i>
    <i name="e_wo_entrp">   -230.32032290 </i>
    <i name="e_0_energy">   -230.32949357 </i>
   </energy>
  </scstep>
  <scstep>
   <time name="diag">    1.80    1.82</time>
   <time name="diis">    2.96    2.98</time>
   <time name="orth">    0.31    0.32</time>
   <time name="total">    5.26    5.30</time>
   <energy>
    <i name="alphaZ">    975.10247152 </i>
    <i name="ewald">  91357.14621844 </i>
    <i name="hartreedc">-120060.07533772 </i>
    <i name="XCdc">    178.26336428 </i>
    <i name="pawpsdc">  30101.27145316 </i>
    <i name="pawaedc"> -29187.29493882 </i>
    <i name="eentropy">     -0.01360666 </i>
    <i name="bandstr">   -854.62781690 </i>
    <i name="atom">  27259.89416086 </i>
    <i name="e_fr_energy">   -230.33403185 </i>
    <i name="e_wo_entrp">   -230.32042519 </i>
    <i name="e_0_energy">   -230.32949629 </i>
   </energy>
  </scstep>
  <structure>
   <crystal>
    <varray name="basis" >
     <v>       7.29695512      -4.21289900       0.00000000 </v>
     <v>       0.00000000       8.42579800       0.00000000 </v>
     <v>       0.00000000       0.00000000      21.87963500 </v>
    </varray>
    <i name="volume">   1345.21837528 </i>
    <varray name="rec_basis" >
     <v>       0.13704346       0.00000000       0.00000000 </v>
     <v>       0.06852173       0.11868312       0.00000000 </v>
     <v>       0.00000000       0.00000000       0.04570460 </v>
    </varray>
   </crystal>
   <varray name="positions" >
    <v>       0.70371497       0.43337961       0.47865323 </v>
    <v>       0.90295235       0.38123553       0.46822997 </v>
    <v>       0.67880081       0.46563296       0.52771688 </v>
    <v>       0.98675500       0.32859100       0.07437600 </v>
    <v>       0.32008800       0.32859100       0.07437600 </v>
    <v>       0.65342200       0.32859100       0.07437600 </v>
    <v>       0.98675500       0.66192500       0.07437600 </v>
    <v>       0.32008800       0.66192500       0.07437600 </v>
    <v>       0.65342200       0.66192500       0.07437600 </v>
    <v>       0.32008800       0.99525800       0.07437600 </v>
    <v>       0.65342200       0.99525800       0.07437600 </v>
    <v>       0.98675500       0.99525800       0.07437600 </v>
    <v>       0.20897700       0.10636900       0.17918600 </v>
    <v>       0.54231100       0.10636900       0.17918600 </v>
    <v>       0.87564400       0.10636900       0.17918600 </v>
    <v>       0.20897700       0.43970300       0.17918600 </v>
    <v>       0.54231100       0.43970300       0.17918600 </v>
    <v>       0.87564400       0.43970300       0.17918600 </v>
    <v>       0.20897700       0.77303600       0.17918600 </v>
    <v>       0.54231100       0.77303600       0.17918600 </v>
    <v>       0.87564400       0.77303600       0.17918600 </v>
    <v>       0.09843680       0.54744548       0.28412051 </v>
    <v>       0.42870876       0.88758209       0.28010852 </v>
    <v>       0.76207964       0.21724350       0.28671766 </v>
    <v>       0.09582253       0.22037501       0.28122327 </v>
    <v>       0.43056472       0.22082788       0.28157407 </v>
    <v>       0.09821226       0.88549267       0.28088488 </v>
    <v>       0.76250252       0.88555996       0.28002293 </v>
    <v>       0.43124511       0.55239248       0.28290382 </v>
    <v>       0.76118169       0.54839112       0.28200272 </v>
    <v>       0.32198262       0.66253526       0.38434285 </v>
    <v>       0.65254417       0.98975859       0.38574428 </v>
    <v>       0.32343760       0.32186279       0.38412390 </v>
    <v>       0.98543034       0.99284989       0.39111573 </v>
    <v>       0.32383421       0.99473822       0.38761668 </v>
    <v>       0.64015245       0.32451450       0.39671743 </v>
    <v>       0.99292820       0.67172650       0.38416876 </v>
    <v>       0.99222311       0.32413935       0.39120249 </v>
    <v>       0.65774632       0.66342760       0.38969381 </v>
   </varray>
  </structure>
  <varray name="forces" >
   <v>      -0.12055882      -1.66767607      -1.96643337 </v>
   <v>       0.34937855       0.14917672      -0.31407265 </v>
   <v>       0.14091385       0.50324664       1.04211385 </v>
   <v>      -0.01453069      -0.05310533       0.17361960 </v>
   <v>      -0.03100127      -0.06536717       0.13934035 </v>
   <v>      -0.03440109      -0.03704022       0.14527377 </v>
   <v>       0.03427018       0.06062007       0.11433696 </v>
   <v>      -0.01570575       0.01510424       0.21380748 </v>
   <v>       0.03461701      -0.01257355       0.16493549 </v>
   <v>      -0.00983894      -0.02085514       0.00587467 </v>
   <v>       0.02152204       0.03713090       0.12831997 </v>
   <v>       0.03580294      -0.02270659       0.02853235 </v>
   <v>      -0.04852178       0.00536413      -0.45215078 </v>
   <v>       0.18242562       0.17006333      -0.14412224 </v>
   <v>       0.01507563       0.18121714      -0.29846475 </v>
   <v>      -0.00637053       0.09193010      -0.25960039 </v>
   <v>      -0.02458524       0.10941038      -0.23664685 </v>
   <v>      -0.00270204      -0.09594151       0.17030532 </v>
   <v>      -0.18354147      -0.08029094      -0.38262886 </v>
   <v>      -0.09040399      -0.00714666      -0.39495719 </v>
   <v>       0.03978978       0.03549151      -0.44610708 </v>
   <v>      -0.33670822       0.27594256      -0.37498027 </v>
   <v>       0.16549770      -0.23081082       0.50934498 </v>
   <v>      -0.05474862       0.32524664      -0.39711535 </v>
   <v>      -0.25867283      -0.12665231       0.80030768 </v>
   <v>       0.26742596      -0.44324037       0.30370191 </v>
   <v>      -0.23400711       0.08596298       0.45000460 </v>
   <v>       0.19581780      -0.21653568       0.78378136 </v>
   <v>       0.19901326      -0.05103711      -0.02298148 </v>
   <v>       0.23534866      -0.02073060       0.32337085 </v>
   <v>       0.21586901       0.04036804       0.26177965 </v>
   <v>      -0.10516800      -0.11094629       0.05215322 </v>
   <v>      -0.43066818       0.35644286       0.21746077 </v>
   <v>       0.09161696      -0.01225312      -0.70723285 </v>
   <v>      -0.30479041      -0.09380727      -0.19237409 </v>
   <v>       0.14227633       0.53091935       0.32051302 </v>
   <v>       0.01127867      -0.04078704       0.11188283 </v>
   <v>      -0.02958970       0.05302342       0.69126034 </v>
   <v>      -0.04142526       0.38284277      -0.56215281 </v>
  </varray>
  <varray name="stress" >
   <v>     -42.97446754       1.35007581       1.10878662 </v>
   <v>       1.35007576     -44.78678602      -1.51558701 </v>
   <v>       1.10878677      -1.51558692      -4.41631013 </v>
  </varray>
  <energy>
   <i name="e_fr_energy">   -230.33403185 </i>
   <i name="e_wo_entrp">   -230.32949629 </i>
   <i name="e_0_energy">     -0.01360666 </i>
  </energy>
  <time name="totalsc">   93.07  102.09</time>
 </calculation>
 <calculation>
  <scstep>
   <time name="dav">   16.14   16.33</time>
   <time name="total">   17.19   17.52</time>
   <energy>
    <i name="alphaZ">    975.10247152 </i>
    <i name="ewald">  91345.53077981 </i>
    <i name="hartreedc">-120048.75917297 </i>
    <i name="XCdc">    178.36964785 </i>
    <i name="pawpsdc">  30101.12980282 </i>
    <i name="pawaedc"> -29187.15572367 </i>
    <i name="eentropy">     -0.02252255 </i>
    <i name="bandstr">   -854.55953925 </i>
    <i name="atom">  27259.89416086 </i>
    <i name="e_fr_energy">   -230.47009557 </i>
    <i name="e_wo_entrp">   -230.44757302 </i>
    <i name="e_0_energy">   -230.46258806 </i>
   </energy>
  </scstep>
  <scstep>
   <time name="diag">    2.56    2.57</time>
   <time name="diis">    6.43    6.47</time>
   <time name="orth">    0.46    0.47</time>
   <time name="total">   10.37   10.43</time>
   <energy>
    <i name="e_fr_energy">   -230.89886548 </i>
    <i name="e_wo_entrp">   -230.88570747 </i>
    <i name="e_0_energy">   -230.89447948 </i>
   </energy>
  </scstep>
  <scstep>
   <time name="diag">    2.08    2.09</time>
   <time name="diis">    5.29    5.32</time>
   <time name="orth">    0.34    0.34</time>
   <time name="total">    8.64    8.69</time>
   <energy>
    <i name="e_fr_energy">   -230.68493425 </i>
    <i name="e_wo_entrp">   -230.66139461 </i>
    <i name="e_0_energy">   -230.67708771 </i>
   </energy>
  </scstep>
  <scstep>
   <time name="diag">    2.23    2.24</time>
   <time name="diis">    5.41    5.44</time>
   <time name="orth">    0.40    0.40</time>
   <time name="total">    9.23    9.28</time>
   <energy>
    <i name="e_fr_energy">   -230.64430804 </i>
    <i name="e_wo_entrp">   -230.62030768 </i>
    <i name="e_0_energy">   -230.63630792 </i>
   </energy>
  </scstep>
  <scstep>
   <time name="diag">    2.15    2.16</time>
   <time name="diis">    5.40    5.43</time>
   <time name="orth">    0.38    0.38</time>
   <time name="total">    8.63    8.67</time>
   <energy>
    <i name="e_fr_energy">   -230.63599269 </i>
    <i name="e_wo_entrp">   -230.62240315 </i>
    <i name="e_0_energy">   -230.63146284 </i>
   </energy>
  </scstep>
  <scstep>
   <time name="diag">    2.08    2.09</time>
   <time name="diis">    5.29    5.32</time>
   <time name="orth">    0.33    0.33</time>
   <time name="total">    8.49    8.53</time>
   <energy>
    <i name="e_fr_energy">   -230.63582191 </i>
    <i name="e_wo_entrp">   -230.61293819 </i>
    <i name="e_0_energy">   -230.62819400 </i>
   </energy>
  </scstep>
  <scstep>
   <time name="diag">    2.18    2.20</time>
   <time name="diis">    6.09    6.12</time>
   <time name="orth">    0.45    0.45</time>
   <time name="total">   10.06   10.12</time>
   <energy>
    <i name="e_fr_energy">   -230.63200833 </i>
    <i name="e_wo_entrp">   -230.61451446 </i>
    <i name="e_0_energy">   -230.62617704 </i>
   </energy>
  </scstep>
  <scstep>
   <time name="diag">    2.13    2.14</time>
   <time name="diis">    5.14    5.17</time>
   <time name="orth">    0.39    0.39</time>
   <time name="total">    8.60    8.73</time>
   <energy>
    <i name="e_fr_energy">   -230.63023641 </i>
    <i name="e_wo_entrp">   -230.61117373 </i>
    <i name="e_0_energy">   -230.62388218 </i>
   </energy>
  </scstep>
  <scstep>
   <time name="diag">    1.97    1.98</time>
   <time name="diis">    5.18    5.21</time>
   <time name="orth">    0.42    0.42</time>
   <time name="total">    8.65    8.70</time>
   <energy>
    <i name="e_fr_energy">   -230.62979766 </i>
    <i name="e_wo_entrp">   -230.61106241 </i>
    <i name="e_0_energy">   -230.62355258 </i>
   </energy>
  </scstep>
  <scstep>
   <time name="diag">    2.32    2.33</time>
   <time name="diis">    3.88    3.90</time>
   <time name="orth">    0.35    0.35</time>
   <time name="total">    7.33    7.37</time>
   <energy>
    <i name="e_fr_energy">   -230.62959618 </i>
    <i name="e_wo_entrp">   -230.61083655 </i>
    <i name="e_0_energy">   -230.62334297 </i>
   </energy>
  </scstep>
  <scstep>
   <time name="diag">    1.77    1.78</time>
   <time name="diis">    4.01    4.04</time>
   <time name="orth">    0.30    0.30</time>
   <time name="total">    6.27    6.30</time>
   <energy>
    <i name="alphaZ">    975.10247152 </i>
    <i name="ewald">  91345.53077981 </i>
    <i name="hartreedc">-120046.28754382 </i>
    <i name="XCdc">    178.36366314 </i>
    <i name="pawpsdc">  30122.41379525 </i>
    <i name="pawaedc"> -29208.65866032 </i>
    <i name="eentropy">     -0.01862631 </i>
    <i name="bandstr">   -856.96961164 </i>
    <i name="atom">  27259.89416086 </i>
    <i name="e_fr_energy">   -230.62957151 </i>
    <i name="e_wo_entrp">   -230.61094520 </i>
    <i name="e_0_energy">   -230.62336274 </i>
   </energy>
  </scstep>
  <structure>
   <crystal>
    <varray name="basis" >
     <v>       7.29695512      -4.21289900       0.00000000 </v>
     <v>       0.00000000       8.42579800       0.00000000 </v>
     <v>       0.00000000       0.00000000      21.87963500 </v>
    </varray>
    <i name="volume">   1345.21837528 </i>
    <varray name="rec_basis" >
     <v>       0.13704346       0.00000000       0.00000000 </v>
     <v>       0.06852173       0.11868312       0.00000000 </v>
     <v>       0.00000000       0.00000000       0.04570460 </v>
    </varray>
   </crystal>
   <varray name="positions" >
    <v>       0.70147159       0.42433587       0.47740600 </v>
    <v>       0.90534065       0.38360437       0.46739957 </v>
    <v>       0.68164974       0.46714356       0.52662892 </v>
    <v>       0.98675500       0.32859100       0.07437600 </v>
    <v>       0.32008800       0.32859100       0.07437600 </v>
    <v>       0.65342200       0.32859100       0.07437600 </v>
    <v>       0.98675500       0.66192500       0.07437600 </v>
    <v>       0.32008800       0.66192500       0.07437600 </v>
    <v>       0.65342200       0.66192500       0.07437600 </v>
    <v>       0.32008800       0.99525800       0.07437600 </v>
    <v>       0.65342200       0.99525800       0.07437600 </v>
    <v>       0.98675500       0.99525800       0.07437600 </v>
    <v>       0.20897700       0.10636900       0.17918600 </v>
    <v>       0.54231100       0.10636900       0.17918600 </v>
    <v>       0.87564400       0.10636900       0.17918600 </v>
    <v>       0.20897700       0.43970300       0.17918600 </v>
    <v>       0.54231100       0.43970300       0.17918600 </v>
    <v>       0.87564400       0.43970300       0.17918600 </v>
    <v>       0.20897700       0.77303600       0.17918600 </v>
    <v>       0.54231100       0.77303600       0.17918600 </v>
    <v>       0.87564400       0.77303600       0.17918600 </v>
    <v>       0.09566678       0.54802671       0.28310325 </v>
    <v>       0.43003525       0.88671956       0.28147082 </v>
    <v>       0.76160074       0.21930230       0.28563068 </v>
    <v>       0.09373555       0.21834802       0.28334711 </v>
    <v>       0.43271455       0.21880962       0.28234085 </v>
    <v>       0.09627279       0.88512657       0.28210869 </v>
    <v>       0.76407221       0.88482774       0.28213371 </v>
    <v>       0.43294229       0.55294232       0.28285021 </v>
    <v>       0.76307829       0.54917654       0.28286210 </v>
    <v>       0.32379009       0.66374567       0.38503505 </v>
    <v>       0.65168779       0.98839565       0.38587504 </v>
    <v>       0.31997198       0.32254912       0.38468774 </v>
    <v>       0.98613823       0.99309334       0.38924151 </v>
    <v>       0.32139144       0.99285228       0.38709979 </v>
    <v>       0.64127222       0.32856794       0.39750855 </v>
    <v>       0.99300716       0.67155898       0.38444233 </v>
    <v>       0.99194190       0.32442751       0.39303484 </v>
    <v>       0.65747481       0.66587469       0.38826812 </v>
   </varray>
  </structure>
  <varray name="forces" >
   <v>      -0.12933505      -0.49355626       0.86805070 </v>
   <v>       0.32309536       0.31986019       0.34419457 </v>
   <v>       0.36768607      -0.30081271      -0.76446727 </v>
   <v>       0.00924866      -0.05310707       0.15379139 </v>
   <v>      -0.04025565      -0.05135163       0.14944033 </v>
   <v>      -0.03026321      -0.02446863       0.15672813 </v>
   <v>       0.03293477       0.05183826       0.10757716 </v>
   <v>      -0.01611731       0.01711671       0.15576367 </v>
   <v>       0.03090258      -0.00628752       0.15691099 </v>
   <v>      -0.00557150      -0.04025292       0.03145862 </v>
   <v>       0.01063568       0.02893513       0.12627860 </v>
   <v>       0.02885188      -0.00722294       0.04753030 </v>
   <v>      -0.06665301       0.04176462      -0.22973810 </v>
   <v>       0.10261409       0.09448299      -0.12802716 </v>
   <v>       0.03756150       0.06219031      -0.10475804 </v>
   <v>      -0.02599495      -0.01487491      -0.08308392 </v>
   <v>      -0.01703269       0.05374058      -0.12349636 </v>
   <v>      -0.05041646      -0.04443633       0.04611460 </v>
   <v>      -0.10815733       0.02577062      -0.24987421 </v>
   <v>       0.00905065       0.02805328      -0.21681154 </v>
   <v>       0.03509388       0.08601879      -0.31803253 </v>
   <v>       0.02651461      -0.00367874      -0.02548211 </v>
   <v>       0.03154525      -0.18006394       0.09199929 </v>
   <v>       0.07119156      -0.03443531      -0.04107799 </v>
   <v>      -0.06106403       0.15690496       0.24401899 </v>
   <v>       0.04746299      -0.07189813       0.23833193 </v>
   <v>       0.05641151      -0.03394867      -0.03068003 </v>
   <v>       0.03916031       0.00270549       0.07397875 </v>
   <v>      -0.10294586      -0.11472771      -0.04607686 </v>
   <v>       0.02009123      -0.00062174       0.09994443 </v>
   <v>      -0.05559025      -0.03104594       0.12238008 </v>
   <v>      -0.00316955       0.25113891       0.09877110 </v>
   <v>      -0.13436301       0.23091765       0.15167357 </v>
   <v>       0.05401241       0.04023113      -0.20910030 </v>
   <v>      -0.05092427       0.04535356      -0.01091643 </v>
   <v>      -0.39557393       0.08367418      -0.76517372 </v>
   <v>       0.02257524      -0.14049692       0.18280173 </v>
   <v>       0.03585825      -0.13820799       0.00885193 </v>
   <v>      -0.09907043       0.16479866      -0.30979430 </v>
  </varray>
  <varray name="stress" >
   <v>     -43.01847554       1.20159735       1.74907259 </v>
   <v>       1.20159730     -45.08183202      -1.57366749 </v>
   <v>       1.74907265      -1.57366744      -3.74032100 </v>
  </varray>
  <energy>
   <i name="e_fr_energy">   -230.62957151 </i>
   <i name="e_wo_entrp">   -230.62336274 </i>
   <i name="e_0_energy">     -0.01862631 </i>
  </energy>
  <time name="totalsc">  113.32  117.74</time>
 </calculation>
 <calculation>
  <scstep>
   <time name="dav">   15.13   16.40</time>
   <time name="total">   15.93   17.28</time>
   <energy>
    <i name="alphaZ">    975.10247152 </i>
    <i name="ewald">  91355.82762281 </i>
    <i name="hartreedc">-120056.39992741 </i>
    <i name="XCdc">    178.35594632 </i>
    <i name="pawpsdc">  30122.30323067 </i>
    <i name="pawaedc"> -29208.54960880 </i>
    <i name="eentropy">     -0.01624901 </i>
    <i name="bandstr">   -857.17908995 </i>
    <i name="atom">  27259.89416086 </i>
    <i name="e_fr_energy">   -230.66144299 </i>
    <i name="e_wo_entrp">   -230.64519398 </i>
    <i name="e_0_energy">   -230.65602665 </i>
   </energy>
  </scstep>
  <scstep>
   <time name="diag">    1.97    1.98</time>
   <time name="diis">    5.49    5.53</time>
   <time name="orth">    0.25    0.26</time>
   <time name="total">    8.52    8.58</time>
   <energy>
    <i name="e_fr_energy">   -230.67134437 </i>
    <i name="e_wo_entrp">   -230.64897756 </i>
    <i name="e_0_energy">   -230.66388877 </i>
   </energy>
  </scstep>
  <scstep>
   <time name="diag">    2.14    2.16</time>
   <time name="diis">    5.04    5.08</time>
   <time name="orth">    0.36    0.43</time>
   <time name="total">    8.37    8.49</time>
   <energy>
    <i name="e_fr_energy">   -230.66909960 </i>
    <i name="e_wo_entrp">   -230.65300906 </i>
    <i name="e_0_energy">   -230.66373609 </i>
   </energy>
  </scstep>
  <scstep>
   <time name="diag">    2.25    2.34</time>
   <time name="diis">    5.43    5.97</time>
   <time name="orth">    0.31    0.31</time>
   <time name="total">    8.74    9.38</time>
   <energy>
    <i name="e_fr_energy">   -230.66802292 </i>
    <i name="e_wo_entrp">   -230.65194891 </i>
    <i name="e_0_energy">   -230.66266492 </i>
   </energy>
  </scstep>
  <scstep>
   <time name="diag">    1.62    1.72</time>
   <time name="diis">    4.71    4.74</time>
   <time name="orth">    0.24    0.24</time>
   <time name="total">    7.62    7.76</time>
   <energy>
    <i name="e_fr_energy">   -230.66736453 </i>
    <i name="e_wo_entrp">   -230.64956962 </i>
    <i name="e_0_energy">   -230.66143289 </i>
   </energy>
  </scstep>
  <scstep>
   <time name="diag">    2.57    2.98</time>
   <time name="diis">    3.99    4.46</time>
   <time name="orth">    0.33    0.36</time>
   <time name="total">    7.63    8.62</time>
   <energy>
    <i name="e_fr_energy">   -230.66733710 </i>
    <i name="e_wo_entrp">   -230.65010591 </i>
    <i name="e_0_energy">   -230.66159337 </i>
   </energy>
  </scstep>
  <scstep>
   <time name="diag">    1.76    1.80</time>
   <time name="diis">    3.22    3.97</time>
   <time name="orth">    0.30    0.44</time>
   <time name="total">    5.96    7.12</time>
   <energy>
    <i name="e_fr_energy">   -230.66737124 </i>
    <i name="e_wo_entrp">   -230.64995555 </i>
    <i name="e_0_energy">   -230.66156601 </i>
   </energy>
  </scstep>
  <scstep>
   <time name="diag">    1.90    2.34</time>
   <time name="diis">    2.54    2.67</time>
   <time name="orth">    0.35    0.38</time>
   <time name="total">    5.10    5.90</time>
   <energy>
    <i name="alphaZ">    975.10247152 </i>
    <i name="ewald">  91355.82762281 </i>
    <i name="hartreedc">-120056.96744021 </i>
    <i name="XCdc">    178.36190450 </i>
    <i name="pawpsdc">  30115.85287993 </i>
    <i name="pawaedc"> -29202.05991485 </i>
    <i name="eentropy">     -0.01723174 </i>
    <i name="bandstr">   -856.66173412 </i>
    <i name="atom">  27259.89416086 </i>
    <i name="e_fr_energy">   -230.66728130 </i>
    <i name="e_wo_entrp">   -230.65004956 </i>
    <i name="e_0_energy">   -230.66153739 </i>
   </energy>
  </scstep>
  <structure>
   <crystal>
    <varray name="basis" >
     <v>       7.29695512      -4.21289900       0.00000000 </v>
     <v>       0.00000000       8.42579800       0.00000000 </v>
     <v>       0.00000000       0.00000000      21.87963500 </v>
    </varray>
    <i name="volume">   1345.21837528 </i>
    <varray name="rec_basis" >
     <v>       0.13704346       0.00000000       0.00000000 </v>
     <v>       0.06852173       0.11868312       0.00000000 </v>
     <v>       0.00000000       0.00000000       0.04570460 </v>
    </varray>
   </crystal>
   <varray name="positions" >
    <v>       0.70139711       0.42319477       0.47770401 </v>
    <v>       0.90606195       0.38456463       0.46770803 </v>
    <v>       0.68222095       0.46718153       0.52649530 </v>
    <v>       0.98675500       0.32859100       0.07437600 </v>
    <v>       0.32008800       0.32859100       0.07437600 </v>
    <v>       0.65342200       0.32859100       0.07437600 </v>
    <v>       0.98675500       0.66192500       0.07437600 </v>
    <v>       0.32008800       0.66192500       0.07437600 </v>
    <v>       0.65342200       0.66192500       0.07437600 </v>
    <v>       0.32008800       0.99525800       0.07437600 </v>
    <v>       0.65342200       0.99525800       0.07437600 </v>
    <v>       0.98675500       0.99525800       0.07437600 </v>
    <v>       0.20897700       0.10636900       0.17918600 </v>
    <v>       0.54231100       0.10636900       0.17918600 </v>
    <v>       0.87564400       0.10636900       0.17918600 </v>
    <v>       0.20897700       0.43970300       0.17918600 </v>
    <v>       0.54231100       0.43970300       0.17918600 </v>
    <v>       0.87564400       0.43970300       0.17918600 </v>
    <v>       0.20897700       0.77303600       0.17918600 </v>
    <v>       0.54231100       0.77303600       0.17918600 </v>
    <v>       0.87564400       0.77303600       0.17918600 </v>
    <v>       0.09585302       0.54802507       0.28312669 </v>
    <v>       0.43005590       0.88641088       0.28148782 </v>
    <v>       0.76179565       0.21922856       0.28564572 </v>
    <v>       0.09367720       0.21869686       0.28345587 </v>
    <v>       0.43273852       0.21880237       0.28250459 </v>
    <v>       0.09649545       0.88514166       0.28203114 </v>
    <v>       0.76410101       0.88491216       0.28210364 </v>
    <v>       0.43261390       0.55254621       0.28281473 </v>
    <v>       0.76304672       0.54916833       0.28290694 </v>
    <v>       0.32357338       0.66355722       0.38510502 </v>
    <v>       0.65171717       0.98898862       0.38594953 </v>
    <v>       0.31979510       0.32284584       0.38478755 </v>
    <v>       0.98624129       0.99323578       0.38915022 </v>
    <v>       0.32137058       0.99296500       0.38711278 </v>
    <v>       0.64028019       0.32812226       0.39687158 </v>
    <v>       0.99305926       0.67129354       0.38457994 </v>
    <v>       0.99204440       0.32416740       0.39296773 </v>
    <v>       0.65724190       0.66600157       0.38807100 </v>
   </varray>
  </structure>
  <varray name="forces" >
   <v>      -0.00799807      -0.82634298       0.02807095 </v>
   <v>       0.30836856       0.32976931       0.24428739 </v>
   <v>       0.26002490      -0.09689895      -0.22621575 </v>
   <v>       0.00901915      -0.05373249       0.15267385 </v>
   <v>      -0.03932394      -0.05364531       0.14955263 </v>
   <v>      -0.03019839      -0.02466989       0.15791641 </v>
   <v>       0.03155164       0.05316707       0.10905315 </v>
   <v>      -0.01295452       0.01748178       0.15598254 </v>
   <v>       0.03069410      -0.00579833       0.16096631 </v>
   <v>      -0.00429590      -0.04000787       0.02877028 </v>
   <v>       0.00890168       0.02843772       0.12926847 </v>
   <v>       0.02585871      -0.00685258       0.04416389 </v>
   <v>      -0.06106130       0.04752615      -0.21566303 </v>
   <v>       0.09988252       0.09513256      -0.11398565 </v>
   <v>       0.04111471       0.06227130      -0.09809488 </v>
   <v>      -0.02719700      -0.01719625      -0.08871869 </v>
   <v>      -0.01718732       0.04440186      -0.11727830 </v>
   <v>      -0.05250550      -0.04416101       0.05435066 </v>
   <v>      -0.10334043       0.02131063      -0.25329494 </v>
   <v>       0.00999798       0.02370914      -0.21984692 </v>
   <v>       0.03294834       0.08089490      -0.31486097 </v>
   <v>       0.00535262       0.01897886      -0.03253317 </v>
   <v>       0.03773765      -0.16206155       0.10097284 </v>
   <v>       0.05716146      -0.01857474      -0.06807386 </v>
   <v>      -0.05599652       0.11467341       0.21866136 </v>
   <v>       0.03903116      -0.08280895       0.19262300 </v>
   <v>       0.03502959      -0.02769683       0.01358657 </v>
   <v>       0.03674613      -0.01106491       0.08684786 </v>
   <v>      -0.07596392      -0.09592984      -0.04359385 </v>
   <v>       0.03793595       0.00325341       0.08699759 </v>
   <v>      -0.03529757      -0.01404920       0.11691646 </v>
   <v>      -0.01013953       0.22254281       0.09019457 </v>
   <v>      -0.13593535       0.22885759       0.15918435 </v>
   <v>       0.04362274       0.02285121      -0.20795032 </v>
   <v>      -0.07876306       0.02413289      -0.01720172 </v>
   <v>      -0.26903718       0.16419058      -0.45424790 </v>
   <v>       0.00735559      -0.13306332       0.16571593 </v>
   <v>      -0.04872431      -0.05319980       0.13435279 </v>
   <v>      -0.09241534       0.16417162      -0.30954992 </v>
  </varray>
  <varray name="stress" >
   <v>     -43.15859143       1.21450220       1.65737747 </v>
   <v>       1.21450228     -45.17904605      -1.53959680 </v>
   <v>       1.65737739      -1.53959673      -3.84847780 </v>
  </varray>
  <energy>
   <i name="e_fr_energy">   -230.66728130 </i>
   <i name="e_wo_entrp">   -230.66153739 </i>
   <i name="e_0_energy">     -0.01723174 </i>
  </energy>
  <time name="totalsc">   80.40   86.59</time>
 </calculation>
 <calculation>
  <scstep>
