metal                                   
           1
     7.296955   -4.212899    0.000000
     0.000000    8.425798    0.000000
     0.000000    0.000000   21.879635
   C    O    Pt
   1   2  36
Direct configuration=     1
   0.70516089  0.43833195  0.47907323
   0.90181480  0.38008211  0.46901272
   0.67702435  0.46518784  0.52896177
   0.98675500  0.32859100  0.07437600
   0.32008800  0.32859100  0.07437600
   0.65342200  0.32859100  0.07437600
   0.98675500  0.66192500  0.07437600
   0.32008800  0.66192500  0.07437600
   0.65342200  0.66192500  0.07437600
   0.32008800  0.99525800  0.07437600
   0.65342200  0.99525800  0.07437600
   0.98675500  0.99525800  0.07437600
   0.20897700  0.10636900  0.17918600
   0.54231100  0.10636900  0.17918600
   0.87564400  0.10636900  0.17918600
   0.20897700  0.43970300  0.17918600
   0.54231100  0.43970300  0.17918600
   0.87564400  0.43970300  0.17918600
   0.20897700  0.77303600  0.17918600
   0.54231100  0.77303600  0.17918600
   0.87564400  0.77303600  0.17918600
   0.10070038  0.54695992  0.28491569
   0.42772474  0.88794690  0.27914152
   0.76258884  0.21568001  0.28756967
   0.09729777  0.22217636  0.27979383
   0.42902333  0.22229471  0.28117827
   0.09978326  0.88581760  0.27993506
   0.76146256  0.88622251  0.27848941
   0.42963284  0.55160428  0.28293156
   0.75978741  0.54783991  0.28141572
   0.32047454  0.66148133  0.38385787
   0.65316663  0.99121861  0.38567329
   0.32590569  0.32155927  0.38376463
   0.98503370  0.99284831  0.39234675
   0.32572832  0.99632599  0.38799664
   0.63859013  0.32124093  0.39581258
   0.99291976  0.67164223  0.38407882
   0.99251774  0.32377678  0.38981244
   0.65774582  0.66185049  0.39053001
Direct configuration=     2
   0.70448905  0.43439903  0.47786897
   0.90258423  0.38078243  0.46839248
   0.67779265  0.46598868  0.52892986
   0.98675500  0.32859100  0.07437600
   0.32008800  0.32859100  0.07437600
   0.65342200  0.32859100  0.07437600
   0.98675500  0.66192500  0.07437600
   0.32008800  0.66192500  0.07437600
   0.65342200  0.66192500  0.07437600
   0.32008800  0.99525800  0.07437600
   0.65342200  0.99525800  0.07437600
   0.98675500  0.99525800  0.07437600
   0.20897700  0.10636900  0.17918600
   0.54231100  0.10636900  0.17918600
   0.87564400  0.10636900  0.17918600
   0.20897700  0.43970300  0.17918600
   0.54231100  0.43970300  0.17918600
   0.87564400  0.43970300  0.17918600
   0.20897700  0.77303600  0.17918600
   0.54231100  0.77303600  0.17918600
   0.87564400  0.77303600  0.17918600
   0.09900508  0.54732617  0.28432631
   0.42844540  0.88773367  0.27983785
   0.76218504  0.21682947  0.28694002
   0.09624038  0.22080606  0.28080560
   0.43013626  0.22123200  0.28143342
   0.09861375  0.88557178  0.28063652
   0.76219083  0.88570892  0.27959984
   0.43088190  0.55225589  0.28291246
   0.76080252  0.54823875  0.28183340
   0.32160390  0.66227820  0.38420737
   0.65271766  0.99007329  0.38572054
   0.32412917  0.32174247  0.38401645
   0.98529661  0.99281151  0.39148364
   0.32431914  0.99511607  0.38771998
   0.63993544  0.32376175  0.39657726
   0.99291547  0.67174165  0.38412101
   0.99229027  0.32407218  0.39084268
   0.65778465  0.66295318  0.38995705
Direct configuration=     3
   0.70371497  0.43337961  0.47865323
   0.90295235  0.38123553  0.46822997
   0.67880081  0.46563296  0.52771688
   0.98675500  0.32859100  0.07437600
   0.32008800  0.32859100  0.07437600
   0.65342200  0.32859100  0.07437600
   0.98675500  0.66192500  0.07437600
   0.32008800  0.66192500  0.07437600
   0.65342200  0.66192500  0.07437600
   0.32008800  0.99525800  0.07437600
   0.65342200  0.99525800  0.07437600
   0.98675500  0.99525800  0.07437600
   0.20897700  0.10636900  0.17918600
   0.54231100  0.10636900  0.17918600
   0.87564400  0.10636900  0.17918600
   0.20897700  0.43970300  0.17918600
   0.54231100  0.43970300  0.17918600
   0.87564400  0.43970300  0.17918600
   0.20897700  0.77303600  0.17918600
   0.54231100  0.77303600  0.17918600
   0.87564400  0.77303600  0.17918600
   0.09843680  0.54744548  0.28412051
   0.42870876  0.88758209  0.28010852
   0.76207964  0.21724350  0.28671766
   0.09582253  0.22037501  0.28122327
   0.43056472  0.22082788  0.28157407
   0.09821226  0.88549267  0.28088488
   0.76250252  0.88555996  0.28002293
   0.43124511  0.55239248  0.28290382
   0.76118169  0.54839112  0.28200272
   0.32198262  0.66253526  0.38434285
   0.65254417  0.98975859  0.38574428
   0.32343760  0.32186279  0.38412390
   0.98543034  0.99284989  0.39111573
   0.32383421  0.99473822  0.38761668
   0.64015245  0.32451450  0.39671743
   0.99292820  0.67172650  0.38416876
   0.99222311  0.32413935  0.39120249
   0.65774632  0.66342760  0.38969381
Direct configuration=     4
   0.70147159  0.42433587  0.47740600
   0.90534065  0.38360437  0.46739957
   0.68164974  0.46714356  0.52662892
   0.98675500  0.32859100  0.07437600
   0.32008800  0.32859100  0.07437600
   0.65342200  0.32859100  0.07437600
   0.98675500  0.66192500  0.07437600
   0.32008800  0.66192500  0.07437600
   0.65342200  0.66192500  0.07437600
   0.32008800  0.99525800  0.07437600
   0.65342200  0.99525800  0.07437600
   0.98675500  0.99525800  0.07437600
   0.20897700  0.10636900  0.17918600
   0.54231100  0.10636900  0.17918600
   0.87564400  0.10636900  0.17918600
   0.20897700  0.43970300  0.17918600
   0.54231100  0.43970300  0.17918600
   0.87564400  0.43970300  0.17918600
   0.20897700  0.77303600  0.17918600
   0.54231100  0.77303600  0.17918600
   0.87564400  0.77303600  0.17918600
   0.09566678  0.54802671  0.28310325
   0.43003525  0.88671956  0.28147082
   0.76160074  0.21930230  0.28563068
   0.09373555  0.21834802  0.28334711
   0.43271455  0.21880962  0.28234085
   0.09627279  0.88512657  0.28210869
   0.76407221  0.88482774  0.28213371
   0.43294229  0.55294232  0.28285021
   0.76307829  0.54917654  0.28286210
   0.32379009  0.66374567  0.38503505
   0.65168779  0.98839565  0.38587504
   0.31997198  0.32254912  0.38468774
   0.98613823  0.99309334  0.38924151
   0.32139144  0.99285228  0.38709979
   0.64127222  0.32856794  0.39750855
   0.99300716  0.67155898  0.38444233
   0.99194190  0.32442751  0.39303484
   0.65747481  0.66587469  0.38826812
Direct configuration=     5
   0.70139711  0.42319477  0.47770401
   0.90606195  0.38456463  0.46770803
   0.68222095  0.46718153  0.52649530
   0.98675500  0.32859100  0.07437600
   0.32008800  0.32859100  0.07437600
   0.65342200  0.32859100  0.07437600
   0.98675500  0.66192500  0.07437600
   0.32008800  0.66192500  0.07437600
   0.65342200  0.66192500  0.07437600
   0.32008800  0.99525800  0.07437600
   0.65342200  0.99525800  0.07437600
   0.98675500  0.99525800  0.07437600
   0.20897700  0.10636900  0.17918600
   0.54231100  0.10636900  0.17918600
   0.87564400  0.10636900  0.17918600
   0.20897700  0.43970300  0.17918600
   0.54231100  0.43970300  0.17918600
   0.87564400  0.43970300  0.17918600
   0.20897700  0.77303600  0.17918600
   0.54231100  0.77303600  0.17918600
   0.87564400  0.77303600  0.17918600
   0.09585302  0.54802507  0.28312669
   0.43005590  0.88641088  0.28148782
   0.76179565  0.21922856  0.28564572
   0.09367720  0.21869686  0.28345587
   0.43273852  0.21880237  0.28250459
   0.09649545  0.88514166  0.28203114
   0.76410101  0.88491216  0.28210364
   0.43261390  0.55254621  0.28281473
   0.76304672  0.54916833  0.28290694
   0.32357338  0.66355722  0.38510502
   0.65171717  0.98898862  0.38594953
   0.31979510  0.32284584  0.38478755
   0.98624129  0.99323578  0.38915022
   0.32137058  0.99296500  0.38711278
   0.64028019  0.32812226  0.39687158
   0.99305926  0.67129354  0.38457994
   0.99204440  0.32416740  0.39296773
   0.65724190  0.66600157  0.38807100
