       N       E                     dE             d eps       ncg     rms          rms(c)
DAV:   1     0.242249172208E+04    0.24225E+04   -0.15954E+05  1824   0.129E+03
DAV:   2    -0.622530867305E+02   -0.24847E+04   -0.23099E+04  2112   0.286E+02
DAV:   3    -0.241055716002E+03   -0.17880E+03   -0.16208E+03  2168   0.691E+01
DAV:   4    -0.248803344409E+03   -0.77476E+01   -0.74788E+01  2344   0.138E+01
DAV:   5    -0.249040540217E+03   -0.23720E+00   -0.23453E+00  2456   0.243E+00    0.276E+01
RMM:   6    -0.247014213766E+03    0.20263E+01   -0.55624E+01  1829   0.149E+01    0.307E+01
RMM:   7    -0.241098375570E+03    0.59158E+01   -0.33619E+01  1830   0.914E+00    0.195E+01
RMM:   8    -0.245906120360E+03   -0.48077E+01   -0.92650E+00  1826   0.473E+00    0.236E+01
RMM:   9    -0.231785643726E+03    0.14120E+02   -0.43262E+00  1831   0.338E+00    0.844E+00
RMM:  10    -0.230761118812E+03    0.10245E+01   -0.13521E+00  1831   0.187E+00    0.521E+00
RMM:  11    -0.230340103739E+03    0.42102E+00   -0.43699E-01  1831   0.103E+00    0.310E+00
RMM:  12    -0.230205631650E+03    0.13447E+00   -0.18804E-01  1839   0.672E-01    0.210E+00
RMM:  13    -0.230189622986E+03    0.16009E-01   -0.12326E-01  1831   0.589E-01    0.181E+00
RMM:  14    -0.230151621211E+03    0.38002E-01   -0.91061E-02  1832   0.526E-01    0.923E-01
RMM:  15    -0.230146017320E+03    0.56039E-02   -0.36300E-02  1831   0.328E-01    0.733E-01
RMM:  16    -0.230138813332E+03    0.72040E-02   -0.11050E-02  1831   0.177E-01    0.330E-01
RMM:  17    -0.230137647433E+03    0.11659E-02   -0.25327E-03  1821   0.868E-02    0.177E-01
RMM:  18    -0.230138062484E+03   -0.41505E-03   -0.11131E-03  1814   0.572E-02    0.140E-01
RMM:  19    -0.230138227656E+03   -0.16517E-03   -0.49367E-04  1478   0.389E-02    0.920E-02
RMM:  20    -0.230138390246E+03   -0.16259E-03   -0.16903E-04  1031   0.238E-02    0.472E-02
RMM:  21    -0.230138601617E+03   -0.21137E-03   -0.76772E-05  1005   0.157E-02    0.303E-02
RMM:  22    -0.230138797683E+03   -0.19607E-03   -0.41129E-05   984   0.107E-02    0.237E-02
RMM:  23    -0.230139057133E+03   -0.25945E-03   -0.41891E-05   985   0.988E-03    0.205E-02
RMM:  24    -0.230139278988E+03   -0.22186E-03   -0.34851E-05   932   0.872E-03    0.164E-02
RMM:  25    -0.230139500978E+03   -0.22199E-03   -0.30724E-05   845   0.783E-03    0.957E-03
RMM:  26    -0.230139671751E+03   -0.17077E-03   -0.19173E-05   663   0.630E-03    0.113E-02
RMM:  27    -0.230139859314E+03   -0.18756E-03   -0.22657E-05   752   0.646E-03    0.547E-03
RMM:  28    -0.230139920697E+03   -0.61384E-04   -0.59727E-06   350   0.426E-03
   1 F= -.23013992E+03 E0= -.23013283E+03  d E =-.230140E+03
       N       E                     dE             d eps       ncg     rms          rms(c)
DAV:   1    -0.230331944733E+03   -0.19209E+00   -0.26567E+01  1836   0.967E+00    0.625E-01
RMM:   2    -0.230393295169E+03   -0.61350E-01   -0.52656E-01  1839   0.150E+00    0.117E+00
RMM:   3    -0.230382994510E+03    0.10301E-01   -0.34496E-02  1882   0.327E-01    0.718E-01
RMM:   4    -0.230379124779E+03    0.38697E-02   -0.73693E-03  1870   0.143E-01    0.561E-01
RMM:   5    -0.230374906160E+03    0.42186E-02   -0.31254E-03  1836   0.914E-02    0.345E-01
RMM:   6    -0.230374309699E+03    0.59646E-03   -0.32556E-03  1833   0.955E-02    0.245E-01
RMM:   7    -0.230374160232E+03    0.14947E-03   -0.41561E-03  1829   0.110E-01    0.186E-01
RMM:   8    -0.230373605002E+03    0.55523E-03   -0.98706E-04  1812   0.542E-02    0.764E-02
RMM:   9    -0.230373521345E+03    0.83657E-04   -0.15231E-04   998   0.226E-02
   2 F= -.23037352E+03 E0= -.23036686E+03  d E =-.233601E+00
       N       E                     dE             d eps       ncg     rms          rms(c)
DAV:   1    -0.230481394542E+03   -0.10779E+00   -0.50468E+01  1824   0.133E+01    0.897E-01
RMM:   2    -0.230618000189E+03   -0.13661E+00   -0.10442E+00  1833   0.210E+00    0.192E+00
RMM:   3    -0.230586017960E+03    0.31982E-01   -0.64808E-02  1867   0.448E-01    0.119E+00
RMM:   4    -0.230568413580E+03    0.17604E-01   -0.16344E-02  1850   0.217E-01    0.665E-01
RMM:   5    -0.230562993784E+03    0.54198E-02   -0.66238E-03  1832   0.136E-01    0.506E-01
RMM:   6    -0.230562019580E+03    0.97420E-03   -0.10237E-02  1830   0.172E-01    0.398E-01
RMM:   7    -0.230560355312E+03    0.16643E-02   -0.80768E-03  1830   0.154E-01    0.262E-01
RMM:   8    -0.230559221791E+03    0.11335E-02   -0.19811E-03  1823   0.763E-02    0.115E-01
RMM:   9    -0.230559041441E+03    0.18035E-03   -0.34225E-04  1212   0.328E-02    0.703E-02
RMM:  10    -0.230558965440E+03    0.76001E-04   -0.13878E-04   975   0.232E-02
   3 F= -.23055897E+03 E0= -.23055288E+03  d E =-.185444E+00
       N       E                     dE             d eps       ncg     rms          rms(c)
DAV:   1    -0.230641421124E+03   -0.82380E-01   -0.13984E+01  1824   0.705E+00    0.580E-01
RMM:   2    -0.230680823523E+03   -0.39402E-01   -0.34093E-01  1835   0.115E+00    0.971E-01
RMM:   3    -0.230674172090E+03    0.66514E-02   -0.18539E-02  1875   0.237E-01    0.698E-01
RMM:   4    -0.230668970179E+03    0.52019E-02   -0.52361E-03  1853   0.121E-01    0.436E-01
RMM:   5    -0.230666714731E+03    0.22554E-02   -0.40107E-03  1835   0.105E-01    0.308E-01
RMM:   6    -0.230666821131E+03   -0.10640E-03   -0.51667E-03  1829   0.121E-01    0.285E-01
RMM:   7    -0.230665455323E+03    0.13658E-02   -0.21794E-03  1824   0.792E-02    0.115E-01
RMM:   8    -0.230665323936E+03    0.13139E-03   -0.49296E-04  1473   0.383E-02    0.778E-02
RMM:   9    -0.230665246056E+03    0.77880E-04   -0.11400E-04   975   0.207E-02
   4 F= -.23066525E+03 E0= -.23065953E+03  d E =-.106281E+00
       N       E                     dE             d eps       ncg     rms          rms(c)
DAV:   1    -0.230725675549E+03   -0.60352E-01   -0.14341E+01  1824   0.770E+00    0.630E-01
RMM:   2    -0.230762276353E+03   -0.36601E-01   -0.34517E-01  1844   0.109E+00    0.713E-01
RMM:   3    -0.230768002466E+03   -0.57261E-02   -0.22152E-02  1864   0.252E-01    0.981E-01
RMM:   4    -0.230757057642E+03    0.10945E-01   -0.70475E-03  1841   0.138E-01    0.529E-01
RMM:   5    -0.230753198983E+03    0.38587E-02   -0.29856E-03  1836   0.916E-02    0.249E-01
RMM:   6    -0.230753312232E+03   -0.11325E-03   -0.23753E-03  1827   0.813E-02    0.206E-01
RMM:   7    -0.230753261548E+03    0.50684E-04   -0.17933E-03  1824   0.723E-02    0.146E-01
RMM:   8    -0.230752937108E+03    0.32444E-03   -0.50140E-04  1495   0.389E-02    0.544E-02
RMM:   9    -0.230752911057E+03    0.26052E-04   -0.10269E-04   964   0.189E-02
   5 F= -.23075291E+03 E0= -.23074831E+03  d E =-.876650E-01
       N       E                     dE             d eps       ncg     rms          rms(c)
