 vasp.5.4.4 16052018 (build Apr 24 2014 20:13:14) complex standard
 Contain Constrained Minimization Technique (TS), Periodic NBO, VASPsol, libbeef, VASP2WANNIER90, Constrained Cell Relaxation
 executed on Center for Computational Chemistry by phu@node06 date 2025.09.27 23:23:51
 running on    8 total cores
 distrk:  each k-point on    8 cores,    1 groups
 distr:  one band on NCORES_PER_BAND=   2 cores,    4 groups


--------------------------------------------------------------------------------------------------------


 INCAR:
 POTCAR:   PAW_PBE C 08Apr2002                    
 POTCAR:   PAW_PBE O 08Apr2002                    
 POTCAR:    PAW_PBE Pt 04Feb2005                  
 POTCAR:   PAW_PBE C 08Apr2002                    
   VRHFIN =C: s2p2                                                              
   LEXCH  = PE                                                                  
   EATOM  =   147.1560 eV,   10.8157 Ry                                         
                                                                                
   TITEL  = PAW_PBE C 08Apr2002                                                 
   LULTRA =        F    use ultrasoft PP ?                                      
   IUNSCR =        0    unscreen: 0-lin 1-nonlin 2-no                           
   RPACOR =     .000    partial core radius                                     
   POMASS =   12.011; ZVAL   =    4.000    mass and valenz                      
   RCORE  =    1.500    outmost cutoff radius                                   
   RWIGS  =    1.630; RWIGS  =     .863    wigner-seitz radius (au A)           
   ENMAX  =  400.000; ENMIN  =  300.000 eV                                      
   ICORE  =        2    local potential                                         
   LCOR   =        T    correct aug charges                                     
   LPAW   =        T    paw PP                                                  
   EAUG   =  644.873                                                            
   DEXC   =     .000                                                            
   RMAX   =    2.266    core radius for proj-oper                               
   RAUG   =    1.300    factor for augmentation sphere                          
   RDEP   =    1.501    radius for radial grids                                 
   RDEPT  =    1.300    core radius for aug-charge                              
   QCUT   =   -5.516; QGAM   =   11.032    optimization parameters              
                                                                                
   Description                                                                  
     l     E      TYP  RCUT    TYP  RCUT                                        
     0   .000     23  1.200                                                     
     0   .000     23  1.200                                                     
     1   .000     23  1.500                                                     
     1  2.500     23  1.500                                                     
     2   .000      7  1.500                                                     
  local pseudopotential read in
  atomic valenz-charges read in
  non local Contribution for L=           0  read in
    real space projection operators read in
  non local Contribution for L=           0  read in
    real space projection operators read in
  non local Contribution for L=           1  read in
    real space projection operators read in
  non local Contribution for L=           1  read in
    real space projection operators read in
    PAW grid and wavefunctions read in
 
   number of l-projection  operators is LMAX  =           4
   number of lm-projection operators is LMMAX =           8
 
 POTCAR:   PAW_PBE O 08Apr2002                    
   VRHFIN =O: s2p4                                                              
   LEXCH  = PE                                                                  
   EATOM  =   432.3788 eV,   31.7789 Ry                                         
                                                                                
   TITEL  = PAW_PBE O 08Apr2002                                                 
   LULTRA =        F    use ultrasoft PP ?                                      
   IUNSCR =        0    unscreen: 0-lin 1-nonlin 2-no                           
   RPACOR =     .000    partial core radius                                     
   POMASS =   16.000; ZVAL   =    6.000    mass and valenz                      
   RCORE  =    1.520    outmost cutoff radius                                   
   RWIGS  =    1.550; RWIGS  =     .820    wigner-seitz radius (au A)           
   ENMAX  =  400.000; ENMIN  =  300.000 eV                                      
   ICORE  =        2    local potential                                         
   LCOR   =        T    correct aug charges                                     
   LPAW   =        T    paw PP                                                  
   EAUG   =  605.392                                                            
   DEXC   =     .000                                                            
   RMAX   =    2.264    core radius for proj-oper                               
   RAUG   =    1.300    factor for augmentation sphere                          
   RDEP   =    1.550    radius for radial grids                                 
   QCUT   =   -5.520; QGAM   =   11.041    optimization parameters              
                                                                                
   Description                                                                  
     l     E      TYP  RCUT    TYP  RCUT                                        
     0   .000     23  1.200                                                     
     0  -.700     23  1.200                                                     
     1   .000     23  1.520                                                     
     1   .600     23  1.520                                                     
     2   .000      7  1.500                                                     
  local pseudopotential read in
  atomic valenz-charges read in
  non local Contribution for L=           0  read in
    real space projection operators read in
  non local Contribution for L=           0  read in
    real space projection operators read in
  non local Contribution for L=           1  read in
    real space projection operators read in
  non local Contribution for L=           1  read in
    real space projection operators read in
    PAW grid and wavefunctions read in
 
   number of l-projection  operators is LMAX  =           4
   number of lm-projection operators is LMMAX =           8
 
 POTCAR:    PAW_PBE Pt 04Feb2005                  
   VRHFIN =Pt: s1d9                                                             
   LEXCH  = PE                                                                  
   EATOM  =   729.1182 eV,   53.5887 Ry                                         
                                                                                
   TITEL  = PAW_PBE Pt 04Feb2005                                                
   LULTRA =        F    use ultrasoft PP ?                                      
   IUNSCR =        1    unscreen: 0-lin 1-nonlin 2-no                           
   RPACOR =    2.330    partial core radius                                     
   POMASS =  195.080; ZVAL   =   10.000    mass and valenz                      
   RCORE  =    2.600    outmost cutoff radius                                   
   RWIGS  =    2.750; RWIGS  =    1.455    wigner-seitz radius (au A)           
   ENMAX  =  230.283; ENMIN  =  172.712 eV                                      
   ICORE  =        3    local potential                                         
   LCOR   =        T    correct aug charges                                     
   LPAW   =        T    paw PP                                                  
   EAUG   =  358.966                                                            
   DEXC   =     .000                                                            
   RMAX   =    3.038    core radius for proj-oper                               
   RAUG   =    1.300    factor for augmentation sphere                          
   RDEP   =    2.761    radius for radial grids                                 
   QCUT   =   -4.114; QGAM   =    8.228    optimization parameters              
                                                                                
   Description                                                                  
     l     E      TYP  RCUT    TYP  RCUT                                        
     2   .000     23  2.500                                                     
     2   .000     23  2.500                                                     
     0   .000     23  2.500                                                     
     0   .000     23  2.500                                                     
     1  -.200     23  2.600                                                     
     1  1.500     23  2.600                                                     
     3   .000     23  2.500                                                     
  local pseudopotential read in
  partial core-charges read in
  atomic valenz-charges read in
  non local Contribution for L=           2  read in
    real space projection operators read in
  non local Contribution for L=           2  read in
    real space projection operators read in
  non local Contribution for L=           0  read in
    real space projection operators read in
  non local Contribution for L=           0  read in
    real space projection operators read in
  non local Contribution for L=           1  read in
    real space projection operators read in
  non local Contribution for L=           1  read in
    real space projection operators read in
    PAW grid and wavefunctions read in
 
   number of l-projection  operators is LMAX  =           6
   number of lm-projection operators is LMMAX =          18
 
 Optimization of the real space projectors (new method)

 maximal supplied QI-value         = 25.13
 optimisation between [QCUT,QGAM] = [ 10.81, 21.61] = [ 32.71,130.83] Ry 
 Optimized for a Real-space Cutoff    1.23 Angstroem

   l    n(q)    QCUT    max X(q) W(low)/X(q) W(high)/X(q)  e(spline) 
   0      8    10.807     5.582    0.53E-04    0.84E-04    0.44E-07
   0      8    10.807    69.432    0.35E-03    0.71E-03    0.24E-06
   1      7    10.807     2.780    0.44E-04    0.88E-04    0.89E-07
   1      7    10.807     4.549    0.14E-03    0.28E-03    0.13E-06
 Optimization of the real space projectors (new method)

 maximal supplied QI-value         = 24.76
 optimisation between [QCUT,QGAM] = [ 10.64, 21.54] = [ 31.73,129.89] Ry 
 Optimized for a Real-space Cutoff    1.23 Angstroem

   l    n(q)    QCUT    max X(q) W(low)/X(q) W(high)/X(q)  e(spline) 
   0      8    10.645     4.192    0.69E-04    0.93E-04    0.58E-07
   0      8    10.645     8.473    0.40E-03    0.65E-03    0.17E-06
   1      7    10.645     2.474    0.80E-04    0.12E-03    0.30E-07
   1      7    10.645     3.912    0.24E-03    0.53E-03    0.16E-06
 Optimization of the real space projectors (new method)

 maximal supplied QI-value         = 14.36
 optimisation between [QCUT,QGAM] = [ 10.77, 21.69] = [ 32.49,131.70] Ry 
 Optimized for a Real-space Cutoff    1.46 Angstroem

   l    n(q)    QCUT    max X(q) W(low)/X(q) W(high)/X(q)  e(spline) 
   2      9    10.771     3.903    0.38E-04    0.12E-03    0.82E-07
   2      9    10.771    18.372    0.13E-03    0.32E-03    0.28E-06
   0     10    10.771    13.697    0.11E-04    0.86E-05    0.85E-08
   0     10    10.771    65.529    0.40E-04    0.12E-03    0.14E-06
   1      9    10.771     7.604    0.48E-04    0.31E-04    0.38E-07
   1      9    10.771    12.136    0.35E-03    0.16E-03    0.23E-06
 PAW_PBE C 08Apr2002                    :
 energy of atom  1       EATOM= -147.1560
 kinetic energy error for atom=    0.0116 (will be added to EATOM!!)
 PAW_PBE O 08Apr2002                    :
 energy of atom  2       EATOM= -432.3788
 kinetic energy error for atom=    0.0389 (will be added to EATOM!!)
  PAW_PBE Pt 04Feb2005                  :
 energy of atom  3       EATOM= -729.1182
 kinetic energy error for atom=    0.0051 (will be added to EATOM!!)
 
 
 POSCAR: C    O    Pt                            
  positions in direct lattice
  No initial velocities read in
 exchange correlation table for  LEXCH =        8
   RHO(1)=    0.500       N(1)  =     2000
   RHO(2)=  100.500       N(2)  =     4000

 VTST: version 3.2, (02/03/18)

 CHAIN: initializing optimizer
 
 OPT: Using VASP QUASI-newton optimizer
 CHAIN: Read ICHAIN            0
 
 POSCAR: C    O    Pt                            
  positions in direct lattice
  No initial velocities read in
 


--------------------------------------------------------------------------------------------------------


 ion  position               nearest neighbor table
   1  0.703  0.436  0.473-   3 1.16  36 1.87   2 1.95
   2  0.904  0.385  0.469-   1 1.95  38 2.08  36 2.58
   3  0.675  0.463  0.523-   1 1.16
   4  0.987  0.329  0.074-  15 2.81  16 2.81  12 2.81   5 2.81  11 2.81   6 2.81  18 2.81   8 2.81
                             7 2.81
   5  0.320  0.329  0.074-  13 2.81  10 2.81   4 2.81  12 2.81  16 2.81  17 2.81   8 2.81   9 2.81
                             6 2.81
   6  0.653  0.329  0.074-  14 2.81  18 2.81  11 2.81   4 2.81  17 2.81   7 2.81  10 2.81   9 2.81
                             5 2.81
   7  0.987  0.662  0.074-  18 2.81  21 2.81  19 2.81  12 2.81   8 2.81  10 2.81   9 2.81   6 2.81
                             4 2.81
   8  0.320  0.662  0.074-  16 2.81  19 2.81  10 2.81   7 2.81  20 2.81   4 2.81  11 2.81   5 2.81
                             9 2.81
   9  0.653  0.662  0.074-  17 2.81  20 2.81  21 2.81  11 2.81  12 2.81   7 2.81   6 2.81   5 2.81
                             8 2.81
  10  0.320  0.995  0.074-  13 2.81  19 2.81   5 2.81   8 2.81  12 2.81   7 2.81  14 2.81   6 2.81
                            11 2.81
  11  0.653  0.995  0.074-  14 2.81  20 2.81  15 2.81   9 2.81   6 2.81  12 2.81   4 2.81   8 2.81
                            10 2.81
  12  0.987  0.995  0.074-  15 2.81  21 2.81  13 2.81   7 2.81   4 2.81  10 2.81   5 2.81  11 2.81
                             9 2.81
  13  0.209  0.106  0.179-  26 2.80  10 2.81   5 2.81  12 2.81  19 2.81  15 2.81  21 2.81  16 2.81
                            17 2.81  14 2.81  27 2.85  25 2.88
  14  0.542  0.106  0.179-  26 2.77  11 2.81   6 2.81  20 2.81  15 2.81  10 2.81  18 2.81  19 2.81
                            17 2.81  13 2.81  23 2.81  24 2.87
  15  0.876  0.106  0.179-  28 2.76  12 2.81   4 2.81  11 2.81  21 2.81  13 2.81  14 2.81  20 2.81
                            16 2.81  18 2.81  25 2.85  24 2.90
  16  0.209  0.440  0.179-  22 2.71  29 2.73   8 2.81   4 2.81  19 2.81  18 2.81   5 2.81  15 2.81
                            20 2.81  13 2.81  17 2.81  25 2.85
  17  0.542  0.440  0.179-  26 2.75  29 2.77  30 2.78   9 2.81  20 2.81  21 2.81  18 2.81   6 2.81
                             5 2.81  14 2.81  13 2.81  16 2.81
  18  0.876  0.440  0.179-  22 2.72  30 2.76   7 2.81   6 2.81  21 2.81  19 2.81  16 2.81  17 2.81
                             4 2.81  14 2.81  15 2.81  24 2.87
  19  0.209  0.773  0.179-  22 2.72  23 2.78   8 2.81  10 2.81   7 2.81  16 2.81  13 2.81  18 2.81
                            21 2.81  14 2.81  20 2.81  27 2.83
  20  0.542  0.773  0.179-  29 2.72  28 2.75  23 2.79  11 2.81   9 2.81  17 2.81  14 2.81  21 2.81
                            15 2.81   8 2.81  16 2.81  19 2.81
  21  0.876  0.773  0.179-  28 2.73  30 2.76   7 2.81  12 2.81   9 2.81  18 2.81  15 2.81  19 2.81
                            13 2.81  17 2.81  20 2.81  27 2.85
  22  0.100  0.551  0.279-  16 2.71  19 2.72  18 2.72  29 2.76  23 2.77  25 2.78  27 2.80  30 2.80
                            37 2.82  24 2.82  31 2.87  38 2.94
  23  0.428  0.880  0.283-  29 2.74  35 2.75  22 2.77  27 2.78  19 2.78  31 2.78  20 2.79  14 2.81
                            32 2.82  28 2.83  24 2.85  26 2.85
  24  0.763  0.220  0.288-  26 2.76  32 2.78  30 2.78  38 2.80  25 2.81  22 2.82  23 2.85  18 2.87
                            28 2.87  14 2.87  36 2.89  15 2.90
  25  0.097  0.221  0.287-  38 2.69  34 2.71  33 2.74  22 2.78  24 2.81  29 2.81  28 2.83  16 2.85
                            15 2.85  27 2.86  26 2.86  13 2.88
  26  0.437  0.222  0.282-  33 2.73  17 2.75  24 2.76  14 2.77  30 2.79  13 2.80  29 2.84  27 2.85
                            23 2.85  25 2.86  35 2.87  36 2.90
  27  0.100  0.883  0.286-  37 2.69  34 2.71  35 2.76  23 2.78  30 2.79  22 2.80  28 2.82  19 2.83
                            13 2.85  26 2.85  21 2.85  25 2.86
  28  0.765  0.882  0.281-  21 2.73  20 2.75  15 2.76  34 2.78  30 2.78  29 2.79  27 2.82  25 2.83
                            23 2.83  24 2.87  39 2.87  32 2.90
  29  0.429  0.555  0.280-  20 2.72  16 2.73  23 2.74  22 2.76  17 2.77  31 2.78  28 2.79  25 2.81
                            26 2.84  30 2.86  33 2.87  39 2.92
  30  0.768  0.553  0.282-  21 2.76  18 2.76  28 2.78  17 2.78  24 2.78  26 2.79  27 2.79  22 2.80
                            37 2.80  29 2.86  39 2.88  36 3.01
  31  0.324  0.657  0.387-  39 2.77  32 2.77  29 2.78  23 2.78  38 2.79  35 2.79  37 2.81  33 2.84
                            22 2.87
  32  0.648  0.991  0.389-  35 2.71  31 2.77  24 2.78  39 2.78  23 2.82  34 2.84  36 2.85  38 2.87
                            28 2.90
  33  0.326  0.320  0.386-  36 2.63  26 2.73  25 2.74  35 2.79  38 2.80  34 2.83  31 2.84  39 2.85
                            29 2.87
  34  0.984  0.991  0.384-  27 2.71  25 2.71  38 2.75  39 2.76  28 2.78  37 2.80  33 2.83  32 2.84
                            35 2.88
  35  0.325  0.988  0.387-  32 2.71  36 2.75  23 2.75  37 2.76  27 2.76  31 2.79  33 2.79  26 2.87
                            34 2.88
  36  0.639  0.325  0.396-   1 1.87   2 2.58  33 2.63  35 2.75  39 2.80  32 2.85  24 2.89  26 2.90
                            37 2.94  30 3.01  38 3.02
  37  0.995  0.665  0.385-  27 2.69  35 2.76  34 2.80  30 2.80  31 2.81  22 2.82  39 2.85  38 2.88
                            36 2.94
  38  0.996  0.323  0.389-   2 2.08  25 2.69  34 2.75  31 2.79  33 2.80  24 2.80  32 2.87  37 2.88
                            22 2.94  36 3.02
  39  0.656  0.665  0.390-  34 2.76  31 2.77  32 2.78  36 2.80  33 2.85  37 2.85  28 2.87  30 2.88
                            29 2.92
 

IMPORTANT INFORMATION: All symmetrisations will be switched off!
NOSYMM: (Re-)initialisation of all symmetry stuff for point group C_1.

 
 
 KPOINTS: mesh auto                               

Automatic generation of k-mesh.
Space group operators:
 irot       det(A)        alpha          n_x          n_y          n_z        tau_x        tau_y        tau_z
    1     1.000000     0.000000     1.000000     0.000000     0.000000     0.000000     0.000000     0.000000
 
 Subroutine IBZKPT returns following result:
 ===========================================
 
 Found      4 irreducible k-points:
 
 Following reciprocal coordinates:
            Coordinates               Weight
  0.000000  0.000000  0.000000      1.000000
  0.500000  0.000000  0.000000      1.000000
 -0.000000  0.500000  0.000000      1.000000
  0.500000  0.500000  0.000000      1.000000
 
 Following cartesian coordinates:
            Coordinates               Weight
  0.000000  0.000000  0.000000      1.000000
  0.068522  0.000000  0.000000      1.000000
  0.034261  0.059342  0.000000      1.000000
  0.102783  0.059342  0.000000      1.000000
 


--------------------------------------------------------------------------------------------------------




 Dimension of arrays:
   k-points           NKPTS =      4   k-points in BZ     NKDIM =      4   number of bands    NBANDS=    228
   number of dos      NEDOS =    301   number of ions     NIONS =     39
   non local maximal  LDIM  =      6   non local SUM 2l+1 LMDIM =     18
   total plane-waves  NPLWV = 276480
   max r-space proj   IRMAX =   2756   max aug-charges    IRDMAX=  12646
   dimension x,y,z NGX =    48 NGY =   48 NGZ =  120
   dimension x,y,z NGXF=    96 NGYF=   96 NGZF=  240
   support grid    NGXF=    96 NGYF=   96 NGZF=  240
   ions per type =               1   2  36
   NGX,Y,Z   is equivalent  to a cutoff of   9.47,  9.47,  9.12 a.u.
   NGXF,Y,Z  is equivalent  to a cutoff of  18.94, 18.94, 18.24 a.u.

 SYSTEM =  metal                                   
 POSCAR =  C    O    Pt                            

 Startparameter for this run:
   NWRITE =      2    write-flag & timer
   PREC   = normal    normal or accurate (medium, high low for compatibility)
   ISTART =      0    job   : 0-new  1-cont  2-samecut
   ICHARG =      2    charge: 1-file 2-atom 10-const
   ISPIN  =      1    spin polarized calculation?
   LNONCOLLINEAR =      F non collinear calculations
   LSORBIT =      F    spin-orbit coupling
   INIWAV =      1    electr: 0-lowe 1-rand  2-diag
   LASPH  =      F    aspherical Exc in radial PAW
   METAGGA=      F    non-selfconsistent MetaGGA calc.

 Electronic Relaxation 1
   ENCUT  =  450.0 eV  33.07 Ry    5.75 a.u.  14.57 14.57 37.84*2*pi/ulx,y,z
   ENINI  =  450.0     initial cutoff
   ENAUG  =  644.9 eV  augmentation charge cutoff
   NELM   =     60;   NELMIN=  8; NELMDL= -5     # of ELM steps 
   EDIFF  = 0.1E-03   stopping-criterion for ELM
   LREAL  =      T    real-space projection
   NLSPLINE    = F    spline interpolate recip. space projectors
   LCOMPAT=      F    compatible to vasp.4.4
   GGA_COMPAT  = T    GGA compatible to vasp.4.4-vasp.4.6
   LMAXPAW     = -100 max onsite density
   LMAXMIX     =    2 max onsite mixed and CHGCAR
   VOSKOWN=      0    Vosko Wilk Nusair interpolation
   ROPT   =   -0.00050  -0.00050  -0.00050
 Ionic relaxation
   EDIFFG = -.5E-01   stopping-criterion for IOM
   NSW    =   5000    number of steps for IOM
   NBLOCK =      1;   KBLOCK =   5000    inner block; outer block 
   IBRION =      1    ionic relax: 0-MD 1-quasi-New 2-CG
   NFREE  =      0    steps in history (QN), initial steepest desc. (CG)
   ISIF   =      2    stress and relaxation
   IWAVPR =     11    prediction:  0-non 1-charg 2-wave 3-comb
   ISYM   =      0    0-nonsym 1-usesym 2-fastsym
   LCORR  =      T    Harris-Foulkes like correction to forces

   POTIM  = 0.2000    time-step for ionic-motion
   TEIN   =    0.0    initial temperature
   TEBEG  =    0.0;   TEEND  =   0.0 temperature during run
   SMASS  =  -3.00    Nose mass-parameter (am)
   estimated Nose-frequenzy (Omega)   =  0.10E-29 period in steps =****** mass=  -0.162E-26a.u.
   SCALEE = 1.0000    scale energy and forces
   NPACO  =    256;   APACO  = 16.0  distance and # of slots for P.C.
   PSTRESS=    0.0 pullay stress

  Mass of Ions in am
   POMASS =  12.01 16.00195.08
  Ionic Valenz
   ZVAL   =   4.00  6.00 10.00
  Atomic Wigner-Seitz radii
   RWIGS  =  -1.00 -1.00 -1.00
  virtual crystal weights 
   VCA    =   1.00  1.00  1.00
   NELECT =     376.0000    total number of electrons
   NUPDOWN=      -1.0000    fix difference up-down

 DOS related values:
   EMIN   =  10.00;   EMAX   =-10.00  energy-range for DOS
   EFERMI =   0.00
   ISMEAR =     1;   SIGMA  =   0.20  broadening in eV -4-tet -1-fermi 0-gaus

 Electronic relaxation 2 (details)
   IALGO  =     68    algorithm
   LDIAG  =      T    sub-space diagonalisation (order eigenvalues)
   LSUBROT=      F    optimize rotation matrix (better conditioning)
   TURBO    =      0    0=normal 1=particle mesh
   IRESTART =      0    0=no restart 2=restart with 2 vectors
   NREBOOT  =      0    no. of reboots
   NMIN     =      0    reboot dimension
   EREF     =   0.00    reference energy to select bands
   IMIX   =      4    mixing-type and parameters
     AMIX     =   0.40;   BMIX     =  1.00
     AMIX_MAG =   1.60;   BMIX_MAG =  1.00
     AMIN     =   0.10
     WC   =   100.;   INIMIX=   1;  MIXPRE=   1;  MAXMIX= -45

 Intra band minimization:
   WEIMIN = 0.0010     energy-eigenvalue tresh-hold
   EBREAK =  0.11E-06  absolut break condition
   DEPER  =   0.30     relativ break condition  

   TIME   =   0.40     timestep for ELM

  volume/ion in A,a.u.               =      34.49       232.77
  Fermi-wavevector in a.u.,A,eV,Ry     =   1.070385  2.022734 15.588510  1.145723
  Thomas-Fermi vector in A             =   2.206093
 
 Write flags
   LWAVE        =      F    write WAVECAR
   LDOWNSAMPLE  =      F    k-point downsampling of WAVECAR
   LCHARG       =      F    write CHGCAR
   LVTOT        =      F    write LOCPOT, total local potential
   LVHAR        =      F    write LOCPOT, Hartree potential only
   LELF         =      F    write electronic localiz. function (ELF)
   LORBIT       =      0    0 simple, 1 ext, 2 COOP (PROOUT), +10 PAW based schemes


 Dipole corrections
   LMONO  =      F    monopole corrections only (constant potential shift)
   LDIPOL =      F    correct potential (dipole corrections)
   IDIPOL =      0    1-x, 2-y, 3-z, 4-all directions 
   EPSILON=  1.0000000 bulk dielectric constant

 Exchange correlation treatment:
   GGA     =    --    GGA type
   LEXCH   =     8    internal setting for exchange type
   VOSKOWN=      0    Vosko Wilk Nusair interpolation
   LHFCALC =     F    Hartree Fock is set to
   LHFONE  =     F    Hartree Fock one center treatment
   AEXX    =    0.0000 exact exchange contribution

 Linear response parameters
   LEPSILON=     F    determine dielectric tensor
   LRPA    =     F    only Hartree local field effects (RPA)
   LNABLA  =     F    use nabla operator in PAW spheres
   LVEL    =     F    velocity operator in full k-point grid
   LINTERFAST=   F  fast interpolation
   KINTER  =     0    interpolate to denser k-point grid
   CSHIFT  =0.1000    complex shift for real part using Kramers Kronig
   OMEGAMAX=  -1.0    maximum frequency
   DEG_THRESHOLD= 0.2000000E-02 threshold for treating states as degnerate
   RTIME   =   -0.100 relaxation time in fs
  (WPLASMAI=    0.000 imaginary part of plasma frequency in eV, 0.658/RTIME)
   DFIELD  = 0.0000000 0.0000000 0.0000000 field for delta impulse in time
 
 Orbital magnetization related:
   ORBITALMAG=     F  switch on orbital magnetization
   LCHIMAG   =     F  perturbation theory with respect to B field
   DQ        =  0.001000  dq finite difference perturbation B field
   LLRAUG    =     F  two centre corrections for induced B field



--------------------------------------------------------------------------------------------------------


 quasi-Newton-method for relaxation of ions
   using selective dynamics as specified on POSCAR
 charge density and potential will be updated during run
 non-spin polarized calculation
 RMM-DIIS sequential band-by-band and
  variant of blocked Davidson during initial phase
 perform sub-space diagonalisation
    before iterative eigenvector-optimisation
 modified Broyden-mixing scheme, WC =      100.0
 initial mixing is a Kerker type mixing with AMIX =  0.4000 and BMIX =      1.0000
 Hartree-type preconditioning will be used
 using additional bands           40
 real space projection scheme for non local part
 use partial core corrections
 calculate Harris-corrections to forces 
   (improved forces if not selfconsistent)
 use gradient corrections 
 use of overlap-Matrix (Vanderbilt PP)
 Methfessel and Paxton  Order N= 1 SIGMA  =   0.20


--------------------------------------------------------------------------------------------------------


  energy-cutoff  :      450.00
  volume of cell :     1345.22
      direct lattice vectors                 reciprocal lattice vectors
     7.296955120 -4.212899000  0.000000000     0.137043463  0.000000000  0.000000000
     0.000000000  8.425798000  0.000000000     0.068521732  0.118683121  0.000000000
     0.000000000  0.000000000 21.879635000     0.000000000  0.000000000  0.045704602

  length of vectors
     8.425798004  8.425798000 21.879635000     0.137043463  0.137043463  0.045704602


 
 k-points in units of 2pi/SCALE and weight: mesh auto                               
   0.00000000  0.00000000  0.00000000       0.250
   0.06852173  0.00000000  0.00000000       0.250
   0.03426087  0.05934156  0.00000000       0.250
   0.10278260  0.05934156  0.00000000       0.250
 
 k-points in reciprocal lattice and weights: mesh auto                               
   0.00000000  0.00000000  0.00000000       0.250
   0.50000000  0.00000000  0.00000000       0.250
  -0.00000000  0.50000000  0.00000000       0.250
   0.50000000  0.50000000  0.00000000       0.250
 
 position of ions in fractional coordinates (direct lattice) 
   0.70302837  0.43591591  0.47311100
   0.90424316  0.38502481  0.46905787
   0.67489183  0.46277179  0.52299953
   0.98675500  0.32859100  0.07437600
   0.32008800  0.32859100  0.07437600
   0.65342200  0.32859100  0.07437600
   0.98675500  0.66192500  0.07437600
   0.32008800  0.66192500  0.07437600
   0.65342200  0.66192500  0.07437600
   0.32008800  0.99525800  0.07437600
   0.65342200  0.99525800  0.07437600
   0.98675500  0.99525800  0.07437600
   0.20897700  0.10636900  0.17918600
   0.54231100  0.10636900  0.17918600
   0.87564400  0.10636900  0.17918600
   0.20897700  0.43970300  0.17918600
   0.54231100  0.43970300  0.17918600
   0.87564400  0.43970300  0.17918600
   0.20897700  0.77303600  0.17918600
   0.54231100  0.77303600  0.17918600
   0.87564400  0.77303600  0.17918600
   0.09955347  0.55112144  0.27883728
   0.42829136  0.87974866  0.28324509
   0.76282578  0.22045541  0.28782979
   0.09659369  0.22076534  0.28679361
   0.43690591  0.22221838  0.28185601
   0.10043965  0.88303907  0.28579989
   0.76498844  0.88160979  0.28053243
   0.42916318  0.55483492  0.28014091
   0.76822254  0.55315489  0.28160333
   0.32405989  0.65692880  0.38654042
   0.64754026  0.99106815  0.38930855
   0.32615885  0.32039215  0.38558154
   0.98422659  0.99130305  0.38440538
   0.32496968  0.98845150  0.38735229
   0.63913658  0.32466567  0.39601909
   0.99454749  0.66477698  0.38503459
   0.99595590  0.32338969  0.38935854
   0.65630037  0.66505928  0.39002437
 
 position of ions in cartesian coordinates  (Angst):
   5.12996647  0.71115184 10.35149594
   6.59822177 -0.56534385 10.26281510
   4.92465536  1.05597051 11.44303881
   7.20030695 -1.38845776  1.62731973
   2.33566777  1.42014298  1.62731973
   4.76799101  0.01584050  1.62731973
   7.20030695  1.42014719  1.62731973
   2.33566777  4.22874793  1.62731973
   4.76799101  2.82444545  1.62731973
   2.33566777  7.03734445  1.62731973
   4.76799101  5.63304198  1.62731973
   7.20030695  4.22874371  1.62731973
   1.52489579  0.01584471  3.92052428
   3.95721903 -1.38845776  3.92052428
   6.38953497 -2.79275602  3.92052428
   1.52489579  2.82444966  3.92052428
   3.95721903  1.42014719  3.92052428
   6.38953497  0.01584893  3.92052428
   1.52489579  5.63304619  3.92052428
   3.95721903  4.22874371  3.92052428
   6.38953497  2.82444545  3.92052428
   0.72643718  4.22422925  6.10085792
   3.12522284  5.60823628  6.19729915
   5.56630550 -1.35619520  6.29761074
   0.70483984  1.45318473  6.27493953
   3.18808281  0.03172671  6.16690672
   0.73290364  7.01716671  6.25319729
   5.58208628  4.20544699  6.13794718
   3.13158445  2.86690587  6.12938077
   5.60568538  1.42432738  6.16137805
   2.36465048  4.16991780  8.45736324
   4.72507222  5.62251830  8.51792898
   2.37996651  1.32548523  8.43638344
   7.18185722  4.20607207  8.41064950
   2.37128917  6.95942826  8.47512672
   4.66375097  0.04294951  8.66475312
   7.25716839  1.41134844  8.42441629
   7.26744549 -1.47104541  8.51902267
   4.78899436  2.83872795  8.53359079
 


--------------------------------------------------------------------------------------------------------


 k-point  1 :   0.0000 0.0000 0.0000  plane waves:   29241
 k-point  2 :   0.5000 0.0000 0.0000  plane waves:   29108
 k-point  3 :  -0.0000 0.5000 0.0000  plane waves:   29108
 k-point  4 :   0.5000 0.5000 0.0000  plane waves:   29108

 maximum and minimum number of plane-waves per node :     14624    14548

 maximum number of plane-waves:     29241
 maximum index in each direction: 
   IXMAX=   14   IYMAX=   14   IZMAX=   37
   IXMIN=  -15   IYMIN=  -15   IZMIN=  -37


 real space projection operators:
  total allocation   :      13564.52 KBytes
  max/ min on nodes  :       6790.61       6773.91


 parallel 3D FFT for wavefunctions:
    minimum data exchange during FFTs selected (reduces bandwidth)
 parallel 3D FFT for charge:
    minimum data exchange during FFTs selected (reduces bandwidth)


 total amount of memory used by VASP MPI-rank0   131958. kBytes
=======================================================================

   base      :      30000. kBytes
   nonlr-proj:      10150. kBytes
   fftplans  :      13556. kBytes
   grid      :      23353. kBytes
   one-center:        311. kBytes
   wavefun   :      54588. kBytes
 
     INWAV:  cpu time    0.0000: real time    0.0000
 Broyden mixing: mesh for mixing (old mesh)
   NGX = 29   NGY = 29   NGZ = 75
  (NGX  = 96   NGY  = 96   NGZ  =240)
  gives a total of  63075 points

 initial charge density was supplied:
 charge density of overlapping atoms calculated
 number of electron     376.0000000 magnetization 
 keeping initial charge density in first step


--------------------------------------------------------------------------------------------------------


 Maximum index for non-local projection operator         1319
 Maximum index for augmentation-charges         1558 (set IRDMAX)


--------------------------------------------------------------------------------------------------------


 First call to EWALD:  gamma=   0.161
 Maximum number of real-space cells 4x 4x 2
 Maximum number of reciprocal cells 2x 2x 5

    FEWALD:  cpu time    0.0022: real time    0.0022


--------------------------------------- Iteration      1(   1)  ---------------------------------------


    POTLOK:  cpu time    0.1361: real time    0.2944
    SETDIJ:  cpu time    0.0102: real time    0.0103
     EDDAV:  cpu time    8.3215: real time    8.3893
       DOS:  cpu time    0.0010: real time    0.0010
    --------------------------------------------
      LOOP:  cpu time    8.4689: real time    8.6950

 eigenvalue-minimisations  :  1824
 total energy-change (2. order) : 0.2422492E+04  (-0.1595379E+05)
 number of electron     376.0000000 magnetization 
 augmentation part      376.0000000 magnetization 

 Free energy of the ion-electron system (eV)
  ---------------------------------------------------
  alpha Z        PSCENC =       975.10247152
  Ewald energy   TEWEN  =     91546.76200289
  -Hartree energ DENC   =   -120634.67577086
  -exchange      EXHF   =         0.00000000
  -V(xc)+E(xc)   XCENC  =       189.84328092
  PAW double counting   =     24789.08602224   -23775.73976456
  entropy T*S    EENTRO =        -0.01126949
  eigenvalues    EBANDS =      2072.23058856
  atomic energy  EATOM  =     27259.89416086
  Solvation  Ediel_sol  =         0.00000000
  ---------------------------------------------------
  free energy    TOTEN  =      2422.49172208 eV

  energy without entropy =     2422.50299157  energy(sigma->0) =     2422.49547857


--------------------------------------------------------------------------------------------------------




--------------------------------------- Iteration      1(   2)  ---------------------------------------


     EDDAV:  cpu time    8.8248: real time    8.8945
       DOS:  cpu time    0.0011: real time    0.0011
    --------------------------------------------
      LOOP:  cpu time    8.8258: real time    8.8955

 eigenvalue-minimisations  :  2112
 total energy-change (2. order) :-0.2484745E+04  (-0.2309882E+04)
 number of electron     376.0000000 magnetization 
 augmentation part      376.0000000 magnetization 

 Free energy of the ion-electron system (eV)
  ---------------------------------------------------
  alpha Z        PSCENC =       975.10247152
  Ewald energy   TEWEN  =     91546.76200289
  -Hartree energ DENC   =   -120634.67577086
  -exchange      EXHF   =         0.00000000
  -V(xc)+E(xc)   XCENC  =       189.84328092
  PAW double counting   =     24789.08602224   -23775.73976456
  entropy T*S    EENTRO =        -0.00803275
  eigenvalues    EBANDS =      -412.51745700
  atomic energy  EATOM  =     27259.89416086
  Solvation  Ediel_sol  =         0.00000000
  ---------------------------------------------------
  free energy    TOTEN  =       -62.25308673 eV

  energy without entropy =      -62.24505398  energy(sigma->0) =      -62.25040915


--------------------------------------------------------------------------------------------------------




--------------------------------------- Iteration      1(   3)  ---------------------------------------


     EDDAV:  cpu time    9.2552: real time    9.3296
       DOS:  cpu time    0.0011: real time    0.0011
    --------------------------------------------
      LOOP:  cpu time    9.2563: real time    9.3307

 eigenvalue-minimisations  :  2168
 total energy-change (2. order) :-0.1788026E+03  (-0.1620849E+03)
 number of electron     376.0000000 magnetization 
 augmentation part      376.0000000 magnetization 

 Free energy of the ion-electron system (eV)
  ---------------------------------------------------
  alpha Z        PSCENC =       975.10247152
  Ewald energy   TEWEN  =     91546.76200289
  -Hartree energ DENC   =   -120634.67577086
  -exchange      EXHF   =         0.00000000
  -V(xc)+E(xc)   XCENC  =       189.84328092
  PAW double counting   =     24789.08602224   -23775.73976456
  entropy T*S    EENTRO =        -0.00654237
  eigenvalues    EBANDS =      -591.32157664
  atomic energy  EATOM  =     27259.89416086
  Solvation  Ediel_sol  =         0.00000000
  ---------------------------------------------------
  free energy    TOTEN  =      -241.05571600 eV

  energy without entropy =     -241.04917363  energy(sigma->0) =     -241.05353521


--------------------------------------------------------------------------------------------------------




--------------------------------------- Iteration      1(   4)  ---------------------------------------


     EDDAV:  cpu time   10.0900: real time   10.1711
       DOS:  cpu time    0.0010: real time    0.0011
    --------------------------------------------
      LOOP:  cpu time   10.0910: real time   10.1722

 eigenvalue-minimisations  :  2344
 total energy-change (2. order) :-0.7747628E+01  (-0.7478758E+01)
 number of electron     376.0000000 magnetization 
 augmentation part      376.0000000 magnetization 

 Free energy of the ion-electron system (eV)
  ---------------------------------------------------
  alpha Z        PSCENC =       975.10247152
  Ewald energy   TEWEN  =     91546.76200289
  -Hartree energ DENC   =   -120634.67577086
  -exchange      EXHF   =         0.00000000
  -V(xc)+E(xc)   XCENC  =       189.84328092
  PAW double counting   =     24789.08602224   -23775.73976456
  entropy T*S    EENTRO =        -0.00563364
  eigenvalues    EBANDS =      -599.07011378
  atomic energy  EATOM  =     27259.89416086
  Solvation  Ediel_sol  =         0.00000000
  ---------------------------------------------------
  free energy    TOTEN  =      -248.80334441 eV

  energy without entropy =     -248.79771077  energy(sigma->0) =     -248.80146653


--------------------------------------------------------------------------------------------------------




--------------------------------------- Iteration      1(   5)  ---------------------------------------


     EDDAV:  cpu time   10.2627: real time   10.3446
       DOS:  cpu time    0.0010: real time    0.0011
    CHARGE:  cpu time    0.3765: real time    0.3793
    MIXING:  cpu time    0.0071: real time    0.0072
    --------------------------------------------
      LOOP:  cpu time   10.6473: real time   10.7321

 eigenvalue-minimisations  :  2456
 total energy-change (2. order) :-0.2371958E+00  (-0.2345317E+00)
 number of electron     376.0000047 magnetization 
 augmentation part      105.7537979 magnetization 

 Broyden mixing:
  rms(total) = 0.27584E+01    rms(broyden)= 0.27580E+01
  rms(prec ) = 0.30806E+01
  weight for this iteration     100.00

 Free energy of the ion-electron system (eV)
  ---------------------------------------------------
  alpha Z        PSCENC =       975.10247152
  Ewald energy   TEWEN  =     91546.76200289
  -Hartree energ DENC   =   -120634.67577086
  -exchange      EXHF   =         0.00000000
  -V(xc)+E(xc)   XCENC  =       189.84328092
  PAW double counting   =     24789.08602224   -23775.73976456
  entropy T*S    EENTRO =        -0.00555436
  eigenvalues    EBANDS =      -599.30738887
  atomic energy  EATOM  =     27259.89416086
  Solvation  Ediel_sol  =         0.00000000
  ---------------------------------------------------
  free energy    TOTEN  =      -249.04054022 eV

  energy without entropy =     -249.03498586  energy(sigma->0) =     -249.03868876


--------------------------------------------------------------------------------------------------------




--------------------------------------- Iteration      1(   6)  ---------------------------------------


    POTLOK:  cpu time    0.1264: real time    0.1273
    SETDIJ:  cpu time    0.0102: real time    0.0102
    EDDIAG:  cpu time    1.2774: real time    1.2877
  RMM-DIIS:  cpu time    4.5329: real time    4.5710
    ORTHCH:  cpu time    0.2147: real time    0.2163
       DOS:  cpu time    0.0011: real time    0.0011
    CHARGE:  cpu time    0.3715: real time    0.3743
    MIXING:  cpu time    0.0058: real time    0.0058
    --------------------------------------------
      LOOP:  cpu time    6.5399: real time    6.5938

 eigenvalue-minimisations  :  1829
 total energy-change (2. order) : 0.2026326E+01  (-0.5562399E+01)
 number of electron     376.0000046 magnetization 
 augmentation part      113.0059153 magnetization 

 Broyden mixing:
  rms(total) = 0.30671E+01    rms(broyden)= 0.30662E+01
  rms(prec ) = 0.40533E+01
  weight for this iteration     100.00

 eigenvalues of (default mixing * dielectric matrix)
  average eigenvalue GAMMA=   0.4760
  0.4760

 Free energy of the ion-electron system (eV)
  ---------------------------------------------------
  alpha Z        PSCENC =       975.10247152
  Ewald energy   TEWEN  =     91546.76200289
  -Hartree energ DENC   =   -120160.11417584
  -exchange      EXHF   =         0.00000000
  -V(xc)+E(xc)   XCENC  =       182.81393878
  PAW double counting   =     26731.06880913   -25771.62069525
  entropy T*S    EENTRO =        -0.14595741
  eigenvalues    EBANDS =     -1010.77476845
  atomic energy  EATOM  =     27259.89416086
  Solvation  Ediel_sol  =         0.00000000
  ---------------------------------------------------
  free energy    TOTEN  =      -247.01421377 eV

  energy without entropy =     -246.86825636  energy(sigma->0) =     -246.96556130


--------------------------------------------------------------------------------------------------------




--------------------------------------- Iteration      1(   7)  ---------------------------------------


    POTLOK:  cpu time    0.1257: real time    0.1265
    SETDIJ:  cpu time    0.0102: real time    0.0102
    EDDIAG:  cpu time    1.3016: real time    1.3124
  RMM-DIIS:  cpu time    4.3825: real time    4.4186
    ORTHCH:  cpu time    0.2136: real time    0.2153
       DOS:  cpu time    0.0011: real time    0.0011
    CHARGE:  cpu time    0.3699: real time    0.3726
    MIXING:  cpu time    0.0041: real time    0.0042
    --------------------------------------------
      LOOP:  cpu time    6.4087: real time    6.4609

 eigenvalue-minimisations  :  1830
 total energy-change (2. order) : 0.5915838E+01  (-0.3361917E+01)
 number of electron     376.0000057 magnetization 
 augmentation part      111.3177617 magnetization 

 Broyden mixing:
  rms(total) = 0.19491E+01    rms(broyden)= 0.19482E+01
  rms(prec ) = 0.30713E+01
  weight for this iteration     100.00

 eigenvalues of (default mixing * dielectric matrix)
  average eigenvalue GAMMA=   0.6141
  0.9713  0.2570

 Free energy of the ion-electron system (eV)
  ---------------------------------------------------
  alpha Z        PSCENC =       975.10247152
  Ewald energy   TEWEN  =     91546.76200289
  -Hartree energ DENC   =   -120362.78971283
  -exchange      EXHF   =         0.00000000
  -V(xc)+E(xc)   XCENC  =       180.40425124
  PAW double counting   =     27379.74653507   -26427.45838484
  entropy T*S    EENTRO =        -0.07050931
  eigenvalues    EBANDS =      -792.68919017
  atomic energy  EATOM  =     27259.89416086
  Solvation  Ediel_sol  =         0.00000000
  ---------------------------------------------------
  free energy    TOTEN  =      -241.09837557 eV

  energy without entropy =     -241.02786626  energy(sigma->0) =     -241.07487247


--------------------------------------------------------------------------------------------------------




--------------------------------------- Iteration      1(   8)  ---------------------------------------


    POTLOK:  cpu time    0.1233: real time    0.1242
    SETDIJ:  cpu time    0.0097: real time    0.0098
    EDDIAG:  cpu time    1.2725: real time    1.2828
  RMM-DIIS:  cpu time    4.6102: real time    4.6488
    ORTHCH:  cpu time    0.2147: real time    0.2165
       DOS:  cpu time    0.0010: real time    0.0011
    CHARGE:  cpu time    0.3838: real time    0.3870
    MIXING:  cpu time    0.0043: real time    0.0043
    --------------------------------------------
      LOOP:  cpu time    6.6195: real time    6.6744

 eigenvalue-minimisations  :  1826
 total energy-change (2. order) :-0.4807745E+01  (-0.9264953E+00)
 number of electron     376.0000043 magnetization 
 augmentation part      112.1000595 magnetization 

 Broyden mixing:
  rms(total) = 0.23648E+01    rms(broyden)= 0.23646E+01
  rms(prec ) = 0.44188E+01
  weight for this iteration     100.00

 eigenvalues of (default mixing * dielectric matrix)
  average eigenvalue GAMMA=   0.5479
  1.2053  0.2892  0.1493

 Free energy of the ion-electron system (eV)
  ---------------------------------------------------
  alpha Z        PSCENC =       975.10247152
  Ewald energy   TEWEN  =     91546.76200289
  -Hartree energ DENC   =   -120296.19992605
  -exchange      EXHF   =         0.00000000
  -V(xc)+E(xc)   XCENC  =       179.28526425
  PAW double counting   =     28088.76965410   -27147.76552917
  entropy T*S    EENTRO =        -0.09726511
  eigenvalues    EBANDS =      -851.65695365
  atomic energy  EATOM  =     27259.89416086
  Solvation  Ediel_sol  =         0.00000000
  ---------------------------------------------------
  free energy    TOTEN  =      -245.90612036 eV

  energy without entropy =     -245.80885525  energy(sigma->0) =     -245.87369866


--------------------------------------------------------------------------------------------------------




--------------------------------------- Iteration      1(   9)  ---------------------------------------


    POTLOK:  cpu time    0.1273: real time    0.1282
    SETDIJ:  cpu time    0.0099: real time    0.0100
    EDDIAG:  cpu time    1.3019: real time    1.3123
  RMM-DIIS:  cpu time    4.5547: real time    4.5937
    ORTHCH:  cpu time    0.2223: real time    0.2240
       DOS:  cpu time    0.0011: real time    0.0011
    CHARGE:  cpu time    0.3834: real time    0.3864
    MIXING:  cpu time    0.0046: real time    0.0046
    --------------------------------------------
      LOOP:  cpu time    6.6051: real time    6.6603

 eigenvalue-minimisations  :  1831
 total energy-change (2. order) : 0.1412048E+02  (-0.4326153E+00)
 number of electron     376.0000050 magnetization 
 augmentation part      112.6262064 magnetization 

 Broyden mixing:
  rms(total) = 0.84414E+00    rms(broyden)= 0.84380E+00
  rms(prec ) = 0.11592E+01
  weight for this iteration     100.00

 eigenvalues of (default mixing * dielectric matrix)
  average eigenvalue GAMMA=   0.5374
  1.3128  0.3545  0.3545  0.1279

 Free energy of the ion-electron system (eV)
  ---------------------------------------------------
  alpha Z        PSCENC =       975.10247152
  Ewald energy   TEWEN  =     91546.76200289
  -Hartree energ DENC   =   -120260.96869763
  -exchange      EXHF   =         0.00000000
  -V(xc)+E(xc)   XCENC  =       178.70955475
  PAW double counting   =     28739.55393854   -27808.72785745
  entropy T*S    EENTRO =        -0.02721461
  eigenvalues    EBANDS =      -862.08400260
  atomic energy  EATOM  =     27259.89416086
  Solvation  Ediel_sol  =         0.00000000
  ---------------------------------------------------
  free energy    TOTEN  =      -231.78564373 eV

  energy without entropy =     -231.75842911  energy(sigma->0) =     -231.77657219


--------------------------------------------------------------------------------------------------------




--------------------------------------- Iteration      1(  10)  ---------------------------------------


    POTLOK:  cpu time    0.1303: real time    0.1312
    SETDIJ:  cpu time    0.0091: real time    0.1062
    EDDIAG:  cpu time    1.2417: real time    1.2522
  RMM-DIIS:  cpu time    4.3394: real time    4.3753
    ORTHCH:  cpu time    0.2137: real time    0.2152
       DOS:  cpu time    0.0011: real time    0.0011
    CHARGE:  cpu time    0.3801: real time    0.3828
    MIXING:  cpu time    0.0052: real time    0.0052
    --------------------------------------------
      LOOP:  cpu time    6.3205: real time    6.4692

 eigenvalue-minimisations  :  1831
 total energy-change (2. order) : 0.1024525E+01  (-0.1352133E+00)
 number of electron     376.0000048 magnetization 
 augmentation part      112.7462138 magnetization 

 Broyden mixing:
  rms(total) = 0.52147E+00    rms(broyden)= 0.52139E+00
  rms(prec ) = 0.69314E+00
  weight for this iteration     100.00

 eigenvalues of (default mixing * dielectric matrix)
  average eigenvalue GAMMA=   0.5603
  1.4116  0.5770  0.1306  0.4131  0.2694

 Free energy of the ion-electron system (eV)
  ---------------------------------------------------
  alpha Z        PSCENC =       975.10247152
  Ewald energy   TEWEN  =     91546.76200289
  -Hartree energ DENC   =   -120254.04010826
  -exchange      EXHF   =         0.00000000
  -V(xc)+E(xc)   XCENC  =       178.63327236
  PAW double counting   =     29069.18877443   -28142.90127818
  entropy T*S    EENTRO =        -0.01088974
  eigenvalues    EBANDS =      -863.38952470
  atomic energy  EATOM  =     27259.89416086
  Solvation  Ediel_sol  =         0.00000000
  ---------------------------------------------------
  free energy    TOTEN  =      -230.76111881 eV

  energy without entropy =     -230.75022908  energy(sigma->0) =     -230.75748890


--------------------------------------------------------------------------------------------------------




--------------------------------------- Iteration      1(  11)  ---------------------------------------


    POTLOK:  cpu time    0.1254: real time    0.1263
    SETDIJ:  cpu time    0.0100: real time    0.0100
    EDDIAG:  cpu time    1.2580: real time    1.2681
  RMM-DIIS:  cpu time    4.4953: real time    4.5337
    ORTHCH:  cpu time    0.2178: real time    0.2193
       DOS:  cpu time    0.0011: real time    0.0011
    CHARGE:  cpu time    0.3745: real time    0.3774
    MIXING:  cpu time    0.0051: real time    0.0052
    --------------------------------------------
      LOOP:  cpu time    6.4872: real time    6.5412

 eigenvalue-minimisations  :  1831
 total energy-change (2. order) : 0.4210151E+00  (-0.4369879E-01)
 number of electron     376.0000048 magnetization 
 augmentation part      112.8866110 magnetization 

 Broyden mixing:
  rms(total) = 0.30976E+00    rms(broyden)= 0.30957E+00
  rms(prec ) = 0.40026E+00
  weight for this iteration     100.00

 eigenvalues of (default mixing * dielectric matrix)
  average eigenvalue GAMMA=   0.5877
  1.5370  0.8230  0.1296  0.3964  0.3964  0.2440

 Free energy of the ion-electron system (eV)
  ---------------------------------------------------
  alpha Z        PSCENC =       975.10247152
  Ewald energy   TEWEN  =     91546.76200289
  -Hartree energ DENC   =   -120241.06061761
  -exchange      EXHF   =         0.00000000
  -V(xc)+E(xc)   XCENC  =       178.63771049
  PAW double counting   =     29369.10380751   -28446.63452912
  entropy T*S    EENTRO =        -0.03950122
  eigenvalues    EBANDS =      -872.10560906
  atomic energy  EATOM  =     27259.89416086
  Solvation  Ediel_sol  =         0.00000000
  ---------------------------------------------------
  free energy    TOTEN  =      -230.34010374 eV

  energy without entropy =     -230.30060252  energy(sigma->0) =     -230.32693666


--------------------------------------------------------------------------------------------------------




--------------------------------------- Iteration      1(  12)  ---------------------------------------


    POTLOK:  cpu time    0.1280: real time    0.1290
    SETDIJ:  cpu time    0.0100: real time    0.0101
    EDDIAG:  cpu time    1.2806: real time    1.2911
  RMM-DIIS:  cpu time    4.4315: real time    4.4675
    ORTHCH:  cpu time    0.2205: real time    0.2220
       DOS:  cpu time    0.0012: real time    0.0012
    CHARGE:  cpu time    0.3777: real time    0.3805
    MIXING:  cpu time    0.0050: real time    0.0050
    --------------------------------------------
      LOOP:  cpu time    6.4544: real time    6.5064

 eigenvalue-minimisations  :  1839
 total energy-change (2. order) : 0.1344721E+00  (-0.1880387E-01)
 number of electron     376.0000047 magnetization 
 augmentation part      112.9518328 magnetization 

 Broyden mixing:
  rms(total) = 0.21036E+00    rms(broyden)= 0.21031E+00
  rms(prec ) = 0.26697E+00
  weight for this iteration     100.00

 eigenvalues of (default mixing * dielectric matrix)
  average eigenvalue GAMMA=   0.6566
  1.7718  1.0171  0.6739  0.4749  0.1299  0.2708  0.2578

 Free energy of the ion-electron system (eV)
  ---------------------------------------------------
  alpha Z        PSCENC =       975.10247152
  Ewald energy   TEWEN  =     91546.76200289
  -Hartree energ DENC   =   -120231.34818537
  -exchange      EXHF   =         0.00000000
  -V(xc)+E(xc)   XCENC  =       178.60909152
  PAW double counting   =     29597.12382801   -28677.43240933
  entropy T*S    EENTRO =        -0.03224114
  eigenvalues    EBANDS =      -878.88435061
  atomic energy  EATOM  =     27259.89416086
  Solvation  Ediel_sol  =         0.00000000
  ---------------------------------------------------
  free energy    TOTEN  =      -230.20563165 eV

  energy without entropy =     -230.17339051  energy(sigma->0) =     -230.19488460


--------------------------------------------------------------------------------------------------------




--------------------------------------- Iteration      1(  13)  ---------------------------------------


    POTLOK:  cpu time    0.1282: real time    0.1292
    SETDIJ:  cpu time    0.0094: real time    0.0095
    EDDIAG:  cpu time    1.2729: real time    1.2835
  RMM-DIIS:  cpu time    4.6737: real time    4.7131
    ORTHCH:  cpu time    0.2228: real time    0.2244
       DOS:  cpu time    0.0011: real time    0.0011
    CHARGE:  cpu time    0.3994: real time    0.4024
    MIXING:  cpu time    0.0053: real time    0.0053
    --------------------------------------------
      LOOP:  cpu time    6.7127: real time    6.7685

 eigenvalue-minimisations  :  1831
 total energy-change (2. order) : 0.1600866E-01  (-0.1232587E-01)
 number of electron     376.0000047 magnetization 
 augmentation part      112.9538016 magnetization 

 Broyden mixing:
  rms(total) = 0.18149E+00    rms(broyden)= 0.18149E+00
  rms(prec ) = 0.21688E+00
  weight for this iteration     100.00

 eigenvalues of (default mixing * dielectric matrix)
  average eigenvalue GAMMA=   0.6973
  2.0210  1.1336  0.9635  0.1299  0.4425  0.3761  0.2794  0.2321

 Free energy of the ion-electron system (eV)
  ---------------------------------------------------
  alpha Z        PSCENC =       975.10247152
  Ewald energy   TEWEN  =     91546.76200289
  -Hartree energ DENC   =   -120230.79234792
  -exchange      EXHF   =         0.00000000
  -V(xc)+E(xc)   XCENC  =       178.51341036
  PAW double counting   =     29845.96362191   -28929.21566384
  entropy T*S    EENTRO =        -0.02507610
  eigenvalues    EBANDS =      -876.39220268
  atomic energy  EATOM  =     27259.89416086
  Solvation  Ediel_sol  =         0.00000000
  ---------------------------------------------------
  free energy    TOTEN  =      -230.18962299 eV

  energy without entropy =     -230.16454688  energy(sigma->0) =     -230.18126429


--------------------------------------------------------------------------------------------------------




--------------------------------------- Iteration      1(  14)  ---------------------------------------


    POTLOK:  cpu time    0.1257: real time    0.1267
    SETDIJ:  cpu time    0.0098: real time    0.0099
    EDDIAG:  cpu time    1.2834: real time    1.2940
  RMM-DIIS:  cpu time    4.5917: real time    4.6310
    ORTHCH:  cpu time    0.2228: real time    0.2245
       DOS:  cpu time    0.0011: real time    0.0011
    CHARGE:  cpu time    0.3863: real time    0.3895
    MIXING:  cpu time    0.0055: real time    0.0055
    --------------------------------------------
      LOOP:  cpu time    6.6264: real time    6.6821

 eigenvalue-minimisations  :  1832
 total energy-change (2. order) : 0.3800178E-01  (-0.9106122E-02)
 number of electron     376.0000047 magnetization 
 augmentation part      112.9331405 magnetization 

 Broyden mixing:
  rms(total) = 0.92310E-01    rms(broyden)= 0.92292E-01
  rms(prec ) = 0.11332E+00
  weight for this iteration     100.00

 eigenvalues of (default mixing * dielectric matrix)
  average eigenvalue GAMMA=   0.7414
  2.4241  1.2930  0.9352  0.6181  0.4613  0.1299  0.3141  0.2691  0.2275

 Free energy of the ion-electron system (eV)
  ---------------------------------------------------
  alpha Z        PSCENC =       975.10247152
  Ewald energy   TEWEN  =     91546.76200289
  -Hartree energ DENC   =   -120233.32466299
  -exchange      EXHF   =         0.00000000
  -V(xc)+E(xc)   XCENC  =       178.43662469
  PAW double counting   =     30013.94329006   -29099.11238122
  entropy T*S    EENTRO =        -0.01743863
  eigenvalues    EBANDS =      -871.83568839
  atomic energy  EATOM  =     27259.89416086
  Solvation  Ediel_sol  =         0.00000000
  ---------------------------------------------------
  free energy    TOTEN  =      -230.15162121 eV

  energy without entropy =     -230.13418258  energy(sigma->0) =     -230.14580833


--------------------------------------------------------------------------------------------------------




--------------------------------------- Iteration      1(  15)  ---------------------------------------


    POTLOK:  cpu time    0.1313: real time    0.1323
    SETDIJ:  cpu time    0.0098: real time    0.0099
    EDDIAG:  cpu time    1.2686: real time    1.2789
  RMM-DIIS:  cpu time    4.4488: real time    4.4865
    ORTHCH:  cpu time    0.2028: real time    0.2041
       DOS:  cpu time    0.0010: real time    0.0010
    CHARGE:  cpu time    0.3608: real time    0.3634
    MIXING:  cpu time    0.0056: real time    0.0057
    --------------------------------------------
      LOOP:  cpu time    6.4287: real time    6.4818

 eigenvalue-minimisations  :  1831
 total energy-change (2. order) : 0.5603891E-02  (-0.3630020E-02)
 number of electron     376.0000047 magnetization 
 augmentation part      112.9360796 magnetization 

 Broyden mixing:
  rms(total) = 0.73272E-01    rms(broyden)= 0.73251E-01
  rms(prec ) = 0.89482E-01
  weight for this iteration     100.00

 eigenvalues of (default mixing * dielectric matrix)
  average eigenvalue GAMMA=   0.7173
  2.5389  1.2929  0.8120  0.8120  0.4409  0.1299  0.3725  0.2826  0.2660  0.2251

 Free energy of the ion-electron system (eV)
  ---------------------------------------------------
  alpha Z        PSCENC =       975.10247152
  Ewald energy   TEWEN  =     91546.76200289
  -Hartree energ DENC   =   -120232.71778571
  -exchange      EXHF   =         0.00000000
  -V(xc)+E(xc)   XCENC  =       178.41215010
  PAW double counting   =     30115.46356688   -29201.74186359
  entropy T*S    EENTRO =        -0.02083455
  eigenvalues    EBANDS =      -871.29988573
  atomic energy  EATOM  =     27259.89416086
  Solvation  Ediel_sol  =         0.00000000
  ---------------------------------------------------
  free energy    TOTEN  =      -230.14601732 eV

  energy without entropy =     -230.12518277  energy(sigma->0) =     -230.13907247


--------------------------------------------------------------------------------------------------------




--------------------------------------- Iteration      1(  16)  ---------------------------------------


    POTLOK:  cpu time    0.1288: real time    0.1298
    SETDIJ:  cpu time    0.0100: real time    0.0100
    EDDIAG:  cpu time    1.2428: real time    1.2522
  RMM-DIIS:  cpu time    4.4974: real time    4.5351
    ORTHCH:  cpu time    0.2170: real time    0.2184
       DOS:  cpu time    0.0011: real time    0.0012
    CHARGE:  cpu time    0.3840: real time    0.3870
    MIXING:  cpu time    0.0059: real time    0.0059
    --------------------------------------------
      LOOP:  cpu time    6.4870: real time    6.5397

 eigenvalue-minimisations  :  1831
 total energy-change (2. order) : 0.7203988E-02  (-0.1105029E-02)
 number of electron     376.0000047 magnetization 
 augmentation part      112.9414603 magnetization 

 Broyden mixing:
  rms(total) = 0.33043E-01    rms(broyden)= 0.33036E-01
  rms(prec ) = 0.40908E-01
  weight for this iteration     100.00

 eigenvalues of (default mixing * dielectric matrix)
  average eigenvalue GAMMA=   0.6967
  2.5306  1.2668  0.8493  0.8493  0.4887  0.4887  0.1299  0.3104  0.2824  0.2445
  0.2231

 Free energy of the ion-electron system (eV)
  ---------------------------------------------------
  alpha Z        PSCENC =       975.10247152
  Ewald energy   TEWEN  =     91546.76200289
  -Hartree energ DENC   =   -120232.79793124
  -exchange      EXHF   =         0.00000000
  -V(xc)+E(xc)   XCENC  =       178.41768695
  PAW double counting   =     30138.15461587   -29224.66756805
  entropy T*S    EENTRO =        -0.02106386
  eigenvalues    EBANDS =      -870.98318827
  atomic energy  EATOM  =     27259.89416086
  Solvation  Ediel_sol  =         0.00000000
  ---------------------------------------------------
  free energy    TOTEN  =      -230.13881333 eV

  energy without entropy =     -230.11774947  energy(sigma->0) =     -230.13179205


--------------------------------------------------------------------------------------------------------




--------------------------------------- Iteration      1(  17)  ---------------------------------------


    POTLOK:  cpu time    0.1276: real time    0.1286
    SETDIJ:  cpu time    0.0101: real time    0.0101
    EDDIAG:  cpu time    1.2622: real time    1.2724
  RMM-DIIS:  cpu time    4.3279: real time    4.3632
    ORTHCH:  cpu time    0.2190: real time    0.2205
       DOS:  cpu time    0.0011: real time    0.0011
    CHARGE:  cpu time    0.3788: real time    0.3816
    MIXING:  cpu time    0.0054: real time    0.0054
    --------------------------------------------
      LOOP:  cpu time    6.3321: real time    6.3830

 eigenvalue-minimisations  :  1821
 total energy-change (2. order) : 0.1165899E-02  (-0.2532708E-03)
 number of electron     376.0000047 magnetization 
 augmentation part      112.9411699 magnetization 

 Broyden mixing:
  rms(total) = 0.17686E-01    rms(broyden)= 0.17682E-01
  rms(prec ) = 0.21253E-01
  weight for this iteration     100.00

 eigenvalues of (default mixing * dielectric matrix)
  average eigenvalue GAMMA=   0.7408
  2.4465  1.3226  1.3226  0.8876  0.8876  0.4552  0.1299  0.3955  0.3112  0.2732
  0.2367  0.2205

 Free energy of the ion-electron system (eV)
  ---------------------------------------------------
  alpha Z        PSCENC =       975.10247152
  Ewald energy   TEWEN  =     91546.76200289
  -Hartree energ DENC   =   -120233.26810791
  -exchange      EXHF   =         0.00000000
  -V(xc)+E(xc)   XCENC  =       178.42251710
  PAW double counting   =     30137.10309955   -29223.57623619
  entropy T*S    EENTRO =        -0.02102477
  eigenvalues    EBANDS =      -870.55653049
  atomic energy  EATOM  =     27259.89416086
  Solvation  Ediel_sol  =         0.00000000
  ---------------------------------------------------
  free energy    TOTEN  =      -230.13764743 eV

  energy without entropy =     -230.11662266  energy(sigma->0) =     -230.13063918


--------------------------------------------------------------------------------------------------------




--------------------------------------- Iteration      1(  18)  ---------------------------------------


    POTLOK:  cpu time    0.1241: real time    0.1250
    SETDIJ:  cpu time    0.0098: real time    0.0098
    EDDIAG:  cpu time    1.2411: real time    1.2512
  RMM-DIIS:  cpu time    4.5684: real time    4.6064
    ORTHCH:  cpu time    0.2243: real time    0.2260
       DOS:  cpu time    0.0012: real time    0.0012
    CHARGE:  cpu time    0.3935: real time    0.3966
    MIXING:  cpu time    0.0063: real time    0.0063
    --------------------------------------------
      LOOP:  cpu time    6.5685: real time    6.6225

 eigenvalue-minimisations  :  1814
 total energy-change (2. order) :-0.4150511E-03  (-0.1113103E-03)
 number of electron     376.0000047 magnetization 
 augmentation part      112.9355223 magnetization 

 Broyden mixing:
  rms(total) = 0.13953E-01    rms(broyden)= 0.13948E-01
  rms(prec ) = 0.17259E-01
  weight for this iteration     100.00

 eigenvalues of (default mixing * dielectric matrix)
  average eigenvalue GAMMA=   0.7463
  2.4533  1.5171  1.5171  0.9006  0.9006  0.4505  0.4505  0.1299  0.3452  0.3124
  0.2685  0.2357  0.2202

 Free energy of the ion-electron system (eV)
  ---------------------------------------------------
  alpha Z        PSCENC =       975.10247152
  Ewald energy   TEWEN  =     91546.76200289
  -Hartree energ DENC   =   -120234.48830416
  -exchange      EXHF   =         0.00000000
  -V(xc)+E(xc)   XCENC  =       178.42595254
  PAW double counting   =     30129.36063359   -29215.67737490
  entropy T*S    EENTRO =        -0.02127334
  eigenvalues    EBANDS =      -869.49633148
  atomic energy  EATOM  =     27259.89416086
  Solvation  Ediel_sol  =         0.00000000
  ---------------------------------------------------
  free energy    TOTEN  =      -230.13806248 eV

  energy without entropy =     -230.11678915  energy(sigma->0) =     -230.13097137


--------------------------------------------------------------------------------------------------------




--------------------------------------- Iteration      1(  19)  ---------------------------------------


    POTLOK:  cpu time    0.1308: real time    0.1318
    SETDIJ:  cpu time    0.0098: real time    0.0099
    EDDIAG:  cpu time    1.2664: real time    1.2768
  RMM-DIIS:  cpu time    3.8057: real time    3.8376
    ORTHCH:  cpu time    0.2199: real time    0.2215
       DOS:  cpu time    0.0011: real time    0.0011
    CHARGE:  cpu time    0.3902: real time    0.3932
    MIXING:  cpu time    0.0061: real time    0.0063
    --------------------------------------------
      LOOP:  cpu time    5.8300: real time    5.8782

 eigenvalue-minimisations  :  1478
 total energy-change (2. order) :-0.1651719E-03  (-0.4936678E-04)
 number of electron     376.0000047 magnetization 
 augmentation part      112.9349217 magnetization 

 Broyden mixing:
  rms(total) = 0.91982E-02    rms(broyden)= 0.91976E-02
  rms(prec ) = 0.11830E-01
  weight for this iteration     100.00

 eigenvalues of (default mixing * dielectric matrix)
  average eigenvalue GAMMA=   0.7480
  2.5228  1.8673  1.3335  0.9296  0.9296  0.5253  0.5253  0.1299  0.3841  0.3212
  0.2741  0.2741  0.2352  0.2199

 Free energy of the ion-electron system (eV)
  ---------------------------------------------------
  alpha Z        PSCENC =       975.10247152
  Ewald energy   TEWEN  =     91546.76200289
  -Hartree energ DENC   =   -120235.08946191
  -exchange      EXHF   =         0.00000000
  -V(xc)+E(xc)   XCENC  =       178.43008086
  PAW double counting   =     30129.71324406   -29215.99844881
  entropy T*S    EENTRO =        -0.02087851
  eigenvalues    EBANDS =      -868.93139863
  atomic energy  EATOM  =     27259.89416086
  Solvation  Ediel_sol  =         0.00000000
  ---------------------------------------------------
  free energy    TOTEN  =      -230.13822766 eV

  energy without entropy =     -230.11734915  energy(sigma->0) =     -230.13126815


--------------------------------------------------------------------------------------------------------




--------------------------------------- Iteration      1(  20)  ---------------------------------------


    POTLOK:  cpu time    0.1278: real time    0.1288
    SETDIJ:  cpu time    0.0093: real time    0.0093
    EDDIAG:  cpu time    1.3302: real time    1.3410
  RMM-DIIS:  cpu time    2.7583: real time    2.7815
    ORTHCH:  cpu time    0.2067: real time    0.2082
       DOS:  cpu time    0.0011: real time    0.0012
    CHARGE:  cpu time    0.3846: real time    0.3875
    MIXING:  cpu time    0.0073: real time    0.0074
    --------------------------------------------
      LOOP:  cpu time    4.8253: real time    4.8648

 eigenvalue-minimisations  :  1031
 total energy-change (2. order) :-0.1625898E-03  (-0.1690344E-04)
 number of electron     376.0000047 magnetization 
 augmentation part      112.9356902 magnetization 

 Broyden mixing:
  rms(total) = 0.47213E-02    rms(broyden)= 0.47193E-02
  rms(prec ) = 0.64270E-02
  weight for this iteration     100.00

 eigenvalues of (default mixing * dielectric matrix)
  average eigenvalue GAMMA=   0.7511
  2.6094  2.0450  1.2362  0.9767  0.9767  0.7282  0.1299  0.4567  0.4567  0.3682
  0.3117  0.2707  0.2198  0.2337  0.2474

 Free energy of the ion-electron system (eV)
  ---------------------------------------------------
  alpha Z        PSCENC =       975.10247152
  Ewald energy   TEWEN  =     91546.76200289
  -Hartree energ DENC   =   -120235.45385537
  -exchange      EXHF   =         0.00000000
  -V(xc)+E(xc)   XCENC  =       178.43384636
  PAW double counting   =     30130.99729883   -29217.27763806
  entropy T*S    EENTRO =        -0.02166364
  eigenvalues    EBANDS =      -868.57501365
  atomic energy  EATOM  =     27259.89416086
  Solvation  Ediel_sol  =         0.00000000
  ---------------------------------------------------
  free energy    TOTEN  =      -230.13839025 eV

  energy without entropy =     -230.11672661  energy(sigma->0) =     -230.13116903


--------------------------------------------------------------------------------------------------------




--------------------------------------- Iteration      1(  21)  ---------------------------------------


    POTLOK:  cpu time    0.1249: real time    0.1260
    SETDIJ:  cpu time    0.0098: real time    0.0098
    EDDIAG:  cpu time    1.2716: real time    1.2819
  RMM-DIIS:  cpu time    2.4697: real time    2.4892
    ORTHCH:  cpu time    0.2180: real time    0.2197
       DOS:  cpu time    0.0011: real time    0.0011
    CHARGE:  cpu time    0.3766: real time    0.3793
    MIXING:  cpu time    0.0070: real time    0.0070
    --------------------------------------------
      LOOP:  cpu time    4.4787: real time    4.5140

 eigenvalue-minimisations  :  1005
 total energy-change (2. order) :-0.2113707E-03  (-0.7677179E-05)
 number of electron     376.0000047 magnetization 
 augmentation part      112.9363303 magnetization 

 Broyden mixing:
  rms(total) = 0.30348E-02    rms(broyden)= 0.30333E-02
  rms(prec ) = 0.48627E-02
  weight for this iteration     100.00

 eigenvalues of (default mixing * dielectric matrix)
  average eigenvalue GAMMA=   0.7582
  2.6026  2.2005  1.2244  1.0668  1.0668  0.7881  0.5203  0.5203  0.1299  0.3990
  0.3396  0.3059  0.2725  0.2198  0.2325  0.2430

 Free energy of the ion-electron system (eV)
  ---------------------------------------------------
  alpha Z        PSCENC =       975.10247152
  Ewald energy   TEWEN  =     91546.76200289
  -Hartree energ DENC   =   -120235.73577011
  -exchange      EXHF   =         0.00000000
  -V(xc)+E(xc)   XCENC  =       178.43689043
  PAW double counting   =     30131.36545871   -29217.63659497
  entropy T*S    EENTRO =        -0.02152401
  eigenvalues    EBANDS =      -868.30569694
  atomic energy  EATOM  =     27259.89416086
  Solvation  Ediel_sol  =         0.00000000
  ---------------------------------------------------
  free energy    TOTEN  =      -230.13860162 eV

  energy without entropy =     -230.11707761  energy(sigma->0) =     -230.13142695


--------------------------------------------------------------------------------------------------------




--------------------------------------- Iteration      1(  22)  ---------------------------------------


    POTLOK:  cpu time    0.1283: real time    0.1293
    SETDIJ:  cpu time    0.0096: real time    0.0097
    EDDIAG:  cpu time    1.2225: real time    1.2321
  RMM-DIIS:  cpu time    2.6502: real time    2.6723
    ORTHCH:  cpu time    0.2198: real time    0.2214
       DOS:  cpu time    0.0011: real time    0.0011
    CHARGE:  cpu time    0.3791: real time    0.3820
    MIXING:  cpu time    0.0072: real time    0.0072
    --------------------------------------------
      LOOP:  cpu time    4.6178: real time    4.6550

 eigenvalue-minimisations  :   984
 total energy-change (2. order) :-0.1960664E-03  (-0.4112928E-05)
 number of electron     376.0000047 magnetization 
 augmentation part      112.9358833 magnetization 

 Broyden mixing:
  rms(total) = 0.23652E-02    rms(broyden)= 0.23651E-02
  rms(prec ) = 0.37552E-02
  weight for this iteration     100.00

 eigenvalues of (default mixing * dielectric matrix)
  average eigenvalue GAMMA=   0.7774
  2.5191  2.5191  1.2851  1.2128  1.2128  0.7282  0.7282  0.4767  0.4529  0.1299
  0.3585  0.3328  0.2942  0.2733  0.2196  0.2399  0.2317

 Free energy of the ion-electron system (eV)
  ---------------------------------------------------
  alpha Z        PSCENC =       975.10247152
  Ewald energy   TEWEN  =     91546.76200289
  -Hartree energ DENC   =   -120236.06646382
  -exchange      EXHF   =         0.00000000
  -V(xc)+E(xc)   XCENC  =       178.43855117
  PAW double counting   =     30130.20796694   -29216.46075476
  entropy T*S    EENTRO =        -0.02147042
  eigenvalues    EBANDS =      -867.99526206
  atomic energy  EATOM  =     27259.89416086
  Solvation  Ediel_sol  =         0.00000000
  ---------------------------------------------------
  free energy    TOTEN  =      -230.13879768 eV

  energy without entropy =     -230.11732726  energy(sigma->0) =     -230.13164088


--------------------------------------------------------------------------------------------------------




--------------------------------------- Iteration      1(  23)  ---------------------------------------


    POTLOK:  cpu time    0.1284: real time    0.1293
    SETDIJ:  cpu time    0.0097: real time    0.0098
    EDDIAG:  cpu time    1.2542: real time    1.2644
  RMM-DIIS:  cpu time    2.4898: real time    2.5096
    ORTHCH:  cpu time    0.2119: real time    0.2135
       DOS:  cpu time    0.0011: real time    0.0011
    CHARGE:  cpu time    0.3668: real time    0.3695
    MIXING:  cpu time    0.0079: real time    0.0079
    --------------------------------------------
      LOOP:  cpu time    4.4697: real time    4.5051

 eigenvalue-minimisations  :   985
 total energy-change (2. order) :-0.2594498E-03  (-0.4189112E-05)
 number of electron     376.0000047 magnetization 
 augmentation part      112.9352351 magnetization 

 Broyden mixing:
  rms(total) = 0.20503E-02    rms(broyden)= 0.20499E-02
  rms(prec ) = 0.30159E-02
  weight for this iteration     100.00

 eigenvalues of (default mixing * dielectric matrix)
  average eigenvalue GAMMA=   0.7869
  2.6295  2.6295  1.3580  1.2869  1.2869  0.7816  0.7816  0.4959  0.4959  0.1299
  0.3867  0.3607  0.3024  0.2823  0.2650  0.2197  0.2395  0.2316

 Free energy of the ion-electron system (eV)
  ---------------------------------------------------
  alpha Z        PSCENC =       975.10247152
  Ewald energy   TEWEN  =     91546.76200289
  -Hartree energ DENC   =   -120236.50187902
  -exchange      EXHF   =         0.00000000
  -V(xc)+E(xc)   XCENC  =       178.43995978
  PAW double counting   =     30128.48690672   -29214.71785867
  entropy T*S    EENTRO =        -0.02138402
  eigenvalues    EBANDS =      -867.58343721
  atomic energy  EATOM  =     27259.89416086
  Solvation  Ediel_sol  =         0.00000000
  ---------------------------------------------------
  free energy    TOTEN  =      -230.13905713 eV

  energy without entropy =     -230.11767312  energy(sigma->0) =     -230.13192913


--------------------------------------------------------------------------------------------------------




--------------------------------------- Iteration      1(  24)  ---------------------------------------


    POTLOK:  cpu time    0.1235: real time    0.1243
    SETDIJ:  cpu time    0.0100: real time    0.0100
    EDDIAG:  cpu time    1.2647: real time    1.2744
  RMM-DIIS:  cpu time    2.5502: real time    2.5710
    ORTHCH:  cpu time    0.2238: real time    0.2254
       DOS:  cpu time    0.0011: real time    0.0011
    CHARGE:  cpu time    0.3864: real time    0.3895
    MIXING:  cpu time    0.0081: real time    0.0081
    --------------------------------------------
      LOOP:  cpu time    4.5677: real time    4.6038

 eigenvalue-minimisations  :   932
 total energy-change (2. order) :-0.2218553E-03  (-0.3485055E-05)
 number of electron     376.0000047 magnetization 
 augmentation part      112.9351832 magnetization 

 Broyden mixing:
  rms(total) = 0.16411E-02    rms(broyden)= 0.16409E-02
  rms(prec ) = 0.23203E-02
  weight for this iteration     100.00

 eigenvalues of (default mixing * dielectric matrix)
  average eigenvalue GAMMA=   0.8116
  3.1249  2.4689  1.7091  1.2113  1.2113  1.0181  0.7398  0.6513  0.4792  0.4563
  0.1299  0.3624  0.3440  0.3028  0.2733  0.2197  0.2487  0.2386  0.2301

 Free energy of the ion-electron system (eV)
  ---------------------------------------------------
  alpha Z        PSCENC =       975.10247152
  Ewald energy   TEWEN  =     91546.76200289
  -Hartree energ DENC   =   -120236.78184921
  -exchange      EXHF   =         0.00000000
  -V(xc)+E(xc)   XCENC  =       178.44067792
  PAW double counting   =     30128.05227320   -29214.27941940
  entropy T*S    EENTRO =        -0.02122351
  eigenvalues    EBANDS =      -867.30837325
  atomic energy  EATOM  =     27259.89416086
  Solvation  Ediel_sol  =         0.00000000
  ---------------------------------------------------
  free energy    TOTEN  =      -230.13927899 eV

  energy without entropy =     -230.11805548  energy(sigma->0) =     -230.13220448


--------------------------------------------------------------------------------------------------------




--------------------------------------- Iteration      1(  25)  ---------------------------------------


    POTLOK:  cpu time    0.1274: real time    0.1284
    SETDIJ:  cpu time    0.0099: real time    0.0100
    EDDIAG:  cpu time    1.3077: real time    1.3184
  RMM-DIIS:  cpu time    2.7604: real time    2.7833
    ORTHCH:  cpu time    0.2228: real time    0.2245
       DOS:  cpu time    0.0011: real time    0.0011
[...]
     88      -2.2085      2.00000
     89      -2.1908      2.00000
     90      -2.1684      2.00000
     91      -2.1604      2.00000
     92      -2.1314      2.00000
     93      -2.1060      2.00000
     94      -2.0320      2.00000
     95      -2.0071      2.00000
     96      -1.9868      2.00000
     97      -1.9363      2.00000
     98      -1.9273      2.00000
     99      -1.9020      2.00000
    100      -1.8531      2.00000
    101      -1.7977      2.00000
    102      -1.7897      2.00000
    103      -1.7680      2.00000
    104      -1.7636      2.00000
    105      -1.7200      2.00000
    106      -1.7088      2.00000
    107      -1.6793      2.00000
    108      -1.6626      2.00000
    109      -1.6298      2.00000
    110      -1.5810      2.00000
    111      -1.5475      2.00000
    112      -1.4722      2.00000
    113      -1.4688      2.00000
    114      -1.3973      2.00000
    115      -1.3299      2.00000
    116      -1.3222      2.00000
    117      -1.2402      2.00000
    118      -1.2054      2.00000
    119      -1.1636      2.00000
    120      -1.1162      2.00000
    121      -1.0956      2.00000
    122      -1.0715      2.00000
    123      -1.0553      2.00000
    124      -1.0395      2.00000
    125      -1.0289      2.00000
    126      -0.9908      2.00000
    127      -0.9795      2.00000
    128      -0.9568      2.00000
    129      -0.9426      2.00000
    130      -0.9374      2.00000
    131      -0.9007      2.00000
    132      -0.8490      2.00000
    133      -0.7872      2.00000
    134      -0.7687      2.00000
    135      -0.7572      2.00000
    136      -0.7304      2.00000
    137      -0.7214      2.00000
    138      -0.6786      2.00000
    139      -0.6174      2.00000
    140      -0.5961      2.00000
    141      -0.5144      2.00000
    142      -0.4958      2.00000
    143      -0.4353      2.00000
    144      -0.3329      2.00000
    145      -0.2862      2.00000
    146      -0.2080      2.00000
    147      -0.2036      2.00000
    148      -0.1729      2.00000
    149      -0.1366      2.00000
    150      -0.0891      2.00000
    151      -0.0701      2.00000
    152       0.0004      2.00000
    153       0.0129      2.00000
    154       0.0429      2.00000
    155       0.0613      2.00000
    156       0.0688      2.00000
    157       0.0882      2.00000
    158       0.1429      2.00000
    159       0.1784      2.00000
    160       0.1853      2.00000
    161       0.2166      2.00000
    162       0.2593      2.00000
    163       0.2846      2.00000
    164       0.3130      2.00000
    165       0.3236      2.00000
    166       0.3583      2.00001
    167       0.4851      2.00034
    168       0.5572      2.00204
    169       0.5744      2.00298
    170       0.5909      2.00423
    171       0.6089      2.00608
    172       0.6539      2.01378
    173       0.6769      2.01990
    174       0.7521      2.05037
    175       0.7584      2.05326
    176       0.7910      2.06627
    177       0.8203      2.07087
    178       0.8437      2.06489
    179       0.8840      2.02096
    180       0.8941      2.00100
    181       0.9108      1.95839
    182       0.9668      1.71831
    183       1.0052      1.46647
    184       1.0580      1.04132
    185       1.0696      0.94368
    186       1.0798      0.85733
    187       1.1075      0.63298
    188       1.1100      0.61368
    189       1.1302      0.46478
    190       1.1376      0.41413
    191       1.2725     -0.05885
    192       1.3002     -0.07043
    193       1.3339     -0.06657
    194       1.3649     -0.05439
    195       1.3906     -0.04259
    196       1.4717     -0.01384
    197       1.5805     -0.00155
    198       1.7110     -0.00005
    199       1.7881     -0.00000
    200       1.9729     -0.00000
    201       2.2310     -0.00000
    202       2.3176     -0.00000
    203       2.7743     -0.00000
    204       2.9094     -0.00000
    205       2.9359     -0.00000
    206       2.9582     -0.00000
    207       2.9716     -0.00000
    208       3.2394     -0.00000
    209       3.3746     -0.00000
    210       3.4935     -0.00000
    211       3.5244     -0.00000
    212       3.5809     -0.00000
    213       3.7011     -0.00000
    214       3.7910     -0.00000
    215       3.9625     -0.00000
    216       4.1318     -0.00000
    217       4.2029     -0.00000
    218       4.3838     -0.00000
    219       4.4479     -0.00000
    220       4.5901     -0.00000
    221       4.6583     -0.00000
    222       4.8258     -0.00000
    223       5.1955     -0.00000
    224       5.5242     -0.00000
    225       6.1293     -0.00000
    226       6.5152     -0.00000
    227       6.5416      0.00000
    228       6.5955      0.00000


--------------------------------------------------------------------------------------------------------


 soft charge-density along one line, spin component           1
         0         1         2         3         4         5         6         7         8         9
 total charge-density along one line
 
 pseudopotential strength for first ion, spin component:           1
 10.087   0.015   0.004   0.009   0.000  -0.004  -0.008   0.000
  0.015  -0.002  -0.000  -0.000  -0.000  -0.000  -0.000   0.000
  0.004  -0.000  -4.242  -0.007   0.001  -0.009  -0.003   0.000
  0.009  -0.000  -0.007  -4.253   0.004  -0.003  -0.014   0.001
  0.000  -0.000   0.001   0.004  -4.238   0.000   0.001  -0.008
 -0.004  -0.000  -0.009  -0.003   0.000  -0.770  -0.000   0.000
 -0.008  -0.000  -0.003  -0.014   0.001  -0.000  -0.770   0.000
  0.000   0.000   0.000   0.001  -0.008   0.000   0.000  -0.770
 total augmentation occupancy for first ion, spin component:           1
  1.616  -0.842   0.025   0.002  -0.069   0.040   0.076  -0.026
 -0.842   1.165  -0.239  -0.493   0.094  -0.095  -0.208   0.034
  0.025  -0.239   0.863   0.203  -0.004   0.120   0.059  -0.008
  0.002  -0.493   0.203   1.277  -0.003   0.059   0.234  -0.011
 -0.069   0.094  -0.004  -0.003   0.799  -0.009  -0.012   0.100
  0.040  -0.095   0.120   0.059  -0.009   0.023   0.024  -0.005
  0.076  -0.208   0.059   0.234  -0.012   0.024   0.065  -0.007
 -0.026   0.034  -0.008  -0.011   0.100  -0.005  -0.007   0.014


------------------------ aborting loop because EDIFF is reached ----------------------------------------


    CHARGE:  cpu time    0.3871: real time    0.3903
    FORLOC:  cpu time    0.0435: real time    0.0438
    FORNL :  cpu time    2.2981: real time    2.3165
    STRESS:  cpu time    6.6411: real time    6.6953
    FORCOR:  cpu time    0.1556: real time    0.1568
    FORHAR:  cpu time    0.0696: real time    0.0702
    MIXING:  cpu time    0.0049: real time    0.0049
    OFIELD:  cpu time    0.0000: real time    0.0000

  FORCE on cell =-STRESS in cart. coord.  units (eV):
  Direction    XX          YY          ZZ          XY          YZ          ZX
  --------------------------------------------------------------------------------------
  Alpha Z   975.10247   975.10247   975.10247
  Ewald  111337.64094111336.59305************  -206.98219   256.21543   -81.31878
  Hartree118074.28738118049.76707************  -134.64092   109.64801   -47.08732
  E(xc)   -1666.00827 -1665.76896 -1673.39084    -0.46669     0.74912    -0.24475
  Local  ************************240071.58354   331.82947  -341.70509   121.68004
  n-local   124.06373   122.90180    91.80225    -0.83628     0.51862     0.55684
  augment  1895.45867  1893.87379  1931.78813     2.19245    -3.98991     0.79778
  Kinetic  5523.46553  5514.24902  5600.68469     9.93597   -22.34757     7.50922
  Fock        0.00000     0.00000     0.00000     0.00000     0.00000     0.00000
  -------------------------------------------------------------------------------------
  Total     -36.16746   -38.91403    -3.35883     1.03181    -0.91141     1.89303
  in kB     -43.07604   -46.34726    -4.00042     1.22891    -1.08550     2.25463
  external pressure =      -31.14 kB  Pullay stress =        0.00 kB


 VOLUME and BASIS-vectors are now :
 -----------------------------------------------------------------------------
  energy-cutoff  :      450.00
  volume of cell :     1345.22
      direct lattice vectors                 reciprocal lattice vectors
     7.296955120 -4.212899000  0.000000000     0.137043463  0.000000000  0.000000000
     0.000000000  8.425798000  0.000000000     0.068521732  0.118683121  0.000000000
     0.000000000  0.000000000 21.879635000     0.000000000  0.000000000  0.045704602

  length of vectors
     8.425798004  8.425798000 21.879635000     0.137043463  0.137043463  0.045704602


 FORCES acting on ions
    electron-ion (+dipol)            ewald-force                    non-local-force                 convergence-correction
 -----------------------------------------------------------------------------------------------
   0.141E+02 0.259E+02 -.892E+03   -.150E+02 -.305E+02 0.882E+03   0.114E+01 0.361E+01 0.993E+01   -.325E-02 -.141E-01 0.104E-01
   -.917E+02 0.580E+02 -.159E+04   0.956E+02 -.565E+02 0.161E+04   -.363E+01 -.102E+01 -.223E+02   0.673E-02 0.202E-01 0.377E-01
   0.636E+02 -.120E+03 -.155E+04   -.727E+02 0.145E+03 0.160E+04   0.929E+01 -.249E+02 -.547E+02   0.318E-01 -.329E-01 -.370E-01
   0.382E+00 0.589E+00 0.234E+04   -.428E+00 -.679E+00 -.234E+04   0.286E-01 -.352E-01 -.121E+01   0.243E-01 0.828E-01 0.160E-01
   0.556E+00 0.514E+00 0.234E+04   -.613E+00 -.513E+00 -.234E+04   -.477E-02 -.388E-01 -.112E+01   0.197E-01 -.752E-03 -.305E-02
   -.897E-01 0.506E+00 0.234E+04   0.183E-01 -.569E+00 -.234E+04   0.200E-01 -.838E-02 -.114E+01   0.400E-01 0.632E-01 0.214E-01
   0.116E+00 -.137E-01 0.234E+04   -.862E-01 0.825E-01 -.234E+04   0.398E-02 0.235E-01 -.116E+01   -.165E-01 -.285E-01 0.550E-01
   0.195E+00 0.608E-01 0.234E+04   -.117E+00 -.447E-01 -.234E+04   -.181E-02 0.239E-01 -.125E+01   -.832E-01 -.814E-02 0.185E-01
   -.263E+00 0.472E-01 0.234E+04   0.236E+00 0.164E-01 -.234E+04   0.220E-01 0.221E-01 -.121E+01   0.245E-01 -.933E-01 0.237E-02
   0.712E-01 -.720E+00 0.234E+04   0.335E-01 0.555E+00 -.234E+04   -.615E-01 0.103E+00 -.110E+01   -.488E-01 0.909E-02 0.250E-01
   -.651E+00 -.504E+00 0.234E+04   0.640E+00 0.555E+00 -.234E+04   0.282E-02 -.413E-01 -.123E+01   -.168E-02 0.300E-01 -.869E-02
   -.327E+00 -.561E+00 0.234E+04   0.317E+00 0.597E+00 -.234E+04   -.170E-01 0.116E-01 -.102E+01   0.416E-01 -.543E-01 0.506E-02
   0.251E+01 -.400E+01 0.855E+03   -.266E+01 0.401E+01 -.855E+03   0.659E-01 0.713E-01 -.424E+00   0.253E-02 -.448E-01 0.179E-01
   -.482E+01 -.195E-01 0.860E+03   0.474E+01 0.259E-01 -.860E+03   0.182E+00 -.659E-02 -.208E+00   -.149E-01 0.495E-01 0.440E-01
   -.155E+01 -.406E+01 0.856E+03   0.163E+01 0.389E+01 -.856E+03   -.290E-01 0.171E+00 -.227E+00   0.397E-01 0.427E-01 0.514E-01
   0.256E+01 0.624E+01 0.864E+03   -.258E+01 -.638E+01 -.864E+03   0.243E-01 -.239E-02 -.401E+00   -.451E-01 0.583E-01 0.214E-01
   0.116E+01 0.260E+01 0.865E+03   -.125E+01 -.256E+01 -.865E+03   0.567E-01 -.288E-02 -.409E+00   0.472E-01 -.347E-01 -.203E-01
   0.370E+01 0.557E+01 0.862E+03   -.377E+01 -.565E+01 -.861E+03   -.651E-01 -.318E-01 -.281E+00   0.481E-01 0.627E-01 0.126E-01
   -.223E-01 -.256E+01 0.865E+03   0.121E+00 0.274E+01 -.865E+03   -.189E-01 -.748E-01 -.418E+00   -.900E-01 -.132E-01 0.379E-01
   -.130E+01 -.203E+01 0.867E+03   0.140E+01 0.210E+01 -.866E+03   -.489E-02 -.654E-02 -.506E+00   -.439E-01 -.157E-01 0.410E-01
   -.273E+01 -.169E+01 0.863E+03   0.277E+01 0.195E+01 -.863E+03   0.261E-01 -.653E-01 -.371E+00   0.556E-01 -.106E+00 0.531E-02
   -.771E+00 0.260E+01 -.624E+03   0.672E+00 -.273E+01 0.624E+03   0.107E+00 0.687E-01 0.719E+00   -.201E-01 0.313E-01 -.104E+00
   -.148E+00 -.226E+01 -.635E+03   0.223E+00 0.233E+01 0.635E+03   -.339E-01 -.671E-01 0.400E+00   -.437E-01 0.186E-01 0.148E-02
   -.332E+01 0.470E+01 -.669E+03   0.306E+01 -.445E+01 0.669E+03   0.282E+00 -.313E+00 -.118E+00   0.118E-01 0.330E-01 0.273E-01
   -.144E+01 0.136E+02 -.650E+03   0.100E+01 -.128E+02 0.651E+03   0.383E+00 -.767E+00 -.705E+00   -.382E-03 0.124E-01 0.279E-01
   0.131E+02 0.251E+01 -.627E+03   -.125E+02 -.260E+01 0.627E+03   -.775E+00 0.408E-01 0.136E+00   0.842E-02 -.197E-01 -.138E-01
   -.390E+01 -.144E+02 -.634E+03   0.383E+01 0.143E+02 0.634E+03   -.408E-01 0.161E+00 0.193E+00   0.229E-01 -.423E-01 -.218E-01
   -.669E+01 -.535E+01 -.628E+03   0.670E+01 0.539E+01 0.627E+03   0.125E-01 -.577E-02 0.536E+00   0.257E-01 0.773E-02 0.101E-01
   0.236E+01 0.219E+01 -.629E+03   -.231E+01 -.222E+01 0.628E+03   0.288E-02 -.945E-01 0.413E+00   -.481E-01 0.274E-01 -.162E-01
   0.695E+00 0.292E+00 -.629E+03   -.775E+00 -.460E+00 0.629E+03   -.144E-01 0.148E+00 0.355E+00   0.654E-01 -.397E-01 -.765E-01
   -.208E+02 -.907E+01 -.216E+04   0.213E+02 0.923E+01 0.216E+04   -.506E+00 0.152E-01 0.133E+01   -.436E-02 -.139E-01 -.292E-01
   0.138E+02 0.320E+02 -.216E+04   -.143E+02 -.326E+02 0.216E+04   0.513E+00 0.595E+00 0.134E+01   -.297E-03 0.255E-01 -.453E-02
   0.428E+02 -.819E+01 -.213E+04   -.429E+02 0.804E+01 0.213E+04   -.113E+00 0.352E+00 0.126E+01   0.472E-03 -.313E-01 -.141E-01
   -.155E+02 0.305E+01 -.217E+04   0.153E+02 -.332E+01 0.216E+04   0.354E+00 0.211E+00 0.129E+01   0.142E-03 0.304E-01 -.567E-01
   0.266E+02 0.858E+01 -.217E+04   -.266E+02 -.900E+01 0.217E+04   -.200E+00 0.523E+00 0.102E+01   0.308E-01 0.177E-02 -.324E-01
   0.723E+02 0.552E+02 -.198E+04   -.749E+02 -.533E+02 0.199E+04   0.238E+01 -.179E+01 -.380E+01   0.180E-02 -.648E-01 0.995E-03
   -.557E+02 -.604E+02 -.207E+04   0.570E+02 0.624E+02 0.206E+04   -.133E+01 -.193E+01 0.248E+01   0.159E-01 -.244E-01 -.568E-01
   -.678E+02 0.989E+02 -.205E+04   0.679E+02 -.993E+02 0.205E+04   -.322E+00 0.325E+00 -.639E+00   0.123E-01 0.539E-02 -.573E-01
   0.112E+02 -.617E+02 -.212E+04   -.111E+02 0.629E+02 0.212E+04   -.137E+00 -.108E+01 0.126E+01   -.435E-02 0.157E-01 0.402E-01
 -----------------------------------------------------------------------------------------------
   -.763E+01 0.259E+02 0.733E+02   -.110E-12 -.199E-12 0.455E-11   0.759E+01 -.258E+02 -.733E+02   0.109E+00 -.542E-01 -.210E-01
 
 
 POSITION                                       TOTAL-FORCE (eV/Angst)
 -----------------------------------------------------------------------------------
      5.12881      0.59382     10.38368         0.269009     -1.012879      0.011632
      6.64274     -0.52894     10.23063         0.265641      0.519008      0.204991
      4.95954      1.07241     11.43686         0.223805     -0.083724     -0.129442
      7.20031     -1.38846      1.62732         0.005683     -0.045968      0.155426
      2.33567      1.42014      1.62732        -0.043759     -0.042334      0.159627
      4.76799      0.01584      1.62732        -0.012936     -0.011156      0.151339
      7.20031      1.42015      1.62732         0.015445      0.060175      0.107660
      2.33567      4.22875      1.62732        -0.007905      0.028203      0.130887
      4.76799      2.82445      1.62732         0.017957     -0.011242      0.143460
      2.33567      7.03734      1.62732        -0.007218     -0.056988      0.037305
      4.76799      5.63304      1.62732        -0.011301      0.035552      0.130917
      7.20031      4.22874      1.62732         0.012322     -0.010056      0.057094
      1.52490      0.01584      3.92052        -0.078949      0.036852     -0.097184
      3.95722     -1.38846      3.92052         0.084020      0.045718     -0.020947
      6.38953     -2.79276      3.92052         0.090011      0.045735     -0.015973
      1.52490      2.82445      3.92052        -0.037994     -0.087025     -0.132828
      3.95722      1.42015      3.92052         0.007445      0.003102     -0.124833
      6.38953      0.01585      3.92052        -0.092193     -0.059003      0.010767
      1.52490      5.63305      3.92052        -0.011749      0.080064     -0.222439
      3.95722      4.22874      3.92052         0.043465      0.046088     -0.199380
      6.38953      2.82445      3.92052         0.115102      0.078917     -0.264863
      0.71344      4.21451      6.16997        -0.013751     -0.033902      0.224762
      3.15211      5.62790      6.18392        -0.004318      0.010347     -0.033931
      5.56818     -1.37447      6.25487         0.033029     -0.030354     -0.188534
      0.69412      1.45556      6.22660        -0.060985     -0.005952     -0.052151
      3.16947      0.00950      6.18723        -0.097011     -0.073643      0.089695
      0.72828      7.03117      6.19007        -0.094133      0.022722     -0.133924
      5.57703      4.23071      6.17428         0.042587      0.045739      0.047325
      3.15333      2.82368      6.17701         0.004149     -0.104675      0.086866
      5.58586      1.41920      6.19051        -0.030762     -0.062881      0.039244
      2.36197      4.18277      8.45297        -0.023099      0.156365     -0.012096
      4.74743      5.60048      8.48694         0.066436      0.035828     -0.134918
      2.34333      1.36506      8.44216        -0.220007      0.166793      0.064724
      7.18802      4.19864      8.45602         0.101511     -0.026420      0.180022
      2.34534      6.98076      8.48286        -0.126079      0.101501     -0.029871
      4.66244      0.05456      8.60972        -0.148181      0.106425     -0.246444
      7.25411      1.41425      8.43897        -0.013119      0.101306      0.048981
      7.23919     -1.45516      8.59322        -0.239837     -0.021629      0.225619
      4.78679      2.84632      8.47934        -0.022332      0.053392     -0.268587
 -----------------------------------------------------------------------------------
    total drift:                                0.062168      0.142084      0.037463
  FORCES: max atom, RMS     1.048058    0.238794
  Number: max atom                 1
  FORCE total and by dimension    1.491266    1.012879


--------------------------------------------------------------------------------------------------------



  FREE ENERGIE OF THE ION-ELECTRON SYSTEM (eV)
  ---------------------------------------------------
  free  energy   TOTEN  =      -230.75291106 eV

  energy  without entropy=     -230.73912254  energy(sigma->0) =     -230.74831489
 
 d Force = 0.8762609E-01[ 0.787E-01, 0.966E-01]  d Energy = 0.8766500E-01-0.389E-04
 d Force =-0.1094001E+02[-0.109E+02,-0.110E+02]  d Ewald  =-0.1094164E+02 0.163E-02


--------------------------------------------------------------------------------------------------------


    POTLOK:  cpu time    0.1397: real time    0.1866


--------------------------------------------------------------------------------------------------------


 stress matrix after NEB project (eV)
    -36.16746      1.03181      1.89303
      1.03181    -38.91403     -0.91141
      1.89303     -0.91141     -3.35883
  FORCES: max atom, RMS     1.048058    0.238794
  FORCE total and by dimension    1.491266    1.012879
  Stress total and by dimension   53.335037   38.914032
 Quasi-Newton relaxation of ions (Broydens 2nd method)
  g(Force)  = 0.429E-01   g(Stress)= 0.000E+00

 retain information from N=  3 steps
 eigenvalues of (default step * inverse Hessian matrix)
  average eigenvalue of G=   1.9615
 eigenvalue spectrum of G is  2.0272  2.0272  1.8301
  RESET_HESSIAN           0


--------------------------------------------------------------------------------------------------------


    WAVPRE:  cpu time    0.0661: real time    0.1903
    FEWALD:  cpu time    0.0025: real time    0.0025

 real space projection operators:
  total allocation   :      13550.44 KBytes
  max/ min on nodes  :       6779.36       6771.08

    ORTHCH:  cpu time    0.9481: real time    0.9559
     LOOP+:  cpu time   68.3243: real time   69.1896


--------------------------------------- Iteration      6(   1)  ---------------------------------------


    POTLOK:  cpu time    0.1339: real time    0.1392
