<?xml version="1.0" encoding="ISO-8859-1"?>
<modeling>
 <generator>
  <i name="program" type="string"> vasp </i>
  <i name="version" type="string">5.4.4  </i>
  <i name="subversion" type="string">16052018 (build Apr 24 2014 20:13:14) complex standard parallel Constrained Minimization Technique (TS), Periodic NBO, VASPsol, libbeef, VASP2WANNIER90, Constrained Cell Relaxation </i>
  <i name="platform" type="string">Center for Computational Chemistry </i>
  <i name="user" type="string">phu </i>
  <i name="host" type="string">node06 </i>
  <i name="date" type="string">2025 09 27 </i>
  <i name="time" type="string">23:23:51 </i>
 </generator>
 <incar>
  <i type="string" name="SYSTEM"> metal</i>
  <i type="int" name="ISTART">     0</i>
  <i type="string" name="PREC">normal</i>
  <i type="string" name="ALGO">Fast</i>
  <i type="int" name="NSIM">     4</i>
  <i type="int" name="ISPIN">     1</i>
  <i type="int" name="NELMIN">     8</i>
  <i type="int" name="IBRION">     1</i>
  <i name="EDIFFG">     -0.05000000</i>
  <i type="int" name="NSW">  5000</i>
  <i type="int" name="ISIF">     2</i>
  <i type="int" name="ISYM">     0</i>
  <i name="ENCUT">    450.00000000</i>
  <i name="POTIM">      0.20000000</i>
  <i type="string" name="LREAL">A</i>
  <i type="int" name="ISMEAR">     1</i>
  <i name="SIGMA">      0.20000000</i>
  <i type="logical" name="LWAVE"> F  </i>
  <i type="logical" name="LCHARG"> F  </i>
  <v type="int" name="KPOINT_BSE">    -1     0     0     0</v>
  <i type="int" name="VOSKOWN">     0</i>
 </incar>
 <structure name="primitive_cell" >
  <crystal>
   <varray name="basis" >
    <v>       7.29695512      -4.21289900       0.00000000 </v>
    <v>       0.00000000       8.42579800       0.00000000 </v>
    <v>       0.00000000       0.00000000      21.87963500 </v>
   </varray>
   <i name="volume">   1345.21837528 </i>
   <varray name="rec_basis" >
    <v>       0.13704346       0.00000000       0.00000000 </v>
    <v>       0.06852173       0.11868312       0.00000000 </v>
    <v>       0.00000000       0.00000000       0.04570460 </v>
   </varray>
  </crystal>
  <varray name="positions" >
   <v>      -0.29697163       0.43591591       0.47311100 </v>
   <v>      -0.32510817       0.46277179      -0.47700047 </v>
   <v>      -0.36086342       0.32466567       0.39601909 </v>
   <v>      -0.09575684       0.38502481       0.46905787 </v>
   <v>      -0.34369963      -0.33494072       0.39002437 </v>
   <v>      -0.00545251      -0.33522302       0.38503459 </v>
   <v>       0.32615885       0.32039215       0.38558154 </v>
   <v>      -0.00404410       0.32338969       0.38935854 </v>
   <v>       0.32496968      -0.01154850       0.38735229 </v>
   <v>      -0.35245974      -0.00893185       0.38930855 </v>
   <v>      -0.23177746      -0.44684511       0.28160333 </v>
   <v>      -0.01577341      -0.00869695       0.38440538 </v>
   <v>      -0.23717422       0.22045541       0.28782979 </v>
   <v>       0.43690591       0.22221838       0.28185601 </v>
   <v>       0.32405989      -0.34307120       0.38654042 </v>
   <v>       0.42916318      -0.44516508       0.28014091 </v>
   <v>       0.09955347      -0.44887856       0.27883728 </v>
   <v>       0.10043965      -0.11696093       0.28579989 </v>
   <v>      -0.23501156      -0.11839021       0.28053243 </v>
   <v>       0.42829136      -0.12025134       0.28324509 </v>
   <v>       0.09659369       0.22076534       0.28679361 </v>
   <v>      -0.45768900       0.43970300       0.17918600 </v>
   <v>      -0.12435600       0.43970300       0.17918600 </v>
   <v>      -0.45768900       0.10636900       0.17918600 </v>
   <v>      -0.12435600      -0.22696400       0.17918600 </v>
   <v>       0.20897700       0.10636900       0.17918600 </v>
   <v>      -0.45768900      -0.22696400       0.17918600 </v>
   <v>      -0.12435600       0.10636900       0.17918600 </v>
   <v>       0.20897700      -0.22696400       0.17918600 </v>
   <v>       0.20897700       0.43970300       0.17918600 </v>
   <v>      -0.34657800       0.32859100       0.07437600 </v>
   <v>      -0.34657800      -0.33807500       0.07437600 </v>
   <v>      -0.01324500      -0.33807500       0.07437600 </v>
   <v>       0.32008800       0.32859100       0.07437600 </v>
   <v>      -0.01324500       0.32859100       0.07437600 </v>
   <v>       0.32008800      -0.00474200       0.07437600 </v>
   <v>      -0.34657800      -0.00474200       0.07437600 </v>
   <v>      -0.01324500      -0.00474200       0.07437600 </v>
   <v>       0.32008800      -0.33807500       0.07437600 </v>
  </varray>
 </structure>
 <varray name="primitive_index" >
  <v type="int" >        1 </v>
  <v type="int" >        3 </v>
  <v type="int" >       36 </v>
  <v type="int" >        2 </v>
  <v type="int" >       39 </v>
  <v type="int" >       37 </v>
  <v type="int" >       33 </v>
  <v type="int" >       38 </v>
  <v type="int" >       35 </v>
  <v type="int" >       32 </v>
  <v type="int" >       30 </v>
  <v type="int" >       34 </v>
  <v type="int" >       24 </v>
  <v type="int" >       26 </v>
  <v type="int" >       31 </v>
  <v type="int" >       29 </v>
  <v type="int" >       22 </v>
  <v type="int" >       27 </v>
  <v type="int" >       28 </v>
  <v type="int" >       23 </v>
  <v type="int" >       25 </v>
  <v type="int" >       17 </v>
  <v type="int" >       18 </v>
  <v type="int" >       14 </v>
  <v type="int" >       21 </v>
  <v type="int" >       13 </v>
  <v type="int" >       20 </v>
  <v type="int" >       15 </v>
  <v type="int" >       19 </v>
  <v type="int" >       16 </v>
  <v type="int" >        6 </v>
  <v type="int" >        9 </v>
  <v type="int" >        7 </v>
  <v type="int" >        5 </v>
  <v type="int" >        4 </v>
  <v type="int" >       10 </v>
  <v type="int" >       11 </v>
  <v type="int" >       12 </v>
  <v type="int" >        8 </v>
 </varray>
 <kpoints>
  <generation param="Gamma">
   <v type="int" name="divisions">       2        2        1 </v>
   <v name="usershift">      0.00000000       0.00000000       0.00000000 </v>
   <v name="genvec1">      0.50000000       0.00000000       0.00000000 </v>
   <v name="genvec2">     -0.00000000       0.50000000       0.00000000 </v>
   <v name="genvec3">      0.00000000       0.00000000       1.00000000 </v>
   <v name="shift">      0.00000000       0.00000000       0.00000000 </v>
  </generation>
  <varray name="kpointlist" >
   <v>       0.00000000       0.00000000       0.00000000 </v>
   <v>       0.50000000       0.00000000       0.00000000 </v>
   <v>      -0.00000000       0.50000000       0.00000000 </v>
   <v>       0.50000000       0.50000000       0.00000000 </v>
  </varray>
  <varray name="weights" >
   <v>       0.25000000 </v>
   <v>       0.25000000 </v>
   <v>       0.25000000 </v>
   <v>       0.25000000 </v>
  </varray>
 </kpoints>
 <parameters>
  <separator name="general" >
   <i type="string" name="SYSTEM">metal</i>
   <i type="logical" name="LCOMPAT"> F  </i>
  </separator>
  <separator name="electronic" >
   <i type="string" name="PREC">normal</i>
   <i name="ENMAX">    450.00000000</i>
   <i name="ENAUG">    644.87300000</i>
   <i name="EDIFF">      0.00010000</i>
   <i type="int" name="IALGO">    68</i>
   <i type="int" name="IWAVPR">    11</i>
   <i type="int" name="NBANDS">   228</i>
   <i name="NELECT">    376.00000000</i>
   <i type="int" name="TURBO">     0</i>
   <i type="int" name="IRESTART">     0</i>
   <i type="int" name="NREBOOT">     0</i>
   <i type="int" name="NMIN">     0</i>
   <i name="EREF">      0.00000000</i>
   <separator name="electronic smearing" >
    <i type="int" name="ISMEAR">     1</i>
    <i name="SIGMA">      0.20000000</i>
    <i name="KSPACING">      0.50000000</i>
    <i type="logical" name="KGAMMA"> T  </i>
   </separator>
   <separator name="electronic projectors" >
    <i type="logical" name="LREAL"> T  </i>
    <v name="ROPT">     -0.00050000     -0.00050000     -0.00050000</v>
    <i type="int" name="LMAXPAW">  -100</i>
    <i type="int" name="LMAXMIX">     2</i>
    <i type="logical" name="NLSPLINE"> F  </i>
   </separator>
   <separator name="electronic startup" >
    <i type="int" name="ISTART">     0</i>
    <i type="int" name="ICHARG">     2</i>
    <i type="int" name="INIWAV">     1</i>
   </separator>
   <separator name="electronic spin" >
    <i type="int" name="ISPIN">     1</i>
    <i type="logical" name="LNONCOLLINEAR"> F  </i>
    <v name="MAGMOM">      1.00000000      1.00000000      1.00000000      1.00000000      1.00000000      1.00000000      1.00000000      1.00000000      1.00000000      1.00000000      1.00000000      1.00000000      1.00000000      1.00000000      1.00000000      1.00000000      1.00000000      1.00000000      1.00000000      1.00000000
      1.00000000      1.00000000      1.00000000      1.00000000      1.00000000      1.00000000      1.00000000      1.00000000      1.00000000      1.00000000      1.00000000      1.00000000      1.00000000      1.00000000      1.00000000      1.00000000      1.00000000      1.00000000      1.00000000</v>
    <i name="NUPDOWN">     -1.00000000</i>
    <i type="logical" name="LSORBIT"> F  </i>
    <v name="SAXIS">      0.00000000      0.00000000      1.00000000</v>
    <i type="logical" name="LSPIRAL"> F  </i>
    <v name="QSPIRAL">      0.00000000      0.00000000      0.00000000</v>
    <i type="logical" name="LZEROZ"> F  </i>
   </separator>
   <separator name="electronic exchange-correlation" >
    <i type="logical" name="LASPH"> F  </i>
    <i type="logical" name="LMETAGGA"> F  </i>
   </separator>
   <separator name="electronic convergence" >
    <i type="int" name="NELM">    60</i>
    <i type="int" name="NELMDL">    -5</i>
    <i type="int" name="NELMIN">     8</i>
    <i name="ENINI">    450.00000000</i>
    <separator name="electronic convergence detail" >
     <i type="logical" name="LDIAG"> T  </i>
     <i type="logical" name="LSUBROT"> F  </i>
     <i name="WEIMIN">      0.00100000</i>
     <i name="EBREAK">      0.00000011</i>
     <i name="DEPER">      0.30000000</i>
     <i type="int" name="NRMM">     4</i>
     <i name="TIME">      0.40000000</i>
    </separator>
   </separator>
   <separator name="electronic mixer" >
    <i name="AMIX">      0.40000000</i>
    <i name="BMIX">      1.00000000</i>
    <i name="AMIN">      0.10000000</i>
    <i name="AMIX_MAG">      1.60000000</i>
    <i name="BMIX_MAG">      1.00000000</i>
    <separator name="electronic mixer details" >
     <i type="int" name="IMIX">     4</i>
     <i type="logical" name="MIXFIRST"> F  </i>
     <i type="int" name="MAXMIX">   -45</i>
     <i name="WC">    100.00000000</i>
     <i type="int" name="INIMIX">     1</i>
     <i type="int" name="MIXPRE">     1</i>
     <i type="int" name="MREMOVE">     5</i>
    </separator>
   </separator>
   <separator name="electronic dipolcorrection" >
    <i type="logical" name="LDIPOL"> F  </i>
    <i type="logical" name="LMONO"> F  </i>
    <i type="int" name="IDIPOL">     0</i>
    <i name="EPSILON">      1.00000000</i>
    <v name="DIPOL">   -100.00000000   -100.00000000   -100.00000000</v>
    <i name="EFIELD">      0.00000000</i>
   </separator>
  </separator>
  <separator name="grids" >
   <i type="int" name="NGX">    48</i>
   <i type="int" name="NGY">    48</i>
   <i type="int" name="NGZ">   120</i>
   <i type="int" name="NGXF">    96</i>
   <i type="int" name="NGYF">    96</i>
   <i type="int" name="NGZF">   240</i>
   <i type="logical" name="ADDGRID"> F  </i>
  </separator>
  <separator name="ionic" >
   <i type="int" name="NSW">  5000</i>
   <i type="int" name="IBRION">     1</i>
   <i type="int" name="MDALGO">     0</i>
   <i type="int" name="ISIF">     2</i>
   <i name="PSTRESS">      0.00000000</i>
   <i name="EDIFFG">     -0.05000000</i>
   <i type="int" name="NFREE">     0</i>
   <i name="POTIM">      0.20000000</i>
   <i name="SMASS">     -3.00000000</i>
   <i name="SCALEE">      1.00000000</i>
  </separator>
  <separator name="ionic md" >
   <i name="TEBEG">      0.00010000</i>
   <i name="TEEND">      0.00010000</i>
   <i type="int" name="NBLOCK">     1</i>
   <i type="int" name="KBLOCK">  5000</i>
   <i type="int" name="NPACO">   256</i>
   <i name="APACO">     16.00000000</i>
  </separator>
  <separator name="symmetry" >
   <i type="int" name="ISYM">     0</i>
   <i name="SYMPREC">      0.00001000</i>
  </separator>
  <separator name="dos" >
   <i type="int" name="LORBIT">     0</i>
   <v name="RWIGS">     -1.00000000     -1.00000000     -1.00000000</v>
   <i type="int" name="NEDOS">   301</i>
   <i name="EMIN">     10.00000000</i>
   <i name="EMAX">    -10.00000000</i>
   <i name="EFERMI">      0.00000000</i>
  </separator>
  <separator name="writing" >
   <i type="int" name="NWRITE">     2</i>
   <i type="logical" name="LWAVE"> F  </i>
   <i type="logical" name="LDOWNSAMPLE"> F  </i>
   <i type="logical" name="LCHARG"> F  </i>
   <i type="logical" name="LPARD"> F  </i>
   <i type="logical" name="LVTOT"> F  </i>
   <i type="logical" name="LVHAR"> F  </i>
   <i type="logical" name="LELF"> F  </i>
   <i type="logical" name="LOPTICS"> F  </i>
   <v name="STM">      0.00000000      0.00000000      0.00000000      0.00000000      0.00000000      0.00000000      0.00000000</v>
  </separator>
  <separator name="performance" >
   <i type="int" name="NPAR">     4</i>
   <i type="int" name="NSIM">     4</i>
   <i type="int" name="NBLK">    -1</i>
   <i type="logical" name="LPLANE"> T  </i>
   <i type="logical" name="LSCALAPACK"> T  </i>
   <i type="logical" name="LSCAAWARE"> F  </i>
   <i type="logical" name="LSCALU"> F  </i>
   <i type="logical" name="LASYNC"> F  </i>
   <i type="logical" name="LORBITALREAL"> F  </i>
  </separator>
  <separator name="miscellaneous" >
   <i type="int" name="IDIOT">     3</i>
   <i type="int" name="ISPECIAL">     0</i>
   <i type="logical" name="LMUSIC"> F  </i>
   <v name="POMASS">     12.01100000     16.00000000    195.08000000</v>
   <v name="DARWINR">      0.00000000      0.00000000      0.00000000</v>
   <v name="DARWINV">      1.00000000      1.00000000      1.00000000</v>
   <i type="logical" name="LCORR"> T  </i>
  </separator>
  <i type="logical" name="GGA_COMPAT"> T  </i>
  <i type="logical" name="LBERRY"> F  </i>
  <i type="int" name="ICORELEVEL">     0</i>
  <i type="logical" name="LDAU"> F  </i>
  <i type="int" name="I_CONSTRAINED_M">     0</i>
  <separator name="electronic exchange-correlation" >
   <i type="string" name="GGA">--</i>
   <i type="int" name="VOSKOWN">     0</i>
   <i type="logical" name="LHFCALC"> F  </i>
   <i type="string" name="PRECFOCK"></i>
   <i type="logical" name="LSYMGRAD"> F  </i>
   <i type="logical" name="LHFONE"> F  </i>
   <i type="logical" name="LRHFCALC"> F  </i>
   <i type="logical" name="LTHOMAS"> F  </i>
   <i type="logical" name="LMODELHF"> F  </i>
   <i name="ENCUT4O">     -1.00000000</i>
   <i type="int" name="EXXOEP">     0</i>
   <i type="int" name="FOURORBIT">     0</i>
   <i name="AEXX">      0.00000000</i>
   <i name="HFALPHA">      0.00000000</i>
   <i name="MCALPHA">      0.00000000</i>
   <i name="ALDAX">      1.00000000</i>
   <i name="AGGAX">      1.00000000</i>
   <i name="ALDAC">      1.00000000</i>
   <i name="AGGAC">      1.00000000</i>
   <i type="int" name="NKREDX">     1</i>
   <i type="int" name="NKREDY">     1</i>
   <i type="int" name="NKREDZ">     1</i>
   <i type="logical" name="SHIFTRED"> F  </i>
   <i type="logical" name="ODDONLY"> F  </i>
   <i type="logical" name="EVENONLY"> F  </i>
   <i type="int" name="LMAXFOCK">     0</i>
   <i type="int" name="NMAXFOCKAE">     0</i>
   <i type="logical" name="LFOCKAEDFT"> F  </i>
   <i name="HFSCREEN">      0.00000000</i>
   <i name="HFSCREENC">      0.00000000</i>
   <i type="int" name="NBANDSGWLOW">     0</i>
  </separator>
  <separator name="vdW DFT" >
   <i type="logical" name="LUSE_VDW"> F  </i>
   <i name="Zab_VDW">     -0.84910000</i>
   <i name="PARAM1">      0.12340000</i>
   <i name="PARAM2">      1.00000000</i>
   <i name="PARAM3">      0.00000000</i>
  </separator>
  <separator name="model GW" >
   <i type="int" name="MODEL_GW">     0</i>
   <i name="MODEL_EPS0">     20.69566731</i>
   <i name="MODEL_ALPHA">      1.00000000</i>
  </separator>
  <separator name="linear response parameters" >
   <i type="logical" name="LEPSILON"> F  </i>
   <i type="logical" name="LRPA"> F  </i>
   <i type="logical" name="LNABLA"> F  </i>
   <i type="logical" name="LVEL"> F  </i>
   <i type="int" name="KINTER">     0</i>
   <i name="CSHIFT">      0.10000000</i>
   <i name="OMEGAMAX">     -1.00000000</i>
   <i name="DEG_THRESHOLD">      0.00200000</i>
   <i name="RTIME">     -0.10000000</i>
   <i name="WPLASMAI">      0.00000000</i>
   <v name="DFIELD">      0.00000000      0.00000000      0.00000000</v>
   <v name="WPLASMA">      0.00000000      0.00000000      0.00000000      0.00000000      0.00000000      0.00000000      0.00000000      0.00000000      0.00000000</v>
  </separator>
  <separator name="orbital magnetization" >
   <i type="logical" name="NUCIND"> F  </i>
   <v name="MAGPOS">      0.00000000      0.00000000      0.00000000</v>
   <i type="logical" name="LNICSALL"> T  </i>
   <i type="logical" name="ORBITALMAG"> F  </i>
   <i type="logical" name="LMAGBLOCH"> F  </i>
   <i type="logical" name="LCHIMAG"> F  </i>
   <i type="logical" name="LGAUGE"> T  </i>
   <i type="int" name="MAGATOM">     0</i>
   <v name="MAGDIPOL">      0.00000000      0.00000000      0.00000000</v>
   <v name="AVECCONST">      0.00000000      0.00000000      0.00000000</v>
  </separator>
  <separator name="response functions" >
   <i type="logical" name="LADDER"> F  </i>
   <i type="logical" name="LRPAFORCE"> F  </i>
   <i type="logical" name="LFXC"> F  </i>
   <i type="logical" name="LHARTREE"> T  </i>
   <i type="int" name="IBSE">     0</i>
   <v type="int" name="KPOINT">    -1     0     0     0</v>
   <i type="logical" name="LTCTE"> F  </i>
   <i type="logical" name="LTETE"> F  </i>
   <i type="logical" name="LTRIPLET"> F  </i>
   <i type="logical" name="LFXCEPS"> F  </i>
   <i type="logical" name="LFXHEG"> F  </i>
   <i type="int" name="NATURALO">     2</i>
   <i type="logical" name="L2ORDER"> F  </i>
   <i type="logical" name="LMP2LT"> F  </i>
   <i type="logical" name="LUSEW"> F  </i>
   <i name="ENCUTGW">     -2.00000000</i>
   <i name="ENCUTGWSOFT">     -2.00000000</i>
   <i name="ENCUTLF">     -1.00000000</i>
   <i type="int" name="LMAXMP2">    -1</i>
   <i name="SCISSOR">      0.00000000</i>
   <i type="int" name="NOMEGA">     0</i>
   <i type="int" name="NOMEGAR">     0</i>
   <i type="int" name="NBANDSGW">    -1</i>
   <i type="int" name="NBANDSO">    -1</i>
   <i type="int" name="NBANDSV">    -1</i>
   <i type="int" name="NELM">     1</i>
   <i type="int" name="NELMHF">     1</i>
   <i type="int" name="DIM">     3</i>
   <i type="int" name="ANTIRES">     0</i>
   <i name="OMEGAMAX">    -30.00000000</i>
   <i name="OMEGAMIN">    -30.00000000</i>
   <i name="OMEGATL">   -200.00000000</i>
   <i type="int" name="OMEGAGRID">   140</i>
   <i name="CSHIFT">     -0.10000000</i>
   <i type="logical" name="SELFENERGY"> F  </i>
   <i type="logical" name="LSPECTRAL"> F  </i>
   <i type="logical" name="LSPECTRALGW"> F  </i>
   <i type="logical" name="LSINGLES"> F  </i>
   <i type="logical" name="LFERMIGW"> F  </i>
   <i type="logical" name="ODDONLYGW"> F  </i>
   <i type="logical" name="EVENONLYGW"> F  </i>
   <i type="int" name="NKREDLFX">     1</i>
   <i type="int" name="NKREDLFY">     1</i>
   <i type="int" name="NKREDLFZ">     1</i>
   <i type="int" name="MAXMEM">  2800</i>
   <i type="int" name="TELESCOPE">     0</i>
   <i type="int" name="TAUPAR">     1</i>
   <i type="int" name="OMEGAPAR">    -1</i>
   <i name="LAMBDA">      1.00000000</i>
  </separator>
  <separator name="External order field" >
   <i name="OFIELD_KAPPA">      0.00000000</i>
   <v name="OFIELD_K">      0.00000000      0.00000000      0.00000000</v>
   <i name="OFIELD_Q6_NEAR">      0.00000000</i>
   <i name="OFIELD_Q6_FAR">      0.00000000</i>
   <i name="OFIELD_A">      0.00000000</i>
  </separator>
  <separator name="solvation model" >
   <i type="logical" name="LSOL"> F  </i>
  </separator>
 </parameters>
 <atominfo>
  <atoms>      39 </atoms>
  <types>       3 </types>
  <array name="atoms" >
   <dimension dim="1">ion</dimension>
   <field type="string">element</field>
   <field type="int">atomtype</field>
   <set>
    <rc><c>C </c><c>   1</c></rc>
    <rc><c>O </c><c>   2</c></rc>
    <rc><c>O </c><c>   2</c></rc>
    <rc><c>Pt</c><c>   3</c></rc>
    <rc><c>Pt</c><c>   3</c></rc>
    <rc><c>Pt</c><c>   3</c></rc>
    <rc><c>Pt</c><c>   3</c></rc>
    <rc><c>Pt</c><c>   3</c></rc>
    <rc><c>Pt</c><c>   3</c></rc>
    <rc><c>Pt</c><c>   3</c></rc>
    <rc><c>Pt</c><c>   3</c></rc>
    <rc><c>Pt</c><c>   3</c></rc>
    <rc><c>Pt</c><c>   3</c></rc>
    <rc><c>Pt</c><c>   3</c></rc>
    <rc><c>Pt</c><c>   3</c></rc>
    <rc><c>Pt</c><c>   3</c></rc>
    <rc><c>Pt</c><c>   3</c></rc>
    <rc><c>Pt</c><c>   3</c></rc>
    <rc><c>Pt</c><c>   3</c></rc>
    <rc><c>Pt</c><c>   3</c></rc>
    <rc><c>Pt</c><c>   3</c></rc>
    <rc><c>Pt</c><c>   3</c></rc>
    <rc><c>Pt</c><c>   3</c></rc>
    <rc><c>Pt</c><c>   3</c></rc>
    <rc><c>Pt</c><c>   3</c></rc>
    <rc><c>Pt</c><c>   3</c></rc>
    <rc><c>Pt</c><c>   3</c></rc>
    <rc><c>Pt</c><c>   3</c></rc>
    <rc><c>Pt</c><c>   3</c></rc>
    <rc><c>Pt</c><c>   3</c></rc>
    <rc><c>Pt</c><c>   3</c></rc>
    <rc><c>Pt</c><c>   3</c></rc>
    <rc><c>Pt</c><c>   3</c></rc>
    <rc><c>Pt</c><c>   3</c></rc>
    <rc><c>Pt</c><c>   3</c></rc>
    <rc><c>Pt</c><c>   3</c></rc>
    <rc><c>Pt</c><c>   3</c></rc>
    <rc><c>Pt</c><c>   3</c></rc>
    <rc><c>Pt</c><c>   3</c></rc>
   </set>
  </array>
  <array name="atomtypes" >
   <dimension dim="1">type</dimension>
   <field type="int">atomspertype</field>
   <field type="string">element</field>
   <field>mass</field>
   <field>valence</field>
   <field type="string">pseudopotential</field>
   <set>
    <rc><c>   1</c><c>C </c><c>     12.01100000</c><c>      4.00000000</c><c> PAW_PBE C 08Apr2002                    </c></rc>
    <rc><c>   2</c><c>O </c><c>     16.00000000</c><c>      6.00000000</c><c> PAW_PBE O 08Apr2002                    </c></rc>
    <rc><c>  36</c><c>Pt</c><c>    195.08000000</c><c>     10.00000000</c><c>  PAW_PBE Pt 04Feb2005                  </c></rc>
   </set>
  </array>
 </atominfo>
 <structure name="initialpos" >
  <crystal>
   <varray name="basis" >
    <v>       7.29695512      -4.21289900       0.00000000 </v>
    <v>       0.00000000       8.42579800       0.00000000 </v>
    <v>       0.00000000       0.00000000      21.87963500 </v>
   </varray>
   <i name="volume">   1345.21837528 </i>
   <varray name="rec_basis" >
    <v>       0.13704346       0.00000000       0.00000000 </v>
    <v>       0.06852173       0.11868312       0.00000000 </v>
    <v>       0.00000000       0.00000000       0.04570460 </v>
   </varray>
  </crystal>
  <varray name="positions" >
   <v>       0.70302837       0.43591591       0.47311100 </v>
   <v>       0.90424316       0.38502481       0.46905787 </v>
   <v>       0.67489183       0.46277179       0.52299953 </v>
   <v>       0.98675500       0.32859100       0.07437600 </v>
   <v>       0.32008800       0.32859100       0.07437600 </v>
   <v>       0.65342200       0.32859100       0.07437600 </v>
   <v>       0.98675500       0.66192500       0.07437600 </v>
   <v>       0.32008800       0.66192500       0.07437600 </v>
   <v>       0.65342200       0.66192500       0.07437600 </v>
   <v>       0.32008800       0.99525800       0.07437600 </v>
   <v>       0.65342200       0.99525800       0.07437600 </v>
   <v>       0.98675500       0.99525800       0.07437600 </v>
   <v>       0.20897700       0.10636900       0.17918600 </v>
   <v>       0.54231100       0.10636900       0.17918600 </v>
   <v>       0.87564400       0.10636900       0.17918600 </v>
   <v>       0.20897700       0.43970300       0.17918600 </v>
   <v>       0.54231100       0.43970300       0.17918600 </v>
   <v>       0.87564400       0.43970300       0.17918600 </v>
   <v>       0.20897700       0.77303600       0.17918600 </v>
   <v>       0.54231100       0.77303600       0.17918600 </v>
   <v>       0.87564400       0.77303600       0.17918600 </v>
   <v>       0.09955347       0.55112144       0.27883728 </v>
   <v>       0.42829136       0.87974866       0.28324509 </v>
   <v>       0.76282578       0.22045541       0.28782979 </v>
   <v>       0.09659369       0.22076534       0.28679361 </v>
   <v>       0.43690591       0.22221838       0.28185601 </v>
   <v>       0.10043965       0.88303907       0.28579989 </v>
   <v>       0.76498844       0.88160979       0.28053243 </v>
   <v>       0.42916318       0.55483492       0.28014091 </v>
   <v>       0.76822254       0.55315489       0.28160333 </v>
   <v>       0.32405989       0.65692880       0.38654042 </v>
   <v>       0.64754026       0.99106815       0.38930855 </v>
   <v>       0.32615885       0.32039215       0.38558154 </v>
   <v>       0.98422659       0.99130305       0.38440538 </v>
   <v>       0.32496968       0.98845150       0.38735229 </v>
   <v>       0.63913658       0.32466567       0.39601909 </v>
   <v>       0.99454749       0.66477698       0.38503459 </v>
   <v>       0.99595590       0.32338969       0.38935854 </v>
   <v>       0.65630037       0.66505928       0.39002437 </v>
  </varray>
  <varray name="selective"  type="logical" >
   <v type="logical" >  T  T  T </v>
   <v type="logical" >  T  T  T </v>
   <v type="logical" >  T  T  T </v>
   <v type="logical" >  F  F  F </v>
   <v type="logical" >  F  F  F </v>
   <v type="logical" >  F  F  F </v>
   <v type="logical" >  F  F  F </v>
   <v type="logical" >  F  F  F </v>
   <v type="logical" >  F  F  F </v>
   <v type="logical" >  F  F  F </v>
   <v type="logical" >  F  F  F </v>
   <v type="logical" >  F  F  F </v>
   <v type="logical" >  F  F  F </v>
   <v type="logical" >  F  F  F </v>
   <v type="logical" >  F  F  F </v>
   <v type="logical" >  F  F  F </v>
   <v type="logical" >  F  F  F </v>
   <v type="logical" >  F  F  F </v>
   <v type="logical" >  F  F  F </v>
   <v type="logical" >  F  F  F </v>
   <v type="logical" >  F  F  F </v>
   <v type="logical" >  T  T  T </v>
   <v type="logical" >  T  T  T </v>
   <v type="logical" >  T  T  T </v>
   <v type="logical" >  T  T  T </v>
   <v type="logical" >  T  T  T </v>
   <v type="logical" >  T  T  T </v>
   <v type="logical" >  T  T  T </v>
   <v type="logical" >  T  T  T </v>
   <v type="logical" >  T  T  T </v>
   <v type="logical" >  T  T  T </v>
   <v type="logical" >  T  T  T </v>
   <v type="logical" >  T  T  T </v>
   <v type="logical" >  T  T  T </v>
   <v type="logical" >  T  T  T </v>
   <v type="logical" >  T  T  T </v>
   <v type="logical" >  T  T  T </v>
   <v type="logical" >  T  T  T </v>
   <v type="logical" >  T  T  T </v>
  </varray>
  <nose>
   <v>      -3.00000000       0.00000000       0.00010000       0.00010000 </v>
  </nose>
 </structure>
 <calculation>
  <scstep>
   <time name="dav">    8.32    8.39</time>
   <time name="total">    8.47    8.70</time>
   <energy>
    <i name="alphaZ">    975.10247152 </i>
    <i name="ewald">  91546.76200289 </i>
    <i name="hartreedc">-120634.67577086 </i>
    <i name="XCdc">    189.84328092 </i>
    <i name="pawpsdc">  24789.08602224 </i>
    <i name="pawaedc"> -23775.73976456 </i>
    <i name="eentropy">     -0.01126949 </i>
    <i name="bandstr">   2072.23058856 </i>
    <i name="atom">  27259.89416086 </i>
    <i name="e_fr_energy">   2422.49172208 </i>
    <i name="e_wo_entrp">   2422.50299157 </i>
    <i name="e_0_energy">   2422.49547857 </i>
   </energy>
  </scstep>
  <scstep>
   <time name="dav">    8.82    8.89</time>
   <time name="total">    8.83    8.90</time>
   <energy>
    <i name="e_fr_energy">    -62.25308673 </i>
    <i name="e_wo_entrp">    -62.24505398 </i>
    <i name="e_0_energy">    -62.25040915 </i>
   </energy>
  </scstep>
  <scstep>
   <time name="dav">    9.26    9.33</time>
   <time name="total">    9.26    9.33</time>
   <energy>
    <i name="e_fr_energy">   -241.05571600 </i>
    <i name="e_wo_entrp">   -241.04917363 </i>
    <i name="e_0_energy">   -241.05353521 </i>
   </energy>
  </scstep>
  <scstep>
   <time name="dav">   10.09   10.17</time>
   <time name="total">   10.09   10.17</time>
   <energy>
    <i name="e_fr_energy">   -248.80334441 </i>
    <i name="e_wo_entrp">   -248.79771077 </i>
    <i name="e_0_energy">   -248.80146653 </i>
   </energy>
  </scstep>
  <scstep>
   <time name="dav">   10.26   10.34</time>
   <time name="total">   10.65   10.73</time>
   <energy>
    <i name="e_fr_energy">   -249.04054022 </i>
    <i name="e_wo_entrp">   -249.03498586 </i>
    <i name="e_0_energy">   -249.03868876 </i>
   </energy>
  </scstep>
  <scstep>
   <time name="diag">    1.28    1.29</time>
   <time name="diis">    4.53    4.57</time>
   <time name="orth">    0.21    0.22</time>
   <time name="total">    6.54    6.59</time>
   <energy>
    <i name="e_fr_energy">   -247.01421377 </i>
    <i name="e_wo_entrp">   -246.86825636 </i>
    <i name="e_0_energy">   -246.96556130 </i>
   </energy>
  </scstep>
  <scstep>
   <time name="diag">    1.30    1.31</time>
   <time name="diis">    4.38    4.42</time>
   <time name="orth">    0.21    0.22</time>
   <time name="total">    6.41    6.46</time>
   <energy>
    <i name="e_fr_energy">   -241.09837557 </i>
    <i name="e_wo_entrp">   -241.02786626 </i>
    <i name="e_0_energy">   -241.07487247 </i>
   </energy>
  </scstep>
  <scstep>
   <time name="diag">    1.27    1.28</time>
   <time name="diis">    4.61    4.65</time>
   <time name="orth">    0.21    0.22</time>
   <time name="total">    6.62    6.67</time>
   <energy>
    <i name="e_fr_energy">   -245.90612036 </i>
    <i name="e_wo_entrp">   -245.80885525 </i>
    <i name="e_0_energy">   -245.87369866 </i>
   </energy>
  </scstep>
  <scstep>
   <time name="diag">    1.30    1.31</time>
   <time name="diis">    4.55    4.59</time>
   <time name="orth">    0.22    0.22</time>
   <time name="total">    6.61    6.66</time>
   <energy>
    <i name="e_fr_energy">   -231.78564373 </i>
    <i name="e_wo_entrp">   -231.75842911 </i>
    <i name="e_0_energy">   -231.77657219 </i>
   </energy>
  </scstep>
  <scstep>
   <time name="diag">    1.24    1.25</time>
   <time name="diis">    4.34    4.38</time>
   <time name="orth">    0.21    0.22</time>
   <time name="total">    6.32    6.47</time>
   <energy>
    <i name="e_fr_energy">   -230.76111881 </i>
    <i name="e_wo_entrp">   -230.75022908 </i>
    <i name="e_0_energy">   -230.75748890 </i>
   </energy>
  </scstep>
  <scstep>
   <time name="diag">    1.26    1.27</time>
   <time name="diis">    4.50    4.53</time>
   <time name="orth">    0.22    0.22</time>
   <time name="total">    6.49    6.54</time>
   <energy>
    <i name="e_fr_energy">   -230.34010374 </i>
    <i name="e_wo_entrp">   -230.30060252 </i>
    <i name="e_0_energy">   -230.32693666 </i>
   </energy>
  </scstep>
  <scstep>
   <time name="diag">    1.28    1.29</time>
   <time name="diis">    4.43    4.47</time>
   <time name="orth">    0.22    0.22</time>
   <time name="total">    6.45    6.51</time>
   <energy>
    <i name="e_fr_energy">   -230.20563165 </i>
    <i name="e_wo_entrp">   -230.17339051 </i>
    <i name="e_0_energy">   -230.19488460 </i>
   </energy>
  </scstep>
  <scstep>
   <time name="diag">    1.27    1.28</time>
   <time name="diis">    4.67    4.71</time>
   <time name="orth">    0.22    0.22</time>
   <time name="total">    6.71    6.77</time>
   <energy>
    <i name="e_fr_energy">   -230.18962299 </i>
    <i name="e_wo_entrp">   -230.16454688 </i>
    <i name="e_0_energy">   -230.18126429 </i>
   </energy>
  </scstep>
  <scstep>
   <time name="diag">    1.28    1.29</time>
   <time name="diis">    4.59    4.63</time>
   <time name="orth">    0.22    0.22</time>
   <time name="total">    6.63    6.68</time>
   <energy>
    <i name="e_fr_energy">   -230.15162121 </i>
    <i name="e_wo_entrp">   -230.13418258 </i>
    <i name="e_0_energy">   -230.14580833 </i>
   </energy>
  </scstep>
  <scstep>
   <time name="diag">    1.27    1.28</time>
   <time name="diis">    4.45    4.49</time>
   <time name="orth">    0.20    0.20</time>
   <time name="total">    6.43    6.48</time>
   <energy>
    <i name="e_fr_energy">   -230.14601732 </i>
    <i name="e_wo_entrp">   -230.12518277 </i>
    <i name="e_0_energy">   -230.13907247 </i>
   </energy>
  </scstep>
  <scstep>
   <time name="diag">    1.24    1.25</time>
   <time name="diis">    4.50    4.54</time>
   <time name="orth">    0.22    0.22</time>
   <time name="total">    6.49    6.54</time>
   <energy>
    <i name="e_fr_energy">   -230.13881333 </i>
    <i name="e_wo_entrp">   -230.11774947 </i>
    <i name="e_0_energy">   -230.13179205 </i>
   </energy>
  </scstep>
  <scstep>
   <time name="diag">    1.26    1.27</time>
   <time name="diis">    4.33    4.36</time>
   <time name="orth">    0.22    0.22</time>
   <time name="total">    6.33    6.38</time>
   <energy>
    <i name="e_fr_energy">   -230.13764743 </i>
    <i name="e_wo_entrp">   -230.11662266 </i>
    <i name="e_0_energy">   -230.13063918 </i>
   </energy>
  </scstep>
  <scstep>
   <time name="diag">    1.24    1.25</time>
   <time name="diis">    4.57    4.61</time>
   <time name="orth">    0.22    0.23</time>
   <time name="total">    6.57    6.62</time>
   <energy>
    <i name="e_fr_energy">   -230.13806248 </i>
    <i name="e_wo_entrp">   -230.11678915 </i>
    <i name="e_0_energy">   -230.13097137 </i>
   </energy>
  </scstep>
  <scstep>
   <time name="diag">    1.27    1.28</time>
   <time name="diis">    3.81    3.84</time>
   <time name="orth">    0.22    0.22</time>
   <time name="total">    5.83    5.88</time>
   <energy>
    <i name="e_fr_energy">   -230.13822766 </i>
    <i name="e_wo_entrp">   -230.11734915 </i>
    <i name="e_0_energy">   -230.13126815 </i>
   </energy>
  </scstep>
  <scstep>
   <time name="diag">    1.33    1.34</time>
   <time name="diis">    2.76    2.78</time>
   <time name="orth">    0.21    0.21</time>
   <time name="total">    4.83    4.86</time>
   <energy>
    <i name="e_fr_energy">   -230.13839025 </i>
    <i name="e_wo_entrp">   -230.11672661 </i>
    <i name="e_0_energy">   -230.13116903 </i>
   </energy>
  </scstep>
  <scstep>
   <time name="diag">    1.27    1.28</time>
   <time name="diis">    2.47    2.49</time>
   <time name="orth">    0.22    0.22</time>
   <time name="total">    4.48    4.51</time>
   <energy>
    <i name="e_fr_energy">   -230.13860162 </i>
    <i name="e_wo_entrp">   -230.11707761 </i>
    <i name="e_0_energy">   -230.13142695 </i>
   </energy>
  </scstep>
  <scstep>
   <time name="diag">    1.22    1.23</time>
   <time name="diis">    2.65    2.67</time>
   <time name="orth">    0.22    0.22</time>
   <time name="total">    4.62    4.66</time>
   <energy>
    <i name="e_fr_energy">   -230.13879768 </i>
    <i name="e_wo_entrp">   -230.11732726 </i>
    <i name="e_0_energy">   -230.13164088 </i>
   </energy>
  </scstep>
  <scstep>
   <time name="diag">    1.25    1.26</time>
   <time name="diis">    2.49    2.51</time>
   <time name="orth">    0.21    0.21</time>
   <time name="total">    4.47    4.51</time>
   <energy>
    <i name="e_fr_energy">   -230.13905713 </i>
    <i name="e_wo_entrp">   -230.11767312 </i>
    <i name="e_0_energy">   -230.13192913 </i>
   </energy>
  </scstep>
  <scstep>
   <time name="diag">    1.26    1.27</time>
   <time name="diis">    2.55    2.57</time>
   <time name="orth">    0.22    0.23</time>
   <time name="total">    4.57    4.60</time>
   <energy>
    <i name="e_fr_energy">   -230.13927899 </i>
    <i name="e_wo_entrp">   -230.11805548 </i>
    <i name="e_0_energy">   -230.13220448 </i>
   </energy>
  </scstep>
  <scstep>
   <time name="diag">    1.31    1.32</time>
   <time name="diis">    2.76    2.78</time>
   <time name="orth">    0.22    0.22</time>
   <time name="total">    4.85    4.89</time>
   <energy>
    <i name="e_fr_energy">   -230.13950098 </i>
    <i name="e_wo_entrp">   -230.11822799 </i>
    <i name="e_0_energy">   -230.13240998 </i>
   </energy>
  </scstep>
  <scstep>
   <time name="diag">    1.40    1.42</time>
   <time name="diis">    2.56    2.58</time>
   <time name="orth">    0.22    0.22</time>
   <time name="total">    4.75    4.79</time>
   <energy>
    <i name="e_fr_energy">   -230.13967175 </i>
    <i name="e_wo_entrp">   -230.11836399 </i>
    <i name="e_0_energy">   -230.13256916 </i>
   </energy>
  </scstep>
  <scstep>
   <time name="diag">    1.46    1.47</time>
   <time name="diis">    2.57    2.59</time>
   <time name="orth">    0.22    0.22</time>
   <time name="total">    4.79    4.83</time>
   <energy>
    <i name="e_fr_energy">   -230.13985931 </i>
    <i name="e_wo_entrp">   -230.11860912 </i>
    <i name="e_0_energy">   -230.13277592 </i>
   </energy>
  </scstep>
  <scstep>
   <time name="diag">    1.60    1.61</time>
   <time name="diis">    2.00    2.01</time>
   <time name="orth">    0.22    0.22</time>
   <time name="total">    3.95    3.98</time>
   <energy>
    <i name="alphaZ">    975.10247152 </i>
    <i name="ewald">  91546.76200289 </i>
    <i name="hartreedc">-120237.33421910 </i>
    <i name="XCdc">    178.44065728 </i>
    <i name="pawpsdc">  30128.51351103 </i>
    <i name="pawaedc"> -29214.76046902 </i>
    <i name="eentropy">     -0.02126571 </i>
    <i name="bandstr">   -866.73677046 </i>
    <i name="atom">  27259.89416086 </i>
    <i name="e_fr_energy">   -230.13992070 </i>
    <i name="e_wo_entrp">   -230.11865499 </i>
    <i name="e_0_energy">   -230.13283213 </i>
   </energy>
  </scstep>
  <structure>
   <crystal>
    <varray name="basis" >
     <v>       7.29695512      -4.21289900       0.00000000 </v>
     <v>       0.00000000       8.42579800       0.00000000 </v>
     <v>       0.00000000       0.00000000      21.87963500 </v>
    </varray>
    <i name="volume">   1345.21837528 </i>
    <varray name="rec_basis" >
     <v>       0.13704346       0.00000000       0.00000000 </v>
     <v>       0.06852173       0.11868312       0.00000000 </v>
     <v>       0.00000000       0.00000000       0.04570460 </v>
    </varray>
   </crystal>
   <varray name="positions" >
    <v>       0.70302837       0.43591591       0.47311100 </v>
    <v>       0.90424316       0.38502481       0.46905787 </v>
    <v>       0.67489183       0.46277179       0.52299953 </v>
    <v>       0.98675500       0.32859100       0.07437600 </v>
    <v>       0.32008800       0.32859100       0.07437600 </v>
    <v>       0.65342200       0.32859100       0.07437600 </v>
    <v>       0.98675500       0.66192500       0.07437600 </v>
    <v>       0.32008800       0.66192500       0.07437600 </v>
    <v>       0.65342200       0.66192500       0.07437600 </v>
    <v>       0.32008800       0.99525800       0.07437600 </v>
    <v>       0.65342200       0.99525800       0.07437600 </v>
    <v>       0.98675500       0.99525800       0.07437600 </v>
    <v>       0.20897700       0.10636900       0.17918600 </v>
    <v>       0.54231100       0.10636900       0.17918600 </v>
    <v>       0.87564400       0.10636900       0.17918600 </v>
    <v>       0.20897700       0.43970300       0.17918600 </v>
    <v>       0.54231100       0.43970300       0.17918600 </v>
    <v>       0.87564400       0.43970300       0.17918600 </v>
    <v>       0.20897700       0.77303600       0.17918600 </v>
    <v>       0.54231100       0.77303600       0.17918600 </v>
    <v>       0.87564400       0.77303600       0.17918600 </v>
    <v>       0.09955347       0.55112144       0.27883728 </v>
    <v>       0.42829136       0.87974866       0.28324509 </v>
    <v>       0.76282578       0.22045541       0.28782979 </v>
    <v>       0.09659369       0.22076534       0.28679361 </v>
    <v>       0.43690591       0.22221838       0.28185601 </v>
    <v>       0.10043965       0.88303907       0.28579989 </v>
    <v>       0.76498844       0.88160979       0.28053243 </v>
    <v>       0.42916318       0.55483492       0.28014091 </v>
    <v>       0.76822254       0.55315489       0.28160333 </v>
    <v>       0.32405989       0.65692880       0.38654042 </v>
    <v>       0.64754026       0.99106815       0.38930855 </v>
    <v>       0.32615885       0.32039215       0.38558154 </v>
    <v>       0.98422659       0.99130305       0.38440538 </v>
    <v>       0.32496968       0.98845150       0.38735229 </v>
    <v>       0.63913658       0.32466567       0.39601909 </v>
    <v>       0.99454749       0.66477698       0.38503459 </v>
    <v>       0.99595590       0.32338969       0.38935854 </v>
    <v>       0.65630037       0.66505928       0.39002437 </v>
   </varray>
  </structure>
  <varray name="forces" >
   <v>       0.13399050      -1.16630479       0.50840288 </v>
   <v>       0.44981765       0.14390005      -1.07917578 </v>
   <v>       0.20165446       0.50512080       0.41874357 </v>
   <v>      -0.00287337      -0.05141425       0.20058386 </v>
   <v>      -0.03703110      -0.02116186       0.16259003 </v>
   <v>      -0.00050203      -0.00642434       0.17429441 </v>
   <v>       0.01519503       0.08312528       0.09255462 </v>
   <v>       0.02198432       0.03362950       0.08918660 </v>
   <v>      -0.00713807      -0.02453423       0.10252606 </v>
   <v>      -0.01226812      -0.08393877       0.03870320 </v>
   <v>      -0.03458134       0.02581904       0.14594390 </v>
   <v>       0.03146712      -0.03725799       0.09394164 </v>
   <v>      -0.16305186      -0.00383119       0.15056782 </v>
   <v>       0.11932767      -0.01223621       0.14521738 </v>
   <v>       0.14914260       0.12726746       0.08083981 </v>
   <v>      -0.15422948      -0.29292007      -0.40320938 </v>
   <v>       0.02661383       0.04792022      -0.26817699 </v>
   <v>      -0.21338966      -0.16113358      -0.20370225 </v>
   <v>       0.01290693       0.30789890      -0.32600175 </v>
   <v>       0.08343513       0.19769454      -0.40006412 </v>
   <v>       0.30337617       0.07127318      -0.40440608 </v>
   <v>      -0.24597279      -0.12622205       0.89125188 </v>
   <v>       0.51118860       0.36398767      -0.19811798 </v>
   <v>      -0.06440087      -0.26180755      -0.51493511 </v>
   <v>      -0.06630146       0.02390425      -0.88006837 </v>
   <v>      -0.19200561      -0.28254595       0.23367172 </v>
   <v>       0.05117113       0.21355013      -0.98442707 </v>
   <v>      -0.17274050       0.37605678       0.56486642 </v>
   <v>       0.38332792      -0.65500244       0.72598041 </v>
   <v>      -0.33436297      -0.03868031       0.44136134 </v>
   <v>      -0.04248035       0.02620962      -0.05617460 </v>
   <v>       0.32385059      -0.37946154      -0.39191641 </v>
   <v>      -0.34203988       0.50984263       0.06481805 </v>
   <v>      -0.06691649      -0.12065356       0.62293793 </v>
   <v>      -0.27104171       0.28097056       0.19030856 </v>
   <v>       0.10659988      -0.10628792      -0.97884059 </v>
   <v>      -0.08505078      -0.16472876       0.26688252 </v>
   <v>      -0.39441471       0.55276710       1.33237703 </v>
   <v>      -0.02225636       0.10560964      -0.64933517 </v>
  </varray>
  <varray name="stress" >
   <v>     -41.09497969       0.93358982       1.99660158 </v>
   <v>       0.93358982     -44.59073335       0.02861086 </v>
   <v>       1.99660155       0.02861082      -1.84106044 </v>
  </varray>
  <energy>
   <i name="e_fr_energy">   -230.13992070 </i>
   <i name="e_wo_entrp">   -230.13283213 </i>
   <i name="e_0_energy">     -0.02126571 </i>
  </energy>
  <time name="totalsc">  190.56  192.64</time>
 </calculation>
 <calculation>
  <scstep>
   <time name="dav">    9.61    9.69</time>
   <time name="total">   10.15   10.34</time>
   <energy>
    <i name="alphaZ">    975.10247152 </i>
    <i name="ewald">  91538.46261780 </i>
    <i name="hartreedc">-120230.19425519 </i>
    <i name="XCdc">    178.36266880 </i>
    <i name="pawpsdc">  30128.75885527 </i>
    <i name="pawaedc"> -29215.00892151 </i>
    <i name="eentropy">     -0.02295970 </i>
    <i name="bandstr">   -865.68658259 </i>
    <i name="atom">  27259.89416086 </i>
    <i name="e_fr_energy">   -230.33194473 </i>
    <i name="e_wo_entrp">   -230.30898503 </i>
    <i name="e_0_energy">   -230.32429150 </i>
   </energy>
  </scstep>
  <scstep>
   <time name="diag">    1.35    1.36</time>
   <time name="diis">    4.55    4.59</time>
   <time name="orth">    0.22    0.22</time>
   <time name="total">    6.67    6.73</time>
   <energy>
    <i name="e_fr_energy">   -230.39329517 </i>
    <i name="e_wo_entrp">   -230.38249853 </i>
    <i name="e_0_energy">   -230.38969629 </i>
   </energy>
  </scstep>
  <scstep>
   <time name="diag">    1.65    1.66</time>
   <time name="diis">    4.51    4.55</time>
   <time name="orth">    0.21    0.22</time>
   <time name="total">    6.90    6.96</time>
   <energy>
    <i name="e_fr_energy">   -230.38299451 </i>
    <i name="e_wo_entrp">   -230.35834425 </i>
    <i name="e_0_energy">   -230.37477776 </i>
   </energy>
  </scstep>
  <scstep>
   <time name="diag">    1.27    1.28</time>
   <time name="diis">    4.53    4.57</time>
   <time name="orth">    0.22    0.22</time>
   <time name="total">    6.54    6.59</time>
   <energy>
    <i name="e_fr_energy">   -230.37912478 </i>
    <i name="e_wo_entrp">   -230.35957539 </i>
    <i name="e_0_energy">   -230.37260832 </i>
   </energy>
  </scstep>
  <scstep>
   <time name="diag">    1.13    1.13</time>
   <time name="diis">    4.52    4.55</time>
   <time name="orth">    0.22    0.23</time>
   <time name="total">    6.39    6.44</time>
   <energy>
    <i name="e_fr_energy">   -230.37490616 </i>
    <i name="e_wo_entrp">   -230.35629426 </i>
    <i name="e_0_energy">   -230.36870219 </i>
   </energy>
  </scstep>
  <scstep>
   <time name="diag">    1.35    1.36</time>
   <time name="diis">    4.60    4.64</time>
   <time name="orth">    0.22    0.22</time>
   <time name="total">    6.70    6.76</time>
   <energy>
    <i name="e_fr_energy">   -230.37430970 </i>
    <i name="e_wo_entrp">   -230.35468107 </i>
    <i name="e_0_energy">   -230.36776682 </i>
   </energy>
  </scstep>
  <scstep>
   <time name="diag">    1.37    1.38</time>
   <time name="diis">    4.47    4.51</time>
   <time name="orth">    0.22    0.22</time>
   <time name="total">    6.58    6.64</time>
   <energy>
    <i name="e_fr_energy">   -230.37416023 </i>
    <i name="e_wo_entrp">   -230.35420350 </i>
    <i name="e_0_energy">   -230.36750799 </i>
   </energy>
  </scstep>
  <scstep>
   <time name="diag">    1.37    1.38</time>
   <time name="diis">    4.23    4.27</time>
   <time name="orth">    0.22    0.22</time>
   <time name="total">    6.33    6.38</time>
   <energy>
    <i name="e_fr_energy">   -230.37360500 </i>
    <i name="e_wo_entrp">   -230.35344588 </i>
    <i name="e_0_energy">   -230.36688529 </i>
   </energy>
  </scstep>
  <scstep>
   <time name="diag">    1.27    1.28</time>
   <time name="diis">    2.66    2.68</time>
   <time name="orth">    0.21    0.21</time>
   <time name="total">    4.28    4.31</time>
   <energy>
    <i name="alphaZ">    975.10247152 </i>
    <i name="ewald">  91538.46261780 </i>
    <i name="hartreedc">-120232.04053130 </i>
    <i name="XCdc">    178.35218095 </i>
    <i name="pawpsdc">  30114.14972864 </i>
    <i name="pawaedc"> -29200.28897475 </i>
    <i name="eentropy">     -0.01999880 </i>
    <i name="bandstr">   -863.98517628 </i>
    <i name="atom">  27259.89416086 </i>
    <i name="e_fr_energy">   -230.37352134 </i>
    <i name="e_wo_entrp">   -230.35352255 </i>
    <i name="e_0_energy">   -230.36685508 </i>
   </energy>
  </scstep>
  <structure>
   <crystal>
    <varray name="basis" >
     <v>       7.29695512      -4.21289900       0.00000000 </v>
     <v>       0.00000000       8.42579800       0.00000000 </v>
     <v>       0.00000000       0.00000000      21.87963500 </v>
    </varray>
    <i name="volume">   1345.21837528 </i>
    <varray name="rec_basis" >
     <v>       0.13704346       0.00000000       0.00000000 </v>
     <v>       0.06852173       0.11868312       0.00000000 </v>
     <v>       0.00000000       0.00000000       0.04570460 </v>
    </varray>
   </crystal>
   <varray name="positions" >
    <v>       0.70338271       0.43342196       0.47355939 </v>
    <v>       0.90543272       0.38594915       0.46810608 </v>
    <v>       0.67542511       0.46419527       0.52336885 </v>
    <v>       0.98675500       0.32859100       0.07437600 </v>
    <v>       0.32008800       0.32859100       0.07437600 </v>
    <v>       0.65342200       0.32859100       0.07437600 </v>
    <v>       0.98675500       0.66192500       0.07437600 </v>
    <v>       0.32008800       0.66192500       0.07437600 </v>
    <v>       0.65342200       0.66192500       0.07437600 </v>
    <v>       0.32008800       0.99525800       0.07437600 </v>
    <v>       0.65342200       0.99525800       0.07437600 </v>
    <v>       0.98675500       0.99525800       0.07437600 </v>
    <v>       0.20897700       0.10636900       0.17918600 </v>
    <v>       0.54231100       0.10636900       0.17918600 </v>
    <v>       0.87564400       0.10636900       0.17918600 </v>
    <v>       0.20897700       0.43970300       0.17918600 </v>
    <v>       0.54231100       0.43970300       0.17918600 </v>
    <v>       0.87564400       0.43970300       0.17918600 </v>
    <v>       0.20897700       0.77303600       0.17918600 </v>
    <v>       0.54231100       0.77303600       0.17918600 </v>
    <v>       0.87564400       0.77303600       0.17918600 </v>
    <v>       0.09890298       0.55050712       0.27962333 </v>
    <v>       0.42964322       0.88125821       0.28307036 </v>
    <v>       0.76265547       0.21977066       0.28737564 </v>
    <v>       0.09641836       0.22073242       0.28601742 </v>
    <v>       0.43639814       0.22131740       0.28206210 </v>
    <v>       0.10057498       0.88359581       0.28493166 </v>
    <v>       0.76453162       0.88224264       0.28103062 </v>
    <v>       0.43017690       0.55384168       0.28078119 </v>
    <v>       0.76733830       0.55262418       0.28199259 </v>
    <v>       0.32394755       0.65693266       0.38649087 </v>
    <v>       0.64839670       0.99062731       0.38896289 </v>
    <v>       0.32525432       0.32110754       0.38563871 </v>
    <v>       0.98404962       0.99093824       0.38495479 </v>
    <v>       0.32425290       0.98873660       0.38752014 </v>
    <v>       0.63941849       0.32456320       0.39515579 </v>
    <v>       0.99432257       0.66428725       0.38526997 </v>
    <v>       0.99491285       0.32413413       0.39053365 </v>
    <v>       0.65624151       0.66527172       0.38945168 </v>
   </varray>
  </structure>
  <varray name="forces" >
   <v>      -0.06151369      -0.96202651       0.79103979 </v>
   <v>       0.42397339       0.24120332      -0.58409820 </v>
   <v>       0.37314785       0.11061441      -0.38438014 </v>
   <v>      -0.00209933      -0.05188603       0.18780689 </v>
   <v>      -0.03779213      -0.02685420       0.16128356 </v>
   <v>      -0.00084793      -0.00847942       0.17020024 </v>
   <v>       0.01475180       0.07354879       0.09434668 </v>
   <v>       0.01422305       0.03142346       0.10222616 </v>
   <v>       0.00029969      -0.02206840       0.11539005 </v>
   <v>      -0.00925847      -0.07847544       0.03727064 </v>
   <v>      -0.02605889       0.02798061       0.14779029 </v>
   <v>       0.02592908      -0.02981562       0.08116157 </v>
   <v>      -0.13683935       0.00340464       0.07430044 </v>
   <v>       0.11620031       0.00520405       0.09257231 </v>
   <v>       0.13048078       0.10517617       0.05931614 </v>
   <v>      -0.11607241      -0.23059419      -0.32409769 </v>
   <v>       0.02482978       0.03750852      -0.23514122 </v>
   <v>      -0.18538574      -0.13347005      -0.14387433 </v>
   <v>       0.00854550       0.24157852      -0.29524476 </v>
   <v>       0.07121604       0.15148836      -0.33699380 </v>
   <v>       0.25062901       0.07428742      -0.35579662 </v>
   <v>      -0.15157609      -0.09673512       0.73987120 </v>
   <v>       0.33205589       0.23171632      -0.15508522 </v>
   <v>      -0.00646091      -0.21154947      -0.43677574 </v>
   <v>      -0.10371095       0.03125326      -0.55744506 </v>
   <v>      -0.18476561      -0.23121455       0.20401004 </v>
   <v>      -0.01170724       0.15864007      -0.70798341 </v>
   <v>      -0.08828958       0.28668416       0.41641241 </v>
   <v>       0.26443010      -0.47624870       0.54046471 </v>
   <v>      -0.23383687      -0.03466881       0.33677309 </v>
   <v>      -0.02900430       0.08599108      -0.04879661 </v>
   <v>       0.24361194      -0.27087035      -0.32582071 </v>
   <v>      -0.34146924       0.41271060       0.04532813 </v>
   <v>       0.02576398      -0.07965285       0.46938347 </v>
   <v>      -0.25999669       0.21981226       0.10753754 </v>
   <v>       0.03871655       0.08177816      -0.61440145 </v>
   <v>      -0.03871022      -0.02563008       0.17179808 </v>
   <v>      -0.30966636       0.28611083       0.91175518 </v>
   <v>      -0.02374272       0.07212480      -0.55210363 </v>
  </varray>
  <varray name="stress" >
   <v>     -41.87116623       1.02561371       2.15699153 </v>
   <v>       1.02561366     -45.51998751      -0.75970426 </v>
   <v>       2.15699149      -0.75970430      -3.73266903 </v>
  </varray>
  <energy>
   <i name="e_fr_energy">   -230.37352134 </i>
   <i name="e_wo_entrp">   -230.36685508 </i>
   <i name="e_0_energy">     -0.01999880 </i>
  </energy>
  <time name="totalsc">   70.97   72.10</time>
 </calculation>
 <calculation>
  <scstep>
   <time name="dav">    8.26    8.33</time>
   <time name="total">    8.79    8.93</time>
   <energy>
    <i name="alphaZ">    975.10247152 </i>
    <i name="ewald">  91549.69778025 </i>
    <i name="hartreedc">-120240.84926167 </i>
    <i name="XCdc">    178.42834403 </i>
    <i name="pawpsdc">  30113.92012269 </i>
    <i name="pawaedc"> -29200.05756338 </i>
    <i name="eentropy">     -0.02354138 </i>
    <i name="bandstr">   -866.59390747 </i>
    <i name="atom">  27259.89416086 </i>
    <i name="e_fr_energy">   -230.48139454 </i>
    <i name="e_wo_entrp">   -230.45785316 </i>
    <i name="e_0_energy">   -230.47354742 </i>
   </energy>
  </scstep>
  <scstep>
   <time name="diag">    1.24    1.25</time>
   <time name="diis">    4.52    4.55</time>
   <time name="orth">    0.22    0.22</time>
   <time name="total">    6.50    6.56</time>
   <energy>
    <i name="e_fr_energy">   -230.61800019 </i>
    <i name="e_wo_entrp">   -230.61399583 </i>
    <i name="e_0_energy">   -230.61666540 </i>
   </energy>
  </scstep>
  <scstep>
   <time name="diag">    1.16    1.17</time>
   <time name="diis">    4.46    4.50</time>
   <time name="orth">    0.22    0.22</time>
   <time name="total">    6.35    6.40</time>
   <energy>
    <i name="e_fr_energy">   -230.58601796 </i>
    <i name="e_wo_entrp">   -230.56325744 </i>
    <i name="e_0_energy">   -230.57843112 </i>
   </energy>
  </scstep>
  <scstep>
   <time name="diag">    1.31    1.32</time>
   <time name="diis">    4.42    4.46</time>
   <time name="orth">    0.21    0.21</time>
   <time name="total">    6.47    6.53</time>
   <energy>
    <i name="e_fr_energy">   -230.56841358 </i>
    <i name="e_wo_entrp">   -230.54857741 </i>
    <i name="e_0_energy">   -230.56180152 </i>
   </energy>
  </scstep>
  <scstep>
   <time name="diag">    1.32    1.33</time>
   <time name="diis">    4.59    4.63</time>
   <time name="orth">    0.22    0.22</time>
   <time name="total">    6.66    6.71</time>
   <energy>
    <i name="e_fr_energy">   -230.56299378 </i>
    <i name="e_wo_entrp">   -230.54696654 </i>
    <i name="e_0_energy">   -230.55765137 </i>
   </energy>
  </scstep>
  <scstep>
   <time name="diag">    1.36    1.37</time>
   <time name="diis">    4.55    4.59</time>
   <time name="orth">    0.22    0.23</time>
   <time name="total">    6.66    6.72</time>
   <energy>
    <i name="e_fr_energy">   -230.56201958 </i>
    <i name="e_wo_entrp">   -230.54289408 </i>
    <i name="e_0_energy">   -230.55564441 </i>
   </energy>
  </scstep>
  <scstep>
   <time name="diag">    1.32    1.33</time>
   <time name="diis">    4.47    4.51</time>
   <time name="orth">    0.22    0.22</time>
   <time name="total">    6.54    6.60</time>
   <energy>
    <i name="e_fr_energy">   -230.56035531 </i>
    <i name="e_wo_entrp">   -230.54233479 </i>
    <i name="e_0_energy">   -230.55434847 </i>
   </energy>
  </scstep>
  <scstep>
   <time name="diag">    1.25    1.26</time>
   <time name="diis">    4.27    4.31</time>
   <time name="orth">    0.21    0.21</time>
   <time name="total">    6.26    6.31</time>
   <energy>
    <i name="e_fr_energy">   -230.55922179 </i>
    <i name="e_wo_entrp">   -230.54043430 </i>
    <i name="e_0_energy">   -230.55295930 </i>
   </energy>
  </scstep>
  <scstep>
   <time name="diag">    1.26    1.27</time>
   <time name="diis">    3.02    3.05</time>
   <time name="orth">    0.22    0.22</time>
   <time name="total">    5.03    5.08</time>
   <energy>
    <i name="e_fr_energy">   -230.55904144 </i>
    <i name="e_wo_entrp">   -230.54068621 </i>
    <i name="e_0_energy">   -230.55292303 </i>
   </energy>
  </scstep>
  <scstep>
   <time name="diag">    1.27    1.28</time>
   <time name="diis">    2.69    2.71</time>
   <time name="orth">    0.22    0.22</time>
   <time name="total">    4.32    4.35</time>
   <energy>
    <i name="alphaZ">    975.10247152 </i>
    <i name="ewald">  91549.69778025 </i>
    <i name="hartreedc">-120251.43887990 </i>
    <i name="XCdc">    178.52373702 </i>
    <i name="pawpsdc">  30113.45358499 </i>
    <i name="pawaedc"> -29199.55124423 </i>
    <i name="eentropy">     -0.01825775 </i>
    <i name="bandstr">   -856.22231820 </i>
    <i name="atom">  27259.89416086 </i>
    <i name="e_fr_energy">   -230.55896544 </i>
    <i name="e_wo_entrp">   -230.54070769 </i>
    <i name="e_0_energy">   -230.55287952 </i>
   </energy>
  </scstep>
  <structure>
   <crystal>
    <varray name="basis" >
     <v>       7.29695512      -4.21289900       0.00000000 </v>
     <v>       0.00000000       8.42579800       0.00000000 </v>
     <v>       0.00000000       0.00000000      21.87963500 </v>
    </varray>
    <i name="volume">   1345.21837528 </i>
    <varray name="rec_basis" >
     <v>       0.13704346       0.00000000       0.00000000 </v>
     <v>       0.06852173       0.11868312       0.00000000 </v>
     <v>       0.00000000       0.00000000       0.04570460 </v>
    </varray>
   </crystal>
   <varray name="positions" >
    <v>       0.70307881       0.42915402       0.47486273 </v>
    <v>       0.90752730       0.38802842       0.46714370 </v>
    <v>       0.67726859       0.46559027       0.52273553 </v>
    <v>       0.98675500       0.32859100       0.07437600 </v>
    <v>       0.32008800       0.32859100       0.07437600 </v>
    <v>       0.65342200       0.32859100       0.07437600 </v>
    <v>       0.98675500       0.66192500       0.07437600 </v>
    <v>       0.32008800       0.66192500       0.07437600 </v>
    <v>       0.65342200       0.66192500       0.07437600 </v>
    <v>       0.32008800       0.99525800       0.07437600 </v>
    <v>       0.65342200       0.99525800       0.07437600 </v>
    <v>       0.98675500       0.99525800       0.07437600 </v>
    <v>       0.20897700       0.10636900       0.17918600 </v>
    <v>       0.54231100       0.10636900       0.17918600 </v>
    <v>       0.87564400       0.10636900       0.17918600 </v>
    <v>       0.20897700       0.43970300       0.17918600 </v>
    <v>       0.54231100       0.43970300       0.17918600 </v>
    <v>       0.87564400       0.43970300       0.17918600 </v>
    <v>       0.20897700       0.77303600       0.17918600 </v>
    <v>       0.54231100       0.77303600       0.17918600 </v>
    <v>       0.87564400       0.77303600       0.17918600 </v>
    <v>       0.09815414       0.54971883       0.28084237 </v>
    <v>       0.43128369       0.88306984       0.28281483 </v>
    <v>       0.76262355       0.21884959       0.28665599 </v>
    <v>       0.09590599       0.22060995       0.28509896 </v>
    <v>       0.43548534       0.21987175       0.28239824 </v>
    <v>       0.10051714       0.88424563       0.28376517 </v>
    <v>       0.76409544       0.88325112       0.28171672 </v>
    <v>       0.43148328       0.55245725       0.28167168 </v>
    <v>       0.76618307       0.55189824       0.28254747 </v>
    <v>       0.32380426       0.65722892       0.38641047 </v>
    <v>       0.64960022       0.99007016       0.38842606 </v>
    <v>       0.32356734       0.32202982       0.38571339 </v>
    <v>       0.98417690       0.99066109       0.38572816 </v>
    <v>       0.32296843       0.98903482       0.38769732 </v>
    <v>       0.63960976       0.32500873       0.39414348 </v>
    <v>       0.99413133       0.66408197       0.38555303 </v>
    <v>       0.99338299       0.32459332       0.39203588 </v>
    <v>       0.65612422       0.66552166       0.38854202 </v>
   </varray>
  </structure>
  <varray name="forces" >
   <v>       0.21821771      -1.95796915      -2.48237011 </v>
   <v>       0.42278888       0.35296240       0.05953616 </v>
   <v>      -0.06384909       0.95691483       2.26487283 </v>
   <v>       0.00231272      -0.05059189       0.16317792 </v>
   <v>      -0.04045410      -0.03447533       0.16322858 </v>
   <v>      -0.00756538      -0.00925933       0.15782755 </v>
   <v>       0.01690675       0.06683931       0.09788395 </v>
   <v>       0.00282055       0.03043836       0.12291141 </v>
   <v>       0.00952510      -0.01536507       0.13330994 </v>
   <v>      -0.00847426      -0.06816920       0.04020064 </v>
   <v>      -0.01727894       0.03172546       0.14147272 </v>
   <v>       0.02049832      -0.01861834       0.06410428 </v>
   <v>      -0.09920090       0.02062622      -0.02410608 </v>
   <v>       0.10288604       0.03038878       0.02170418 </v>
   <v>       0.10638885       0.07526979       0.02783639 </v>
   <v>      -0.06822389      -0.14490759      -0.21472054 </v>
   <v>       0.01941139       0.02387747      -0.17886988 </v>
   <v>      -0.13892937      -0.09036537      -0.05075595 </v>
   <v>       0.00088097       0.15140588      -0.25603990 </v>
   <v>       0.05409669       0.09130223      -0.25594499 </v>
   <v>       0.17612135       0.07810784      -0.29372364 </v>
   <v>      -0.05290264      -0.06749638       0.45839687 </v>
   <v>       0.10766874       0.08425756      -0.07859595 </v>
   <v>       0.05807061      -0.10827536      -0.31231929 </v>
   <v>      -0.10337684       0.01513865      -0.21746963 </v>
   <v>      -0.14822065      -0.15413553       0.16115889 </v>
   <v>      -0.09154669       0.08157798      -0.35704849 </v>
   <v>       0.01562324       0.15059947       0.21467121 </v>
   <v>       0.09941433      -0.25500031       0.27817907 </v>
   <v>      -0.09797778      -0.05212782       0.16818713 </v>
   <v>      -0.01511314       0.15572640      -0.03234513 </v>
   <v>       0.13890591      -0.10601109      -0.22141966 </v>
   <v>      -0.31450955       0.27555987       0.04219911 </v>
   <v>       0.10813909      -0.04476344       0.30650039 </v>
   <v>      -0.20975874       0.14525601       0.01184797 </v>
   <v>      -0.01297811       0.25034399      -0.10971492 </v>
   <v>       0.00017259       0.11682624       0.05027327 </v>
   <v>      -0.17060187      -0.05964415       0.34659422 </v>
   <v>      -0.01988789       0.05203059      -0.41063051 </v>
  </varray>
  <varray name="stress" >
   <v>     -42.40094811       0.66760431       1.29958242 </v>
   <v>       0.66760427     -45.56585166       0.10927346 </v>
   <v>       1.29958247       0.10927355      -1.22277227 </v>
  </varray>
  <energy>
   <i name="e_fr_energy">   -230.55896544 </i>
   <i name="e_wo_entrp">   -230.55287952 </i>
   <i name="e_0_energy">     -0.01825775 </i>
  </energy>
  <time name="totalsc">   74.27   75.26</time>
 </calculation>
 <calculation>
  <scstep>
   <time name="dav">    7.97    8.04</time>
   <time name="total">    8.47    8.62</time>
   <energy>
    <i name="alphaZ">    975.10247152 </i>
    <i name="ewald">  91539.45285007 </i>
    <i name="hartreedc">-120244.09168012 </i>
    <i name="XCdc">    178.42811452 </i>
    <i name="pawpsdc">  30113.11787745 </i>
    <i name="pawaedc"> -29199.21591534 </i>
    <i name="eentropy">     -0.01883217 </i>
    <i name="bandstr">   -853.31046793 </i>
    <i name="atom">  27259.89416086 </i>
    <i name="e_fr_energy">   -230.64142112 </i>
    <i name="e_wo_entrp">   -230.62258896 </i>
    <i name="e_0_energy">   -230.63514374 </i>
   </energy>
  </scstep>
  <scstep>
   <time name="diag">    1.22    1.23</time>
   <time name="diis">    4.50    4.53</time>
   <time name="orth">    0.22    0.23</time>
   <time name="total">    6.47    6.52</time>
   <energy>
    <i name="e_fr_energy">   -230.68082352 </i>
    <i name="e_wo_entrp">   -230.67149205 </i>
    <i name="e_0_energy">   -230.67771303 </i>
   </energy>
  </scstep>
  <scstep>
   <time name="diag">    1.04    1.05</time>
   <time name="diis">    4.30    4.33</time>
   <time name="orth">    0.22    0.22</time>
   <time name="total">    6.08    6.13</time>
   <energy>
    <i name="e_fr_energy">   -230.67417209 </i>
    <i name="e_wo_entrp">   -230.65429510 </i>
    <i name="e_0_energy">   -230.66754643 </i>
   </energy>
  </scstep>
  <scstep>
   <time name="diag">    1.23    1.24</time>
   <time name="diis">    4.72    4.76</time>
   <time name="orth">    0.23    0.23</time>
   <time name="total">    6.71    6.76</time>
   <energy>
    <i name="e_fr_energy">   -230.66897018 </i>
    <i name="e_wo_entrp">   -230.65068704 </i>
    <i name="e_0_energy">   -230.66287580 </i>
   </energy>
  </scstep>
  <scstep>
   <time name="diag">    1.26    1.27</time>
   <time name="diis">    4.66    4.70</time>
   <time name="orth">    0.22    0.22</time>
   <time name="total">    6.67    6.72</time>
   <energy>
    <i name="e_fr_energy">   -230.66671473 </i>
    <i name="e_wo_entrp">   -230.65148683 </i>
    <i name="e_0_energy">   -230.66163876 </i>
   </energy>
  </scstep>
  <scstep>
   <time name="diag">    1.30    1.31</time>
   <time name="diis">    4.46    4.50</time>
   <time name="orth">    0.20    0.21</time>
   <time name="total">    6.45    6.50</time>
   <energy>
    <i name="e_fr_energy">   -230.66682113 </i>
    <i name="e_wo_entrp">   -230.64886555 </i>
    <i name="e_0_energy">   -230.66083594 </i>
   </energy>
  </scstep>
  <scstep>
   <time name="diag">    1.02    1.03</time>
   <time name="diis">    4.43    4.47</time>
   <time name="orth">    0.21    0.21</time>
   <time name="total">    6.19    6.30</time>
   <energy>
    <i name="e_fr_energy">   -230.66545532 </i>
    <i name="e_wo_entrp">   -230.64856945 </i>
    <i name="e_0_energy">   -230.65982670 </i>
   </energy>
  </scstep>
  <scstep>
   <time name="diag">    1.28    1.29</time>
   <time name="diis">    3.58    3.61</time>
   <time name="orth">    0.22    0.22</time>
   <time name="total">    5.61    5.66</time>
   <energy>
    <i name="e_fr_energy">   -230.66532394 </i>
    <i name="e_wo_entrp">   -230.64783817 </i>
    <i name="e_0_energy">   -230.65949535 </i>
   </energy>
  </scstep>
  <scstep>
   <time name="diag">    1.27    1.28</time>
   <time name="diis">    2.70    2.72</time>
   <time name="orth">    0.23    0.23</time>
   <time name="total">    4.33    4.36</time>
   <energy>
    <i name="alphaZ">    975.10247152 </i>
    <i name="ewald">  91539.45285007 </i>
    <i name="hartreedc">-120239.96515119 </i>
    <i name="XCdc">    178.36387985 </i>
    <i name="pawpsdc">  30108.13232085 </i>
    <i name="pawaedc"> -29194.23026337 </i>
    <i name="eentropy">     -0.01714253 </i>
    <i name="bandstr">   -857.39837212 </i>
    <i name="atom">  27259.89416086 </i>
    <i name="e_fr_energy">   -230.66524606 </i>
    <i name="e_wo_entrp">   -230.64810352 </i>
    <i name="e_0_energy">   -230.65953188 </i>
   </energy>
  </scstep>
  <structure>
   <crystal>
    <varray name="basis" >
     <v>       7.29695512      -4.21289900       0.00000000 </v>
     <v>       0.00000000       8.42579800       0.00000000 </v>
     <v>       0.00000000       0.00000000      21.87963500 </v>
    </varray>
    <i name="volume">   1345.21837528 </i>
    <varray name="rec_basis" >
     <v>       0.13704346       0.00000000       0.00000000 </v>
     <v>       0.06852173       0.11868312       0.00000000 </v>
     <v>       0.00000000       0.00000000       0.04570460 </v>
    </varray>
   </crystal>
   <varray name="positions" >
    <v>       0.70318788       0.42588353       0.47450646 </v>
    <v>       0.90876496       0.38935757       0.46679611 </v>
    <v>       0.67790776       0.46694651       0.52327318 </v>
    <v>       0.98675500       0.32859100       0.07437600 </v>
    <v>       0.32008800       0.32859100       0.07437600 </v>
    <v>       0.65342200       0.32859100       0.07437600 </v>
    <v>       0.98675500       0.66192500       0.07437600 </v>
    <v>       0.32008800       0.66192500       0.07437600 </v>
    <v>       0.65342200       0.66192500       0.07437600 </v>
    <v>       0.32008800       0.99525800       0.07437600 </v>
    <v>       0.65342200       0.99525800       0.07437600 </v>
    <v>       0.98675500       0.99525800       0.07437600 </v>
    <v>       0.20897700       0.10636900       0.17918600 </v>
    <v>       0.54231100       0.10636900       0.17918600 </v>
    <v>       0.87564400       0.10636900       0.17918600 </v>
    <v>       0.20897700       0.43970300       0.17918600 </v>
    <v>       0.54231100       0.43970300       0.17918600 </v>
    <v>       0.87564400       0.43970300       0.17918600 </v>
    <v>       0.20897700       0.77303600       0.17918600 </v>
    <v>       0.54231100       0.77303600       0.17918600 </v>
    <v>       0.87564400       0.77303600       0.17918600 </v>
    <v>       0.09781311       0.54932965       0.28146647 </v>
    <v>       0.43202231       0.88389367       0.28269004 </v>
    <v>       0.76267130       0.21843046       0.28627320 </v>
    <v>       0.09560328       0.22052328       0.28467278 </v>
    <v>       0.43498317       0.21910448       0.28258229 </v>
    <v>       0.10040050       0.88451985       0.28319606 </v>
    <v>       0.76394474       0.88377957       0.28205305 </v>
    <v>       0.43208559       0.55175105       0.28210806 </v>
    <v>       0.76564005       0.55152338       0.28281761 </v>
    <v>       0.32373385       0.65747368       0.38636859 </v>
    <v>       0.65020397       0.98983398       0.38814449 </v>
    <v>       0.32259738       0.32246661       0.38575649 </v>
    <v>       0.98433724       0.99057089       0.38612950 </v>
    <v>       0.32226057       0.98917048       0.38776917 </v>
    <v>       0.63966952       0.32539628       0.39371851 </v>
    <v>       0.99405836       0.66410801       0.38567861 </v>
    <v>       0.99262171       0.32462755       0.39272980 </v>
    <v>       0.65605882       0.66565351       0.38805269 </v>
   </varray>
  </structure>
  <varray name="forces" >
   <v>      -0.09361120      -0.79587050       0.36168819 </v>
   <v>       0.31993109       0.52621041       0.44575913 </v>
   <v>       0.40476472      -0.26248980      -0.61002015 </v>
   <v>       0.00166317      -0.04913264       0.15870615 </v>
   <v>      -0.04224932      -0.03757269       0.16000184 </v>
   <v>      -0.00925118      -0.00966113       0.15462692 </v>
   <v>       0.01353713       0.06254943       0.09989014 </v>
   <v>      -0.00321218       0.02861987       0.12755659 </v>
   <v>       0.01466538      -0.01232078       0.14108763 </v>
   <v>      -0.00732128      -0.06113249       0.03466536 </v>
   <v>      -0.01129999       0.03429408       0.13939559 </v>
   <v>       0.01431766      -0.01255495       0.05981444 </v>
   <v>      -0.08450356       0.03174322      -0.07893052 </v>
   <v>       0.09697658       0.04332472      -0.01346193 </v>
   <v>       0.09328172       0.05779235       0.00203254 </v>
   <v>      -0.04735419      -0.10770149      -0.16659375 </v>
   <v>       0.01562846       0.01453015      -0.15165036 </v>
   <v>      -0.11826874      -0.07155826      -0.01269939 </v>
   <v>      -0.00402360       0.10917168      -0.24065296 </v>
   <v>       0.04845691       0.06266293      -0.21900310 </v>
   <v>       0.13781866       0.08150712      -0.27005449 </v>
   <v>      -0.01480863      -0.05668592       0.34246946 </v>
   <v>       0.00481435       0.02227640      -0.03913911 </v>
   <v>       0.07971502      -0.05855124      -0.25085632 </v>
   <v>      -0.09754248       0.00785720      -0.07611828 </v>
   <v>      -0.13047826      -0.11939741       0.12640893 </v>
   <v>      -0.11593797       0.04290868      -0.19450749 </v>
   <v>       0.06498241       0.08064200       0.09786977 </v>
   <v>       0.02213480      -0.15194335       0.14458020 </v>
   <v>      -0.03615593      -0.06219639       0.08207188 </v>
   <v>      -0.00925129       0.18834444      -0.01858770 </v>
   <v>       0.08836620      -0.02188353      -0.16073570 </v>
   <v>      -0.29979058       0.20697102       0.05497717 </v>
   <v>       0.14471437      -0.02430053       0.22404733 </v>
   <v>      -0.17599932       0.11291582      -0.03272949 </v>
   <v>      -0.14497926       0.20183291      -0.17066786 </v>
   <v>       0.01176389       0.17216456       0.02131455 </v>
   <v>      -0.11908529      -0.21860184       0.04679480 </v>
   <v>      -0.01240828       0.04523595      -0.31935001 </v>
  </varray>
  <varray name="stress" >
   <v>     -42.63132383       1.02768426       2.09398454 </v>
   <v>       1.02768429     -46.18338732      -1.21000903 </v>
   <v>       2.09398454      -1.21000888      -4.33312439 </v>
  </varray>
  <energy>
   <i name="e_fr_energy">   -230.66524606 </i>
   <i name="e_wo_entrp">   -230.65953188 </i>
   <i name="e_0_energy">     -0.01714253 </i>
  </energy>
  <time name="totalsc">   67.78   68.90</time>
 </calculation>
 <calculation>
  <scstep>
   <time name="dav">    8.04    8.10</time>
   <time name="total">    8.56    8.67</time>
   <energy>
    <i name="alphaZ">    975.10247152 </i>
    <i name="ewald">  91550.39448690 </i>
    <i name="hartreedc">-120250.68379952 </i>
    <i name="XCdc">    178.38678285 </i>
    <i name="pawpsdc">  30108.06905346 </i>
    <i name="pawaedc"> -29194.16625104 </i>
    <i name="eentropy">     -0.01154109 </i>
    <i name="bandstr">   -857.71103949 </i>
    <i name="atom">  27259.89416086 </i>
    <i name="e_fr_energy">   -230.72567555 </i>
    <i name="e_wo_entrp">   -230.71413446 </i>
    <i name="e_0_energy">   -230.72182852 </i>
   </energy>
  </scstep>
  <scstep>
   <time name="diag">    1.23    1.24</time>
   <time name="diis">    4.38    4.42</time>
   <time name="orth">    0.22    0.22</time>
   <time name="total">    6.34    6.39</time>
   <energy>
    <i name="e_fr_energy">   -230.76227635 </i>
    <i name="e_wo_entrp">   -230.74305375 </i>
    <i name="e_0_energy">   -230.75586882 </i>
   </energy>
  </scstep>
  <scstep>
   <time name="diag">    1.16    1.17</time>
   <time name="diis">    4.48    4.52</time>
   <time name="orth">    0.22    0.22</time>
   <time name="total">    6.40    6.45</time>
   <energy>
    <i name="e_fr_energy">   -230.76800247 </i>
    <i name="e_wo_entrp">   -230.75836151 </i>
    <i name="e_0_energy">   -230.76478881 </i>
   </energy>
  </scstep>
  <scstep>
   <time name="diag">    1.37    1.38</time>
   <time name="diis">    4.61    4.65</time>
   <time name="orth">    0.22    0.22</time>
   <time name="total">    6.74    6.79</time>
   <energy>
    <i name="e_fr_energy">   -230.75705764 </i>
    <i name="e_wo_entrp">   -230.74537630 </i>
    <i name="e_0_energy">   -230.75316386 </i>
   </energy>
  </scstep>
  <scstep>
   <time name="diag">    1.38    1.39</time>
   <time name="diis">    4.58    4.62</time>
   <time name="orth">    0.22    0.22</time>
   <time name="total">    6.72    6.78</time>
   <energy>
    <i name="e_fr_energy">   -230.75319898 </i>
    <i name="e_wo_entrp">   -230.73864016 </i>
    <i name="e_0_energy">   -230.74834604 </i>
   </energy>
  </scstep>
  <scstep>
   <time name="diag">    1.30    1.31</time>
   <time name="diis">    4.24    4.28</time>
   <time name="orth">    0.22    0.22</time>
   <time name="total">    6.29    6.34</time>
   <energy>
    <i name="e_fr_energy">   -230.75331223 </i>
    <i name="e_wo_entrp">   -230.74037751 </i>
    <i name="e_0_energy">   -230.74900066 </i>
   </energy>
  </scstep>
  <scstep>
   <time name="diag">    1.25    1.26</time>
   <time name="diis">    4.47    4.51</time>
   <time name="orth">    0.21    0.21</time>
   <time name="total">    6.46    6.51</time>
   <energy>
    <i name="e_fr_energy">   -230.75326155 </i>
    <i name="e_wo_entrp">   -230.73874324 </i>
    <i name="e_0_energy">   -230.74842211 </i>
   </energy>
  </scstep>
  <scstep>
   <time name="diag">    1.19    1.20</time>
   <time name="diis">    3.73    3.76</time>
   <time name="orth">    0.22    0.22</time>
   <time name="total">    5.66    5.71</time>
   <energy>
    <i name="e_fr_energy">   -230.75293711 </i>
    <i name="e_wo_entrp">   -230.73941070 </i>
    <i name="e_0_energy">   -230.74842830 </i>
   </energy>
  </scstep>
  <scstep>
   <time name="diag">    1.23    1.24</time>
   <time name="diis">    2.78    2.81</time>
   <time name="orth">    0.22    0.22</time>
   <time name="total">    4.38    4.41</time>
   <energy>
    <i name="alphaZ">    975.10247152 </i>
    <i name="ewald">  91550.39448690 </i>
    <i name="hartreedc">-120248.63323635 </i>
    <i name="XCdc">    178.39676570 </i>
    <i name="pawpsdc">  30103.93644281 </i>
    <i name="pawaedc"> -29190.04167087 </i>
    <i name="eentropy">     -0.01378851 </i>
    <i name="bandstr">   -859.78854313 </i>
    <i name="atom">  27259.89416086 </i>
    <i name="e_fr_energy">   -230.75291106 </i>
    <i name="e_wo_entrp">   -230.73912254 </i>
    <i name="e_0_energy">   -230.74831489 </i>
   </energy>
  </scstep>
  <structure>
   <crystal>
    <varray name="basis" >
     <v>       7.29695512      -4.21289900       0.00000000 </v>
     <v>       0.00000000       8.42579800       0.00000000 </v>
     <v>       0.00000000       0.00000000      21.87963500 </v>
    </varray>
    <i name="volume">   1345.21837528 </i>
    <varray name="rec_basis" >
     <v>       0.13704346       0.00000000       0.00000000 </v>
     <v>       0.06852173       0.11868312       0.00000000 </v>
     <v>       0.00000000       0.00000000       0.04570460 </v>
    </varray>
   </crystal>
   <varray name="positions" >
    <v>       0.70286991       0.42191098       0.47458202 </v>
    <v>       0.91034376       0.39239547       0.46758672 </v>
    <v>       0.67967271       0.46711304       0.52271728 </v>
    <v>       0.98675500       0.32859100       0.07437600 </v>
    <v>       0.32008800       0.32859100       0.07437600 </v>
    <v>       0.65342200       0.32859100       0.07437600 </v>
    <v>       0.98675500       0.66192500       0.07437600 </v>
    <v>       0.32008800       0.66192500       0.07437600 </v>
    <v>       0.65342200       0.66192500       0.07437600 </v>
    <v>       0.32008800       0.99525800       0.07437600 </v>
    <v>       0.65342200       0.99525800       0.07437600 </v>
    <v>       0.98675500       0.99525800       0.07437600 </v>
    <v>       0.20897700       0.10636900       0.17918600 </v>
    <v>       0.54231100       0.10636900       0.17918600 </v>
    <v>       0.87564400       0.10636900       0.17918600 </v>
    <v>       0.20897700       0.43970300       0.17918600 </v>
    <v>       0.54231100       0.43970300       0.17918600 </v>
    <v>       0.87564400       0.43970300       0.17918600 </v>
    <v>       0.20897700       0.77303600       0.17918600 </v>
    <v>       0.54231100       0.77303600       0.17918600 </v>
    <v>       0.87564400       0.77303600       0.17918600 </v>
    <v>       0.09777197       0.54907680       0.28199619 </v>
    <v>       0.43197650       0.88392516       0.28263383 </v>
    <v>       0.76308257       0.21841520       0.28587618 </v>
    <v>       0.09512504       0.22031316       0.28458412 </v>
    <v>       0.43435542       0.21830498       0.28278493 </v>
    <v>       0.09980659       0.88438459       0.28291453 </v>
    <v>       0.76429486       0.88426098       0.28219308 </v>
    <v>       0.43214316       0.55119455       0.28231768 </v>
    <v>       0.76550506       0.55118768       0.28293462 </v>
    <v>       0.32369290       0.65827053       0.38633967 </v>
    <v>       0.65060462       0.98998474       0.38789223 </v>
    <v>       0.32113741       0.32257822       0.38584537 </v>
    <v>       0.98507149       0.99084383       0.38647892 </v>
    <v>       0.32141295       0.98920537       0.38770588 </v>
    <v>       0.63895688       0.32595436       0.39350378 </v>
    <v>       0.99412875       0.66491251       0.38569979 </v>
    <v>       0.99208307       0.32333866       0.39274961 </v>
    <v>       0.65599855       0.66580957       0.38754467 </v>
   </varray>
  </structure>
  <varray name="forces" >
   <v>       0.26900880      -1.01287914       0.01163175 </v>
   <v>       0.26564070       0.51900757       0.20499135 </v>
   <v>       0.22380546      -0.08372438      -0.12944186 </v>
   <v>       0.00568323      -0.04596791       0.15542559 </v>
   <v>      -0.04375947      -0.04233381       0.15962659 </v>
   <v>      -0.01293610      -0.01115632       0.15133944 </v>
   <v>       0.01544472       0.06017514       0.10765959 </v>
   <v>      -0.00790463       0.02820331       0.13088656 </v>
   <v>       0.01795726      -0.01124228       0.14345959 </v>
   <v>      -0.00721825      -0.05698831       0.03730524 </v>
   <v>      -0.01130077       0.03555233       0.13091725 </v>
   <v>       0.01232242      -0.01005555       0.05709420 </v>
   <v>      -0.07894863       0.03685207      -0.09718383 </v>
   <v>       0.08402031       0.04571753      -0.02094667 </v>
   <v>       0.09001104       0.04573477      -0.01597258 </v>
   <v>      -0.03799352      -0.08702482      -0.13282762 </v>
   <v>       0.00744513       0.00310224      -0.12483259 </v>
   <v>      -0.09219262      -0.05900326       0.01076707 </v>
   <v>      -0.01174894       0.08006432      -0.22243877 </v>
   <v>       0.04346457       0.04608837      -0.19938029 </v>
   <v>       0.11510159       0.07891718      -0.26486305 </v>
   <v>      -0.01375071      -0.03390154       0.22476233 </v>
   <v>      -0.00431819       0.01034655      -0.03393148 </v>
   <v>       0.03302899      -0.03035389      -0.18853412 </v>
   <v>      -0.06098464      -0.00595174      -0.05215057 </v>
   <v>      -0.09701128      -0.07364315       0.08969473 </v>
   <v>      -0.09413317       0.02272150      -0.13392357 </v>
   <v>       0.04258665       0.04573892       0.04732516 </v>
   <v>       0.00414895      -0.10467540       0.08686586 </v>
   <v>      -0.03076217      -0.06288092       0.03924431 </v>
   <v>      -0.02309868       0.15636510      -0.01209591 </v>
   <v>       0.06643570       0.03582777      -0.13491757 </v>
   <v>      -0.22000720       0.16679262       0.06472370 </v>
   <v>       0.10151112      -0.02641987       0.18002240 </v>
   <v>      -0.12607893       0.10150087      -0.02987140 </v>
   <v>      -0.14818096       0.10642504      -0.24644388 </v>
   <v>      -0.01311934       0.10130616       0.04898054 </v>
   <v>      -0.23983665      -0.02162895       0.22561929 </v>
   <v>      -0.02233179       0.05339189      -0.26858681 </v>
  </varray>
  <varray name="stress" >
   <v>     -43.07603813       1.22890574       2.25462705 </v>
   <v>       1.22890577     -46.34725517      -1.08550017 </v>
   <v>       2.25462710      -1.08550023      -4.00041676 </v>
  </varray>
  <energy>
   <i name="e_fr_energy">   -230.75291106 </i>
   <i name="e_wo_entrp">   -230.74831489 </i>
   <i name="e_0_energy">     -0.01378851 </i>
  </energy>
  <time name="totalsc">   68.32   69.19</time>
 </calculation>
 <calculation>
  <scstep>
