metal                                   
           1
     7.296955   -4.212899    0.000000
     0.000000    8.425798    0.000000
     0.000000    0.000000   21.879635
   C    O    Pt
   1   2  36
Direct configuration=     1
   0.70302837  0.43591591  0.47311100
   0.90424316  0.38502481  0.46905787
   0.67489183  0.46277179  0.52299953
   0.98675500  0.32859100  0.07437600
   0.32008800  0.32859100  0.07437600
   0.65342200  0.32859100  0.07437600
   0.98675500  0.66192500  0.07437600
   0.32008800  0.66192500  0.07437600
   0.65342200  0.66192500  0.07437600
   0.32008800  0.99525800  0.07437600
   0.65342200  0.99525800  0.07437600
   0.98675500  0.99525800  0.07437600
   0.20897700  0.10636900  0.17918600
   0.54231100  0.10636900  0.17918600
   0.87564400  0.10636900  0.17918600
   0.20897700  0.43970300  0.17918600
   0.54231100  0.43970300  0.17918600
   0.87564400  0.43970300  0.17918600
   0.20897700  0.77303600  0.17918600
   0.54231100  0.77303600  0.17918600
   0.87564400  0.77303600  0.17918600
   0.09955347  0.55112144  0.27883728
   0.42829136  0.87974866  0.28324509
   0.76282578  0.22045541  0.28782979
   0.09659369  0.22076534  0.28679361
   0.43690591  0.22221838  0.28185601
   0.10043965  0.88303907  0.28579989
   0.76498844  0.88160979  0.28053243
   0.42916318  0.55483492  0.28014091
   0.76822254  0.55315489  0.28160333
   0.32405989  0.65692880  0.38654042
   0.64754026  0.99106815  0.38930855
   0.32615885  0.32039215  0.38558154
   0.98422659  0.99130305  0.38440538
   0.32496968  0.98845150  0.38735229
   0.63913658  0.32466567  0.39601909
   0.99454749  0.66477698  0.38503459
   0.99595590  0.32338969  0.38935854
   0.65630037  0.66505928  0.39002437
Direct configuration=     2
   0.70338271  0.43342196  0.47355939
   0.90543272  0.38594915  0.46810608
   0.67542511  0.46419527  0.52336885
   0.98675500  0.32859100  0.07437600
   0.32008800  0.32859100  0.07437600
   0.65342200  0.32859100  0.07437600
   0.98675500  0.66192500  0.07437600
   0.32008800  0.66192500  0.07437600
   0.65342200  0.66192500  0.07437600
   0.32008800  0.99525800  0.07437600
   0.65342200  0.99525800  0.07437600
   0.98675500  0.99525800  0.07437600
   0.20897700  0.10636900  0.17918600
   0.54231100  0.10636900  0.17918600
   0.87564400  0.10636900  0.17918600
   0.20897700  0.43970300  0.17918600
   0.54231100  0.43970300  0.17918600
   0.87564400  0.43970300  0.17918600
   0.20897700  0.77303600  0.17918600
   0.54231100  0.77303600  0.17918600
   0.87564400  0.77303600  0.17918600
   0.09890298  0.55050712  0.27962333
   0.42964322  0.88125821  0.28307036
   0.76265547  0.21977066  0.28737564
   0.09641836  0.22073242  0.28601742
   0.43639814  0.22131740  0.28206210
   0.10057498  0.88359581  0.28493166
   0.76453162  0.88224264  0.28103062
   0.43017690  0.55384168  0.28078119
   0.76733830  0.55262418  0.28199259
   0.32394755  0.65693266  0.38649087
   0.64839670  0.99062731  0.38896289
   0.32525432  0.32110754  0.38563871
   0.98404962  0.99093824  0.38495479
   0.32425290  0.98873660  0.38752014
   0.63941849  0.32456320  0.39515579
   0.99432257  0.66428725  0.38526997
   0.99491285  0.32413413  0.39053365
   0.65624151  0.66527172  0.38945168
Direct configuration=     3
   0.70307881  0.42915402  0.47486273
   0.90752730  0.38802842  0.46714370
   0.67726859  0.46559027  0.52273553
   0.98675500  0.32859100  0.07437600
   0.32008800  0.32859100  0.07437600
   0.65342200  0.32859100  0.07437600
   0.98675500  0.66192500  0.07437600
   0.32008800  0.66192500  0.07437600
   0.65342200  0.66192500  0.07437600
   0.32008800  0.99525800  0.07437600
   0.65342200  0.99525800  0.07437600
   0.98675500  0.99525800  0.07437600
   0.20897700  0.10636900  0.17918600
   0.54231100  0.10636900  0.17918600
   0.87564400  0.10636900  0.17918600
   0.20897700  0.43970300  0.17918600
   0.54231100  0.43970300  0.17918600
   0.87564400  0.43970300  0.17918600
   0.20897700  0.77303600  0.17918600
   0.54231100  0.77303600  0.17918600
   0.87564400  0.77303600  0.17918600
   0.09815414  0.54971883  0.28084237
   0.43128369  0.88306984  0.28281483
   0.76262355  0.21884959  0.28665599
   0.09590599  0.22060995  0.28509896
   0.43548534  0.21987175  0.28239824
   0.10051714  0.88424563  0.28376517
   0.76409544  0.88325112  0.28171672
   0.43148328  0.55245725  0.28167168
   0.76618307  0.55189824  0.28254747
   0.32380426  0.65722892  0.38641047
   0.64960022  0.99007016  0.38842606
   0.32356734  0.32202982  0.38571339
   0.98417690  0.99066109  0.38572816
   0.32296843  0.98903482  0.38769732
   0.63960976  0.32500873  0.39414348
   0.99413133  0.66408197  0.38555303
   0.99338299  0.32459332  0.39203588
   0.65612422  0.66552166  0.38854202
Direct configuration=     4
   0.70318788  0.42588353  0.47450646
   0.90876496  0.38935757  0.46679611
   0.67790776  0.46694651  0.52327318
   0.98675500  0.32859100  0.07437600
   0.32008800  0.32859100  0.07437600
   0.65342200  0.32859100  0.07437600
   0.98675500  0.66192500  0.07437600
   0.32008800  0.66192500  0.07437600
   0.65342200  0.66192500  0.07437600
   0.32008800  0.99525800  0.07437600
   0.65342200  0.99525800  0.07437600
   0.98675500  0.99525800  0.07437600
   0.20897700  0.10636900  0.17918600
   0.54231100  0.10636900  0.17918600
   0.87564400  0.10636900  0.17918600
   0.20897700  0.43970300  0.17918600
   0.54231100  0.43970300  0.17918600
   0.87564400  0.43970300  0.17918600
   0.20897700  0.77303600  0.17918600
   0.54231100  0.77303600  0.17918600
   0.87564400  0.77303600  0.17918600
   0.09781311  0.54932965  0.28146647
   0.43202231  0.88389367  0.28269004
   0.76267130  0.21843046  0.28627320
   0.09560328  0.22052328  0.28467278
   0.43498317  0.21910448  0.28258229
   0.10040050  0.88451985  0.28319606
   0.76394474  0.88377957  0.28205305
   0.43208559  0.55175105  0.28210806
   0.76564005  0.55152338  0.28281761
   0.32373385  0.65747368  0.38636859
   0.65020397  0.98983398  0.38814449
   0.32259738  0.32246661  0.38575649
   0.98433724  0.99057089  0.38612950
   0.32226057  0.98917048  0.38776917
   0.63966952  0.32539628  0.39371851
   0.99405836  0.66410801  0.38567861
   0.99262171  0.32462755  0.39272980
   0.65605882  0.66565351  0.38805269
Direct configuration=     5
   0.70286991  0.42191098  0.47458202
   0.91034376  0.39239547  0.46758672
   0.67967271  0.46711304  0.52271728
   0.98675500  0.32859100  0.07437600
   0.32008800  0.32859100  0.07437600
   0.65342200  0.32859100  0.07437600
   0.98675500  0.66192500  0.07437600
   0.32008800  0.66192500  0.07437600
   0.65342200  0.66192500  0.07437600
   0.32008800  0.99525800  0.07437600
   0.65342200  0.99525800  0.07437600
   0.98675500  0.99525800  0.07437600
   0.20897700  0.10636900  0.17918600
   0.54231100  0.10636900  0.17918600
   0.87564400  0.10636900  0.17918600
   0.20897700  0.43970300  0.17918600
   0.54231100  0.43970300  0.17918600
   0.87564400  0.43970300  0.17918600
   0.20897700  0.77303600  0.17918600
   0.54231100  0.77303600  0.17918600
   0.87564400  0.77303600  0.17918600
   0.09777197  0.54907680  0.28199619
   0.43197650  0.88392516  0.28263383
   0.76308257  0.21841520  0.28587618
   0.09512504  0.22031316  0.28458412
   0.43435542  0.21830498  0.28278493
   0.09980659  0.88438459  0.28291453
   0.76429486  0.88426098  0.28219308
   0.43214316  0.55119455  0.28231768
   0.76550506  0.55118768  0.28293462
   0.32369290  0.65827053  0.38633967
   0.65060462  0.98998474  0.38789223
   0.32113741  0.32257822  0.38584537
   0.98507149  0.99084383  0.38647892
   0.32141295  0.98920537  0.38770588
   0.63895688  0.32595436  0.39350378
   0.99412875  0.66491251  0.38569979
   0.99208307  0.32333866  0.39274961
   0.65599855  0.66580957  0.38754467
