       N       E                     dE             d eps       ncg     rms          rms(c)
DAV:   1     0.241851226831E+04    0.24185E+04   -0.15950E+05  1824   0.129E+03
DAV:   2    -0.643379740152E+02   -0.24829E+04   -0.23102E+04  2120   0.286E+02
DAV:   3    -0.240819755270E+03   -0.17648E+03   -0.16026E+03  2168   0.687E+01
DAV:   4    -0.248381140167E+03   -0.75614E+01   -0.72943E+01  2344   0.136E+01
DAV:   5    -0.248610344995E+03   -0.22920E+00   -0.22680E+00  2592   0.236E+00    0.273E+01
RMM:   6    -0.245725695882E+03    0.28846E+01   -0.54363E+01  1832   0.148E+01    0.288E+01
RMM:   7    -0.238216865131E+03    0.75088E+01   -0.31769E+01  1831   0.886E+00    0.180E+01
RMM:   8    -0.239770691823E+03   -0.15538E+01   -0.75967E+00  1830   0.469E+00    0.230E+01
RMM:   9    -0.232850152858E+03    0.69205E+01   -0.25644E+00  1828   0.249E+00    0.119E+01
RMM:  10    -0.230890404350E+03    0.19597E+01   -0.15307E+00  1831   0.196E+00    0.494E+00
RMM:  11    -0.230463009330E+03    0.42740E+00   -0.40678E-01  1832   0.102E+00    0.327E+00
RMM:  12    -0.230342301321E+03    0.12071E+00   -0.18460E-01  1832   0.670E-01    0.260E+00
RMM:  13    -0.230276109240E+03    0.66192E-01   -0.15442E-01  1830   0.647E-01    0.184E+00
RMM:  14    -0.230235963061E+03    0.40146E-01   -0.95936E-02  1830   0.540E-01    0.929E-01
RMM:  15    -0.230226703564E+03    0.92595E-02   -0.29139E-02  1832   0.283E-01    0.549E-01
RMM:  16    -0.230223770589E+03    0.29330E-02   -0.76806E-03  1833   0.148E-01    0.342E-01
RMM:  17    -0.230223104078E+03    0.66651E-03   -0.34694E-03  1826   0.994E-02    0.237E-01
RMM:  18    -0.230223009126E+03    0.94952E-04   -0.15968E-03  1814   0.675E-02    0.155E-01
RMM:  19    -0.230222872424E+03    0.13670E-03   -0.58832E-04  1613   0.428E-02    0.656E-02
RMM:  20    -0.230223073749E+03   -0.20133E-03   -0.16995E-04  1029   0.234E-02    0.609E-02
RMM:  21    -0.230223257506E+03   -0.18376E-03   -0.92314E-05  1007   0.172E-02    0.335E-02
RMM:  22    -0.230223356463E+03   -0.98957E-04   -0.34150E-05   971   0.103E-02
   1 F= -.23022336E+03 E0= -.23022242E+03  d E =-.230223E+03
       N       E                     dE             d eps       ncg     rms          rms(c)
DAV:   1    -0.230366136354E+03   -0.14288E+00   -0.21165E+01  1840   0.842E+00    0.665E-01
RMM:   2    -0.230406454300E+03   -0.40318E-01   -0.40686E-01  1832   0.135E+00    0.824E-01
RMM:   3    -0.230409628611E+03   -0.31743E-02   -0.24319E-02  1877   0.273E-01    0.943E-01
RMM:   4    -0.230397417840E+03    0.12211E-01   -0.69430E-03  1847   0.140E-01    0.448E-01
RMM:   5    -0.230395675953E+03    0.17419E-02   -0.60871E-03  1831   0.132E-01    0.358E-01
RMM:   6    -0.230395072646E+03    0.60331E-03   -0.70392E-03  1830   0.145E-01    0.293E-01
RMM:   7    -0.230393908693E+03    0.11640E-02   -0.26739E-03  1827   0.863E-02    0.138E-01
RMM:   8    -0.230393702144E+03    0.20655E-03   -0.58656E-04  1623   0.420E-02    0.736E-02
RMM:   9    -0.230393680294E+03    0.21850E-04   -0.14786E-04   989   0.225E-02
   2 F= -.23039368E+03 E0= -.23039211E+03  d E =-.170324E+00
       N       E                     dE             d eps       ncg     rms          rms(c)
DAV:   1    -0.230460003219E+03   -0.66301E-01   -0.50876E+00  1844   0.422E+00    0.411E-01
RMM:   2    -0.230477469643E+03   -0.17466E-01   -0.18705E-01  1839   0.706E-01    0.437E-01
RMM:   3    -0.230476764558E+03    0.70509E-03   -0.70219E-03  1869   0.135E-01    0.479E-01
RMM:   4    -0.230474094520E+03    0.26700E-02   -0.21216E-03  1836   0.729E-02    0.298E-01
RMM:   5    -0.230473955205E+03    0.13931E-03   -0.44479E-03  1830   0.109E-01    0.298E-01
RMM:   6    -0.230472855897E+03    0.10993E-02   -0.26625E-03  1825   0.864E-02    0.170E-01
RMM:   7    -0.230472461479E+03    0.39442E-03   -0.81924E-04  1753   0.477E-02    0.834E-02
RMM:   8    -0.230472361973E+03    0.99506E-04   -0.15739E-04  1016   0.231E-02
   3 F= -.23047236E+03 E0= -.23047063E+03  d E =-.786817E-01
       N       E                     dE             d eps       ncg     rms          rms(c)
