 vasp.5.4.4 16052018 (build Apr 24 2014 20:13:14) complex standard
 Contain Constrained Minimization Technique (TS), Periodic NBO, VASPsol, libbeef, VASP2WANNIER90, Constrained Cell Relaxation
 executed on Center for Computational Chemistry by phu@node11 date 2025.11.24 21:51:43
 running on    8 total cores
 distrk:  each k-point on    8 cores,    1 groups
 distr:  one band on NCORES_PER_BAND=   2 cores,    4 groups


--------------------------------------------------------------------------------------------------------


 INCAR:
 POTCAR:   PAW_PBE C 08Apr2002                    
 POTCAR:   PAW_PBE O 08Apr2002                    
 POTCAR:    PAW_PBE Pt 04Feb2005                  
 POTCAR:   PAW_PBE C 08Apr2002                    
   VRHFIN =C: s2p2                                                              
   LEXCH  = PE                                                                  
   EATOM  =   147.1560 eV,   10.8157 Ry                                         
                                                                                
   TITEL  = PAW_PBE C 08Apr2002                                                 
   LULTRA =        F    use ultrasoft PP ?                                      
   IUNSCR =        0    unscreen: 0-lin 1-nonlin 2-no                           
   RPACOR =     .000    partial core radius                                     
   POMASS =   12.011; ZVAL   =    4.000    mass and valenz                      
   RCORE  =    1.500    outmost cutoff radius                                   
   RWIGS  =    1.630; RWIGS  =     .863    wigner-seitz radius (au A)           
   ENMAX  =  400.000; ENMIN  =  300.000 eV                                      
   ICORE  =        2    local potential                                         
   LCOR   =        T    correct aug charges                                     
   LPAW   =        T    paw PP                                                  
   EAUG   =  644.873                                                            
   DEXC   =     .000                                                            
   RMAX   =    2.266    core radius for proj-oper                               
   RAUG   =    1.300    factor for augmentation sphere                          
   RDEP   =    1.501    radius for radial grids                                 
   RDEPT  =    1.300    core radius for aug-charge                              
   QCUT   =   -5.516; QGAM   =   11.032    optimization parameters              
                                                                                
   Description                                                                  
     l     E      TYP  RCUT    TYP  RCUT                                        
     0   .000     23  1.200                                                     
     0   .000     23  1.200                                                     
     1   .000     23  1.500                                                     
     1  2.500     23  1.500                                                     
     2   .000      7  1.500                                                     
  local pseudopotential read in
  atomic valenz-charges read in
  non local Contribution for L=           0  read in
    real space projection operators read in
  non local Contribution for L=           0  read in
    real space projection operators read in
  non local Contribution for L=           1  read in
    real space projection operators read in
  non local Contribution for L=           1  read in
    real space projection operators read in
    PAW grid and wavefunctions read in
 
   number of l-projection  operators is LMAX  =           4
   number of lm-projection operators is LMMAX =           8
 
 POTCAR:   PAW_PBE O 08Apr2002                    
   VRHFIN =O: s2p4                                                              
   LEXCH  = PE                                                                  
   EATOM  =   432.3788 eV,   31.7789 Ry                                         
                                                                                
   TITEL  = PAW_PBE O 08Apr2002                                                 
   LULTRA =        F    use ultrasoft PP ?                                      
   IUNSCR =        0    unscreen: 0-lin 1-nonlin 2-no                           
   RPACOR =     .000    partial core radius                                     
   POMASS =   16.000; ZVAL   =    6.000    mass and valenz                      
   RCORE  =    1.520    outmost cutoff radius                                   
   RWIGS  =    1.550; RWIGS  =     .820    wigner-seitz radius (au A)           
   ENMAX  =  400.000; ENMIN  =  300.000 eV                                      
   ICORE  =        2    local potential                                         
   LCOR   =        T    correct aug charges                                     
   LPAW   =        T    paw PP                                                  
   EAUG   =  605.392                                                            
   DEXC   =     .000                                                            
   RMAX   =    2.264    core radius for proj-oper                               
   RAUG   =    1.300    factor for augmentation sphere                          
   RDEP   =    1.550    radius for radial grids                                 
   QCUT   =   -5.520; QGAM   =   11.041    optimization parameters              
                                                                                
   Description                                                                  
     l     E      TYP  RCUT    TYP  RCUT                                        
     0   .000     23  1.200                                                     
     0  -.700     23  1.200                                                     
     1   .000     23  1.520                                                     
     1   .600     23  1.520                                                     
     2   .000      7  1.500                                                     
  local pseudopotential read in
  atomic valenz-charges read in
  non local Contribution for L=           0  read in
    real space projection operators read in
  non local Contribution for L=           0  read in
    real space projection operators read in
  non local Contribution for L=           1  read in
    real space projection operators read in
  non local Contribution for L=           1  read in
    real space projection operators read in
    PAW grid and wavefunctions read in
 
   number of l-projection  operators is LMAX  =           4
   number of lm-projection operators is LMMAX =           8
 
 POTCAR:    PAW_PBE Pt 04Feb2005                  
   VRHFIN =Pt: s1d9                                                             
   LEXCH  = PE                                                                  
   EATOM  =   729.1182 eV,   53.5887 Ry                                         
                                                                                
   TITEL  = PAW_PBE Pt 04Feb2005                                                
   LULTRA =        F    use ultrasoft PP ?                                      
   IUNSCR =        1    unscreen: 0-lin 1-nonlin 2-no                           
   RPACOR =    2.330    partial core radius                                     
   POMASS =  195.080; ZVAL   =   10.000    mass and valenz                      
   RCORE  =    2.600    outmost cutoff radius                                   
   RWIGS  =    2.750; RWIGS  =    1.455    wigner-seitz radius (au A)           
   ENMAX  =  230.283; ENMIN  =  172.712 eV                                      
   ICORE  =        3    local potential                                         
   LCOR   =        T    correct aug charges                                     
   LPAW   =        T    paw PP                                                  
   EAUG   =  358.966                                                            
   DEXC   =     .000                                                            
   RMAX   =    3.038    core radius for proj-oper                               
   RAUG   =    1.300    factor for augmentation sphere                          
   RDEP   =    2.761    radius for radial grids                                 
   QCUT   =   -4.114; QGAM   =    8.228    optimization parameters              
                                                                                
   Description                                                                  
     l     E      TYP  RCUT    TYP  RCUT                                        
     2   .000     23  2.500                                                     
     2   .000     23  2.500                                                     
     0   .000     23  2.500                                                     
     0   .000     23  2.500                                                     
     1  -.200     23  2.600                                                     
     1  1.500     23  2.600                                                     
     3   .000     23  2.500                                                     
  local pseudopotential read in
  partial core-charges read in
  atomic valenz-charges read in
  non local Contribution for L=           2  read in
    real space projection operators read in
  non local Contribution for L=           2  read in
    real space projection operators read in
  non local Contribution for L=           0  read in
    real space projection operators read in
  non local Contribution for L=           0  read in
    real space projection operators read in
  non local Contribution for L=           1  read in
    real space projection operators read in
  non local Contribution for L=           1  read in
    real space projection operators read in
    PAW grid and wavefunctions read in
 
   number of l-projection  operators is LMAX  =           6
   number of lm-projection operators is LMMAX =          18
 
 Optimization of the real space projectors (new method)

 maximal supplied QI-value         = 25.13
 optimisation between [QCUT,QGAM] = [ 10.81, 21.61] = [ 32.71,130.83] Ry 
 Optimized for a Real-space Cutoff    1.23 Angstroem

   l    n(q)    QCUT    max X(q) W(low)/X(q) W(high)/X(q)  e(spline) 
   0      8    10.807     5.582    0.53E-04    0.84E-04    0.44E-07
   0      8    10.807    69.432    0.35E-03    0.71E-03    0.24E-06
   1      7    10.807     2.780    0.44E-04    0.88E-04    0.89E-07
   1      7    10.807     4.549    0.14E-03    0.28E-03    0.13E-06
 Optimization of the real space projectors (new method)

 maximal supplied QI-value         = 24.76
 optimisation between [QCUT,QGAM] = [ 10.64, 21.54] = [ 31.73,129.89] Ry 
 Optimized for a Real-space Cutoff    1.23 Angstroem

   l    n(q)    QCUT    max X(q) W(low)/X(q) W(high)/X(q)  e(spline) 
   0      8    10.645     4.192    0.69E-04    0.93E-04    0.58E-07
   0      8    10.645     8.473    0.40E-03    0.65E-03    0.17E-06
   1      7    10.645     2.474    0.80E-04    0.12E-03    0.30E-07
   1      7    10.645     3.912    0.24E-03    0.53E-03    0.16E-06
 Optimization of the real space projectors (new method)

 maximal supplied QI-value         = 14.36
 optimisation between [QCUT,QGAM] = [ 10.77, 21.69] = [ 32.49,131.70] Ry 
 Optimized for a Real-space Cutoff    1.46 Angstroem

   l    n(q)    QCUT    max X(q) W(low)/X(q) W(high)/X(q)  e(spline) 
   2      9    10.771     3.903    0.38E-04    0.12E-03    0.82E-07
   2      9    10.771    18.372    0.13E-03    0.32E-03    0.28E-06
   0     10    10.771    13.697    0.11E-04    0.86E-05    0.85E-08
   0     10    10.771    65.529    0.40E-04    0.12E-03    0.14E-06
   1      9    10.771     7.604    0.48E-04    0.31E-04    0.38E-07
   1      9    10.771    12.136    0.35E-03    0.16E-03    0.23E-06
 PAW_PBE C 08Apr2002                    :
 energy of atom  1       EATOM= -147.1560
 kinetic energy error for atom=    0.0116 (will be added to EATOM!!)
 PAW_PBE O 08Apr2002                    :
 energy of atom  2       EATOM= -432.3788
 kinetic energy error for atom=    0.0389 (will be added to EATOM!!)
  PAW_PBE Pt 04Feb2005                  :
 energy of atom  3       EATOM= -729.1182
 kinetic energy error for atom=    0.0051 (will be added to EATOM!!)
 
 
 POSCAR: C    O    Pt                            
  positions in direct lattice
  No initial velocities read in
 exchange correlation table for  LEXCH =        8
   RHO(1)=    0.500       N(1)  =     2000
   RHO(2)=  100.500       N(2)  =     4000

 VTST: version 3.2, (02/03/18)

 CHAIN: initializing optimizer
 
 OPT: Using VASP QUASI-newton optimizer
 CHAIN: Read ICHAIN            0
 
 POSCAR: C    O    Pt                            
  positions in direct lattice
  No initial velocities read in
 


--------------------------------------------------------------------------------------------------------


 ion  position               nearest neighbor table
   1  0.707  0.435  0.478-   3 1.16   2 1.91  36 1.97
   2  0.904  0.387  0.469-   1 1.91  38 2.01  36 2.58
   3  0.679  0.462  0.528-   1 1.16
   4  0.987  0.329  0.074-  15 2.81  16 2.81  12 2.81   5 2.81  11 2.81   6 2.81  18 2.81   8 2.81
                             7 2.81
   5  0.320  0.329  0.074-  13 2.81  10 2.81   4 2.81  12 2.81  16 2.81  17 2.81   8 2.81   9 2.81
                             6 2.81
   6  0.653  0.329  0.074-  14 2.81  18 2.81  11 2.81   4 2.81  17 2.81   7 2.81  10 2.81   9 2.81
                             5 2.81
   7  0.987  0.662  0.074-  18 2.81  21 2.81  19 2.81  12 2.81   8 2.81  10 2.81   9 2.81   6 2.81
                             4 2.81
   8  0.320  0.662  0.074-  16 2.81  19 2.81  10 2.81   7 2.81  20 2.81   4 2.81  11 2.81   5 2.81
                             9 2.81
   9  0.653  0.662  0.074-  17 2.81  20 2.81  21 2.81  11 2.81  12 2.81   7 2.81   6 2.81   5 2.81
                             8 2.81
  10  0.320  0.995  0.074-  13 2.81  19 2.81   5 2.81   8 2.81  12 2.81   7 2.81  14 2.81   6 2.81
                            11 2.81
  11  0.653  0.995  0.074-  14 2.81  20 2.81  15 2.81   9 2.81   6 2.81  12 2.81   4 2.81   8 2.81
                            10 2.81
  12  0.987  0.995  0.074-  15 2.81  21 2.81  13 2.81   7 2.81   4 2.81  10 2.81   5 2.81  11 2.81
                             9 2.81
  13  0.209  0.106  0.179-  25 2.75  26 2.75  27 2.77  10 2.81   5 2.81  12 2.81  19 2.81  15 2.81
                            21 2.81  16 2.81  17 2.81  14 2.81
  14  0.542  0.106  0.179-  26 2.72  23 2.75   6 2.81  11 2.81  20 2.81  15 2.81  10 2.81  18 2.81
                            19 2.81  17 2.81  13 2.81  24 2.86
  15  0.876  0.106  0.179-  28 2.73  25 2.75   4 2.81  12 2.81  11 2.81  21 2.81  13 2.81  20 2.81
                            14 2.81  16 2.81  18 2.81  24 2.86
  16  0.209  0.440  0.179-  22 2.71  25 2.77   8 2.81   4 2.81  19 2.81  18 2.81   5 2.81  15 2.81
                            20 2.81  13 2.81  17 2.81  29 2.89
  17  0.542  0.440  0.179-  26 2.75   9 2.81  20 2.81  21 2.81  18 2.81   6 2.81   5 2.81  14 2.81
                            13 2.81  16 2.81  29 2.85  30 2.88
  18  0.876  0.440  0.179-  22 2.74   7 2.81   6 2.81  21 2.81  16 2.81  19 2.81  17 2.81   4 2.81
                            14 2.81  15 2.81  24 2.84  30 2.85
  19  0.209  0.773  0.179-  23 2.74  27 2.76  22 2.77  10 2.81   8 2.81   7 2.81  16 2.81  13 2.81
                            21 2.81  18 2.81  14 2.81  20 2.81
  20  0.542  0.773  0.179-  28 2.72  23 2.75   9 2.81  11 2.81  17 2.81  14 2.81  15 2.81  21 2.81
                             8 2.81  16 2.81  19 2.81  29 2.91
  21  0.876  0.773  0.179-  28 2.70  27 2.75   7 2.81  12 2.81   9 2.81  18 2.81  15 2.81  19 2.81
                            13 2.81  17 2.81  20 2.81  30 2.87
  22  0.098  0.544  0.280-  16 2.71  18 2.74  24 2.76  19 2.77  25 2.77  30 2.81  37 2.82  29 2.83
                            23 2.83  27 2.86  31 2.87  38 2.94
  23  0.431  0.884  0.281-  19 2.74  20 2.75  14 2.75  35 2.77  26 2.79  32 2.80  27 2.82  28 2.83
                            22 2.83  24 2.84  31 2.85  29 2.87
  24  0.766  0.221  0.286-  32 2.75  22 2.76  30 2.77  26 2.78  25 2.81  18 2.84  23 2.84  14 2.86
                            15 2.86  38 2.87  28 2.87  36 2.93
  25  0.095  0.214  0.281-  15 2.75  13 2.75  22 2.77  16 2.77  28 2.79  27 2.79  24 2.81  29 2.82
                            33 2.83  26 2.84  38 2.89  34 2.91
  26  0.434  0.216  0.280-  14 2.72  17 2.75  13 2.75  24 2.78  29 2.78  23 2.79  30 2.82  35 2.83
                            27 2.84  25 2.84  33 2.85  36 2.94
  27  0.095  0.882  0.281-  21 2.75  19 2.76  37 2.77  13 2.77  28 2.78  30 2.78  25 2.79  35 2.81
                            23 2.82  26 2.84  22 2.86  34 2.89
  28  0.765  0.881  0.279-  21 2.70  20 2.72  15 2.73  27 2.78  25 2.79  30 2.80  29 2.82  32 2.82
                            23 2.83  24 2.87  39 2.90  34 2.96
  29  0.433  0.545  0.288-  33 2.69  31 2.73  39 2.74  26 2.78  30 2.80  28 2.82  25 2.82  22 2.83
                            17 2.85  23 2.87  16 2.89  20 2.91
  30  0.768  0.551  0.287-  37 2.71  24 2.77  27 2.78  39 2.79  28 2.80  29 2.80  22 2.81  26 2.82
                            18 2.85  21 2.87  17 2.88  36 2.90
  31  0.323  0.661  0.387-  29 2.73  32 2.77  39 2.77  35 2.78  37 2.78  38 2.80  33 2.81  23 2.85
                            22 2.87
  32  0.653  0.988  0.385-  39 2.75  24 2.75  31 2.77  35 2.79  23 2.80  34 2.82  28 2.82  38 2.87
                            36 2.90
  33  0.319  0.325  0.387-  29 2.69  36 2.71  38 2.73  34 2.79  31 2.81  25 2.83  39 2.83  35 2.84
                            26 2.85
  34  0.989  0.993  0.392-  38 2.77  33 2.79  37 2.79  39 2.81  32 2.82  35 2.82  27 2.89  25 2.91
                            28 2.96
  35  0.322  0.990  0.385-  37 2.74  36 2.75  23 2.77  31 2.78  32 2.79  27 2.81  34 2.82  26 2.83
                            33 2.84
  36  0.639  0.324  0.396-   1 1.97   2 2.58  33 2.71  35 2.75  39 2.80  32 2.90  30 2.90  24 2.93
                            26 2.94  37 2.96  38 3.00
  37  0.996  0.666  0.385-  30 2.71  35 2.74  27 2.77  31 2.78  34 2.79  22 2.82  38 2.87  39 2.88
                            36 2.96
  38  0.995  0.325  0.393-   2 2.01  33 2.73  34 2.77  31 2.80  32 2.87  24 2.87  37 2.87  25 2.89
                            22 2.94  36 3.00
  39  0.652  0.662  0.390-  29 2.74  32 2.75  31 2.77  30 2.79  36 2.80  34 2.81  33 2.83  37 2.88
                            28 2.90
 

IMPORTANT INFORMATION: All symmetrisations will be switched off!
NOSYMM: (Re-)initialisation of all symmetry stuff for point group C_1.

 
 
 KPOINTS: mesh auto                               

Automatic generation of k-mesh.
Space group operators:
 irot       det(A)        alpha          n_x          n_y          n_z        tau_x        tau_y        tau_z
    1     1.000000     0.000000     1.000000     0.000000     0.000000     0.000000     0.000000     0.000000
 
 Subroutine IBZKPT returns following result:
 ===========================================
 
 Found      4 irreducible k-points:
 
 Following reciprocal coordinates:
            Coordinates               Weight
  0.000000  0.000000  0.000000      1.000000
  0.500000  0.000000  0.000000      1.000000
 -0.000000  0.500000  0.000000      1.000000
  0.500000  0.500000  0.000000      1.000000
 
 Following cartesian coordinates:
            Coordinates               Weight
  0.000000  0.000000  0.000000      1.000000
  0.068522  0.000000  0.000000      1.000000
  0.034261  0.059342  0.000000      1.000000
  0.102783  0.059342  0.000000      1.000000
 


--------------------------------------------------------------------------------------------------------




 Dimension of arrays:
   k-points           NKPTS =      4   k-points in BZ     NKDIM =      4   number of bands    NBANDS=    228
   number of dos      NEDOS =    301   number of ions     NIONS =     39
   non local maximal  LDIM  =      6   non local SUM 2l+1 LMDIM =     18
   total plane-waves  NPLWV = 276480
   max r-space proj   IRMAX =   2756   max aug-charges    IRDMAX=  12646
   dimension x,y,z NGX =    48 NGY =   48 NGZ =  120
   dimension x,y,z NGXF=    96 NGYF=   96 NGZF=  240
   support grid    NGXF=    96 NGYF=   96 NGZF=  240
   ions per type =               1   2  36
   NGX,Y,Z   is equivalent  to a cutoff of   9.47,  9.47,  9.12 a.u.
   NGXF,Y,Z  is equivalent  to a cutoff of  18.94, 18.94, 18.24 a.u.

 SYSTEM =  metal                                   
 POSCAR =  C    O    Pt                            

 Startparameter for this run:
   NWRITE =      2    write-flag & timer
   PREC   = normal    normal or accurate (medium, high low for compatibility)
   ISTART =      0    job   : 0-new  1-cont  2-samecut
   ICHARG =      2    charge: 1-file 2-atom 10-const
   ISPIN  =      1    spin polarized calculation?
   LNONCOLLINEAR =      F non collinear calculations
   LSORBIT =      F    spin-orbit coupling
   INIWAV =      1    electr: 0-lowe 1-rand  2-diag
   LASPH  =      F    aspherical Exc in radial PAW
   METAGGA=      F    non-selfconsistent MetaGGA calc.

 Electronic Relaxation 1
   ENCUT  =  450.0 eV  33.07 Ry    5.75 a.u.  14.57 14.57 37.84*2*pi/ulx,y,z
   ENINI  =  450.0     initial cutoff
   ENAUG  =  644.9 eV  augmentation charge cutoff
   NELM   =     60;   NELMIN=  8; NELMDL= -5     # of ELM steps 
   EDIFF  = 0.1E-03   stopping-criterion for ELM
   LREAL  =      T    real-space projection
   NLSPLINE    = F    spline interpolate recip. space projectors
   LCOMPAT=      F    compatible to vasp.4.4
   GGA_COMPAT  = T    GGA compatible to vasp.4.4-vasp.4.6
   LMAXPAW     = -100 max onsite density
   LMAXMIX     =    2 max onsite mixed and CHGCAR
   VOSKOWN=      0    Vosko Wilk Nusair interpolation
   ROPT   =   -0.00050  -0.00050  -0.00050
 Ionic relaxation
   EDIFFG = -.5E-01   stopping-criterion for IOM
   NSW    =   5000    number of steps for IOM
   NBLOCK =      1;   KBLOCK =   5000    inner block; outer block 
   IBRION =      1    ionic relax: 0-MD 1-quasi-New 2-CG
   NFREE  =      0    steps in history (QN), initial steepest desc. (CG)
   ISIF   =      2    stress and relaxation
   IWAVPR =     11    prediction:  0-non 1-charg 2-wave 3-comb
   ISYM   =      0    0-nonsym 1-usesym 2-fastsym
   LCORR  =      T    Harris-Foulkes like correction to forces

   POTIM  = 0.2000    time-step for ionic-motion
   TEIN   =    0.0    initial temperature
   TEBEG  =    0.0;   TEEND  =   0.0 temperature during run
   SMASS  =  -3.00    Nose mass-parameter (am)
   estimated Nose-frequenzy (Omega)   =  0.10E-29 period in steps =****** mass=  -0.162E-26a.u.
   SCALEE = 1.0000    scale energy and forces
   NPACO  =    256;   APACO  = 16.0  distance and # of slots for P.C.
   PSTRESS=    0.0 pullay stress

  Mass of Ions in am
   POMASS =  12.01 16.00195.08
  Ionic Valenz
   ZVAL   =   4.00  6.00 10.00
  Atomic Wigner-Seitz radii
   RWIGS  =  -1.00 -1.00 -1.00
  virtual crystal weights 
   VCA    =   1.00  1.00  1.00
   NELECT =     376.0000    total number of electrons
   NUPDOWN=      -1.0000    fix difference up-down

 DOS related values:
   EMIN   =  10.00;   EMAX   =-10.00  energy-range for DOS
   EFERMI =   0.00
   ISMEAR =     1;   SIGMA  =   0.20  broadening in eV -4-tet -1-fermi 0-gaus

 Electronic relaxation 2 (details)
   IALGO  =     68    algorithm
   LDIAG  =      T    sub-space diagonalisation (order eigenvalues)
   LSUBROT=      F    optimize rotation matrix (better conditioning)
   TURBO    =      0    0=normal 1=particle mesh
   IRESTART =      0    0=no restart 2=restart with 2 vectors
   NREBOOT  =      0    no. of reboots
   NMIN     =      0    reboot dimension
   EREF     =   0.00    reference energy to select bands
   IMIX   =      4    mixing-type and parameters
     AMIX     =   0.40;   BMIX     =  1.00
     AMIX_MAG =   1.60;   BMIX_MAG =  1.00
     AMIN     =   0.10
     WC   =   100.;   INIMIX=   1;  MIXPRE=   1;  MAXMIX= -45

 Intra band minimization:
   WEIMIN = 0.0010     energy-eigenvalue tresh-hold
   EBREAK =  0.11E-06  absolut break condition
   DEPER  =   0.30     relativ break condition  

   TIME   =   0.40     timestep for ELM

  volume/ion in A,a.u.               =      34.49       232.77
  Fermi-wavevector in a.u.,A,eV,Ry     =   1.070385  2.022734 15.588510  1.145723
  Thomas-Fermi vector in A             =   2.206093
 
 Write flags
   LWAVE        =      F    write WAVECAR
   LDOWNSAMPLE  =      F    k-point downsampling of WAVECAR
   LCHARG       =      F    write CHGCAR
   LVTOT        =      F    write LOCPOT, total local potential
   LVHAR        =      F    write LOCPOT, Hartree potential only
   LELF         =      F    write electronic localiz. function (ELF)
   LORBIT       =      0    0 simple, 1 ext, 2 COOP (PROOUT), +10 PAW based schemes


 Dipole corrections
   LMONO  =      F    monopole corrections only (constant potential shift)
   LDIPOL =      F    correct potential (dipole corrections)
   IDIPOL =      0    1-x, 2-y, 3-z, 4-all directions 
   EPSILON=  1.0000000 bulk dielectric constant

 Exchange correlation treatment:
   GGA     =    --    GGA type
   LEXCH   =     8    internal setting for exchange type
   VOSKOWN=      0    Vosko Wilk Nusair interpolation
   LHFCALC =     F    Hartree Fock is set to
   LHFONE  =     F    Hartree Fock one center treatment
   AEXX    =    0.0000 exact exchange contribution

 Linear response parameters
   LEPSILON=     F    determine dielectric tensor
   LRPA    =     F    only Hartree local field effects (RPA)
   LNABLA  =     F    use nabla operator in PAW spheres
   LVEL    =     F    velocity operator in full k-point grid
   LINTERFAST=   F  fast interpolation
   KINTER  =     0    interpolate to denser k-point grid
   CSHIFT  =0.1000    complex shift for real part using Kramers Kronig
   OMEGAMAX=  -1.0    maximum frequency
   DEG_THRESHOLD= 0.2000000E-02 threshold for treating states as degnerate
   RTIME   =   -0.100 relaxation time in fs
  (WPLASMAI=    0.000 imaginary part of plasma frequency in eV, 0.658/RTIME)
   DFIELD  = 0.0000000 0.0000000 0.0000000 field for delta impulse in time
 
 Orbital magnetization related:
   ORBITALMAG=     F  switch on orbital magnetization
   LCHIMAG   =     F  perturbation theory with respect to B field
   DQ        =  0.001000  dq finite difference perturbation B field
   LLRAUG    =     F  two centre corrections for induced B field



--------------------------------------------------------------------------------------------------------


 quasi-Newton-method for relaxation of ions
   using selective dynamics as specified on POSCAR
 charge density and potential will be updated during run
 non-spin polarized calculation
 RMM-DIIS sequential band-by-band and
  variant of blocked Davidson during initial phase
 perform sub-space diagonalisation
    before iterative eigenvector-optimisation
 modified Broyden-mixing scheme, WC =      100.0
 initial mixing is a Kerker type mixing with AMIX =  0.4000 and BMIX =      1.0000
 Hartree-type preconditioning will be used
 using additional bands           40
 real space projection scheme for non local part
 use partial core corrections
 calculate Harris-corrections to forces 
   (improved forces if not selfconsistent)
 use gradient corrections 
 use of overlap-Matrix (Vanderbilt PP)
 Methfessel and Paxton  Order N= 1 SIGMA  =   0.20


--------------------------------------------------------------------------------------------------------


  energy-cutoff  :      450.00
  volume of cell :     1345.22
      direct lattice vectors                 reciprocal lattice vectors
     7.296955120 -4.212899000  0.000000000     0.137043463  0.000000000  0.000000000
     0.000000000  8.425798000  0.000000000     0.068521732  0.118683121  0.000000000
     0.000000000  0.000000000 21.879635000     0.000000000  0.000000000  0.045704602

  length of vectors
     8.425798004  8.425798000 21.879635000     0.137043463  0.137043463  0.045704602


 
 k-points in units of 2pi/SCALE and weight: mesh auto                               
   0.00000000  0.00000000  0.00000000       0.250
   0.06852173  0.00000000  0.00000000       0.250
   0.03426087  0.05934156  0.00000000       0.250
   0.10278260  0.05934156  0.00000000       0.250
 
 k-points in reciprocal lattice and weights: mesh auto                               
   0.00000000  0.00000000  0.00000000       0.250
   0.50000000  0.00000000  0.00000000       0.250
  -0.00000000  0.50000000  0.00000000       0.250
   0.50000000  0.50000000  0.00000000       0.250
 
 position of ions in fractional coordinates (direct lattice) 
   0.70711691  0.43512319  0.47790267
   0.90433981  0.38724542  0.46886456
   0.67898036  0.46197908  0.52779120
   0.98675500  0.32859100  0.07437600
   0.32008800  0.32859100  0.07437600
   0.65342200  0.32859100  0.07437600
   0.98675500  0.66192500  0.07437600
   0.32008800  0.66192500  0.07437600
   0.65342200  0.66192500  0.07437600
   0.32008800  0.99525800  0.07437600
   0.65342200  0.99525800  0.07437600
   0.98675500  0.99525800  0.07437600
   0.20897700  0.10636900  0.17918600
   0.54231100  0.10636900  0.17918600
   0.87564400  0.10636900  0.17918600
   0.20897700  0.43970300  0.17918600
   0.54231100  0.43970300  0.17918600
   0.87564400  0.43970300  0.17918600
   0.20897700  0.77303600  0.17918600
   0.54231100  0.77303600  0.17918600
   0.87564400  0.77303600  0.17918600
   0.09775588  0.54380743  0.27994866
   0.43053364  0.88372563  0.28056481
   0.76593645  0.22120613  0.28637084
   0.09542164  0.21387775  0.28103910
   0.43421676  0.21628670  0.28012526
   0.09540618  0.88219971  0.28136667
   0.76538629  0.88083031  0.27884056
   0.43306770  0.54516889  0.28808215
   0.76845306  0.55081181  0.28730402
   0.32330533  0.66093334  0.38735056
   0.65271308  0.98815535  0.38497906
   0.31854626  0.32470141  0.38662687
   0.98938017  0.99321966  0.39177393
   0.32226322  0.98993708  0.38490076
   0.63878217  0.32392731  0.39605179
   0.99599978  0.66583258  0.38508569
   0.99517776  0.32502811  0.39282722
   0.65235108  0.66237131  0.38961188
 
 position of ions in cartesian coordinates  (Angst):
   5.15980034  0.68724802 10.45633597
   6.59892703 -0.54704058 10.25858541
   4.95448924  1.03206669 11.54787884
   7.20030695 -1.38845776  1.62731973
   2.33566777  1.42014298  1.62731973
   4.76799101  0.01584050  1.62731973
   7.20030695  1.42014719  1.62731973
   2.33566777  4.22874793  1.62731973
   4.76799101  2.82444545  1.62731973
   2.33566777  7.03734445  1.62731973
   4.76799101  5.63304198  1.62731973
   7.20030695  4.22874371  1.62731973
   1.52489579  0.01584471  3.92052428
   3.95721903 -1.38845776  3.92052428
   6.38953497 -2.79275602  3.92052428
   1.52489579  2.82444966  3.92052428
   3.95721903  1.42014719  3.92052428
   6.38953497  0.01584893  3.92052428
   1.52489579  5.63304619  3.92052428
   3.95721903  4.22874371  3.92052428
   6.38953497  2.82444545  3.92052428
   0.71332024  4.17017589  6.12517453
   3.14158463  5.63229895  6.13865558
   5.58900393 -1.36297478  6.26568952
   0.69628742  1.40008896  6.14903296
   3.16846024 -0.00692332  6.12903838
   0.69617462  7.03129995  6.15619998
   5.58498941  4.19720315  6.10092974
   3.16007559  2.76901243  6.30313233
   5.60736750  1.40361394  6.28610710
   2.35914447  4.20683816  8.47508886
   4.76281802  5.57618313  8.42320135
   2.32441778  1.39386525  8.45925469
   7.21946273  4.20050951  8.57187051
   2.35154028  6.98334749  8.42148814
   4.66116479  0.03822134  8.66546869
   7.26776568  1.41412435  8.42553437
   7.26176749 -1.45396219  8.59491626
   4.76017658  2.83271764  8.52456581
 


--------------------------------------------------------------------------------------------------------


 k-point  1 :   0.0000 0.0000 0.0000  plane waves:   29241
 k-point  2 :   0.5000 0.0000 0.0000  plane waves:   29108
 k-point  3 :  -0.0000 0.5000 0.0000  plane waves:   29108
 k-point  4 :   0.5000 0.5000 0.0000  plane waves:   29108

 maximum and minimum number of plane-waves per node :     14624    14548

 maximum number of plane-waves:     29241
 maximum index in each direction: 
   IXMAX=   14   IYMAX=   14   IZMAX=   37
   IXMIN=  -15   IYMIN=  -15   IZMIN=  -37


 real space projection operators:
  total allocation   :      13562.58 KBytes
  max/ min on nodes  :       6787.27       6775.31


 parallel 3D FFT for wavefunctions:
    minimum data exchange during FFTs selected (reduces bandwidth)
 parallel 3D FFT for charge:
    minimum data exchange during FFTs selected (reduces bandwidth)


 total amount of memory used by VASP MPI-rank0   131960. kBytes
=======================================================================

   base      :      30000. kBytes
   nonlr-proj:      10152. kBytes
   fftplans  :      13556. kBytes
   grid      :      23353. kBytes
   one-center:        311. kBytes
   wavefun   :      54588. kBytes
 
     INWAV:  cpu time    0.0001: real time    0.0001
 Broyden mixing: mesh for mixing (old mesh)
   NGX = 29   NGY = 29   NGZ = 75
  (NGX  = 96   NGY  = 96   NGZ  =240)
  gives a total of  63075 points

 initial charge density was supplied:
 charge density of overlapping atoms calculated
 number of electron     376.0000000 magnetization 
 keeping initial charge density in first step


--------------------------------------------------------------------------------------------------------


 Maximum index for non-local projection operator         1321
 Maximum index for augmentation-charges         1558 (set IRDMAX)


--------------------------------------------------------------------------------------------------------


 First call to EWALD:  gamma=   0.161
 Maximum number of real-space cells 4x 4x 2
 Maximum number of reciprocal cells 2x 2x 5

    FEWALD:  cpu time    0.0025: real time    0.0025


--------------------------------------- Iteration      1(   1)  ---------------------------------------


    POTLOK:  cpu time    0.1777: real time    0.2149
    SETDIJ:  cpu time    0.0102: real time    0.0103
     EDDAV:  cpu time   11.6559: real time   11.7884
       DOS:  cpu time    0.0011: real time    0.0011
    --------------------------------------------
      LOOP:  cpu time   11.8449: real time   12.0146

 eigenvalue-minimisations  :  1824
 total energy-change (2. order) : 0.2418512E+04  (-0.1595035E+05)
 number of electron     376.0000000 magnetization 
 augmentation part      376.0000000 magnetization 

 Free energy of the ion-electron system (eV)
  ---------------------------------------------------
  alpha Z        PSCENC =       975.10247152
  Ewald energy   TEWEN  =     91076.85750103
  -Hartree energ DENC   =   -120168.33951241
  -exchange      EXHF   =         0.00000000
  -V(xc)+E(xc)   XCENC  =       189.49928985
  PAW double counting   =     24789.08602224   -23775.73976456
  entropy T*S    EENTRO =         0.02704481
  eigenvalues    EBANDS =      2072.12505497
  atomic energy  EATOM  =     27259.89416086
  Solvation  Ediel_sol  =         0.00000000
  ---------------------------------------------------
  free energy    TOTEN  =      2418.51226831 eV

  energy without entropy =     2418.48522350  energy(sigma->0) =     2418.50325337


--------------------------------------------------------------------------------------------------------




--------------------------------------- Iteration      1(   2)  ---------------------------------------


     EDDAV:  cpu time   13.0681: real time   13.1886
       DOS:  cpu time    0.0011: real time    0.0011
    --------------------------------------------
      LOOP:  cpu time   13.0692: real time   13.1897

 eigenvalue-minimisations  :  2120
 total energy-change (2. order) :-0.2482850E+04  (-0.2310215E+04)
 number of electron     376.0000000 magnetization 
 augmentation part      376.0000000 magnetization 

 Free energy of the ion-electron system (eV)
  ---------------------------------------------------
  alpha Z        PSCENC =       975.10247152
  Ewald energy   TEWEN  =     91076.85750103
  -Hartree energ DENC   =   -120168.33951241
  -exchange      EXHF   =         0.00000000
  -V(xc)+E(xc)   XCENC  =       189.49928985
  PAW double counting   =     24789.08602224   -23775.73976456
  entropy T*S    EENTRO =        -0.00931415
  eigenvalues    EBANDS =      -410.68882839
  atomic energy  EATOM  =     27259.89416086
  Solvation  Ediel_sol  =         0.00000000
  ---------------------------------------------------
  free energy    TOTEN  =       -64.33797402 eV

  energy without entropy =      -64.32865986  energy(sigma->0) =      -64.33486930


--------------------------------------------------------------------------------------------------------




--------------------------------------- Iteration      1(   3)  ---------------------------------------


     EDDAV:  cpu time   13.3170: real time   13.4143
       DOS:  cpu time    0.0012: real time    0.0012
    --------------------------------------------
      LOOP:  cpu time   13.3182: real time   13.4155

 eigenvalue-minimisations  :  2168
 total energy-change (2. order) :-0.1764818E+03  (-0.1602604E+03)
 number of electron     376.0000000 magnetization 
 augmentation part      376.0000000 magnetization 

 Free energy of the ion-electron system (eV)
  ---------------------------------------------------
  alpha Z        PSCENC =       975.10247152
  Ewald energy   TEWEN  =     91076.85750103
  -Hartree energ DENC   =   -120168.33951241
  -exchange      EXHF   =         0.00000000
  -V(xc)+E(xc)   XCENC  =       189.49928985
  PAW double counting   =     24789.08602224   -23775.73976456
  entropy T*S    EENTRO =         0.00090408
  eigenvalues    EBANDS =      -587.18082788
  atomic energy  EATOM  =     27259.89416086
  Solvation  Ediel_sol  =         0.00000000
  ---------------------------------------------------
  free energy    TOTEN  =      -240.81975527 eV

  energy without entropy =     -240.82065935  energy(sigma->0) =     -240.82005663


--------------------------------------------------------------------------------------------------------




--------------------------------------- Iteration      1(   4)  ---------------------------------------


     EDDAV:  cpu time   14.1521: real time   14.2487
       DOS:  cpu time    0.0011: real time    0.0011
    --------------------------------------------
      LOOP:  cpu time   14.1532: real time   14.2498

 eigenvalue-minimisations  :  2344
 total energy-change (2. order) :-0.7561385E+01  (-0.7294324E+01)
 number of electron     376.0000000 magnetization 
 augmentation part      376.0000000 magnetization 

 Free energy of the ion-electron system (eV)
  ---------------------------------------------------
  alpha Z        PSCENC =       975.10247152
  Ewald energy   TEWEN  =     91076.85750103
  -Hartree energ DENC   =   -120168.33951241
  -exchange      EXHF   =         0.00000000
  -V(xc)+E(xc)   XCENC  =       189.49928985
  PAW double counting   =     24789.08602224   -23775.73976456
  entropy T*S    EENTRO =         0.00973091
  eigenvalues    EBANDS =      -594.75103960
  atomic energy  EATOM  =     27259.89416086
  Solvation  Ediel_sol  =         0.00000000
  ---------------------------------------------------
  free energy    TOTEN  =      -248.38114017 eV

  energy without entropy =     -248.39087107  energy(sigma->0) =     -248.38438380


--------------------------------------------------------------------------------------------------------




--------------------------------------- Iteration      1(   5)  ---------------------------------------


     EDDAV:  cpu time   14.5512: real time   14.6655
       DOS:  cpu time    0.0015: real time    0.0027
    CHARGE:  cpu time    0.6578: real time    0.6619
    MIXING:  cpu time    0.0082: real time    0.0082
    --------------------------------------------
      LOOP:  cpu time   15.2187: real time   15.3383

 eigenvalue-minimisations  :  2592
 total energy-change (2. order) :-0.2292048E+00  (-0.2268043E+00)
 number of electron     376.0000069 magnetization 
 augmentation part      105.7949412 magnetization 

 Broyden mixing:
  rms(total) = 0.27260E+01    rms(broyden)= 0.27256E+01
  rms(prec ) = 0.30404E+01
  weight for this iteration     100.00

 Free energy of the ion-electron system (eV)
  ---------------------------------------------------
  alpha Z        PSCENC =       975.10247152
  Ewald energy   TEWEN  =     91076.85750103
  -Hartree energ DENC   =   -120168.33951241
  -exchange      EXHF   =         0.00000000
  -V(xc)+E(xc)   XCENC  =       189.49928985
  PAW double counting   =     24789.08602224   -23775.73976456
  entropy T*S    EENTRO =         0.01014041
  eigenvalues    EBANDS =      -594.98065393
  atomic energy  EATOM  =     27259.89416086
  Solvation  Ediel_sol  =         0.00000000
  ---------------------------------------------------
  free energy    TOTEN  =      -248.61034499 eV

  energy without entropy =     -248.62048540  energy(sigma->0) =     -248.61372513


--------------------------------------------------------------------------------------------------------




--------------------------------------- Iteration      1(   6)  ---------------------------------------


    POTLOK:  cpu time    0.1702: real time    0.1714
    SETDIJ:  cpu time    0.0115: real time    0.0116
    EDDIAG:  cpu time    1.8984: real time    1.9116
  RMM-DIIS:  cpu time    6.8767: real time    6.9272
    ORTHCH:  cpu time    0.2693: real time    0.2712
       DOS:  cpu time    0.0012: real time    0.0012
    CHARGE:  cpu time    0.6788: real time    0.6830
    MIXING:  cpu time    0.0073: real time    0.0074
    --------------------------------------------
      LOOP:  cpu time    9.9133: real time    9.9845

 eigenvalue-minimisations  :  1832
 total energy-change (2. order) : 0.2884649E+01  (-0.5436291E+01)
 number of electron     376.0000066 magnetization 
 augmentation part      112.8845694 magnetization 

 Broyden mixing:
  rms(total) = 0.28797E+01    rms(broyden)= 0.28788E+01
  rms(prec ) = 0.37961E+01
  weight for this iteration     100.00

 eigenvalues of (default mixing * dielectric matrix)
  average eigenvalue GAMMA=   0.4955
  0.4955

 Free energy of the ion-electron system (eV)
  ---------------------------------------------------
  alpha Z        PSCENC =       975.10247152
  Ewald energy   TEWEN  =     91076.85750103
  -Hartree energ DENC   =   -119699.26068907
  -exchange      EXHF   =         0.00000000
  -V(xc)+E(xc)   XCENC  =       182.34684320
  PAW double counting   =     26707.16018632   -25747.39853614
  entropy T*S    EENTRO =        -0.19580006
  eigenvalues    EBANDS =     -1000.23183354
  atomic energy  EATOM  =     27259.89416086
  Solvation  Ediel_sol  =         0.00000000
  ---------------------------------------------------
  free energy    TOTEN  =      -245.72569588 eV

  energy without entropy =     -245.52989582  energy(sigma->0) =     -245.66042920


--------------------------------------------------------------------------------------------------------




--------------------------------------- Iteration      1(   7)  ---------------------------------------


    POTLOK:  cpu time    0.1660: real time    0.1672
    SETDIJ:  cpu time    0.0117: real time    0.0118
    EDDIAG:  cpu time    1.9240: real time    1.9374
  RMM-DIIS:  cpu time    6.7057: real time    6.7543
    ORTHCH:  cpu time    0.2698: real time    0.2714
       DOS:  cpu time    0.0012: real time    0.0012
    CHARGE:  cpu time    0.6991: real time    0.7036
    MIXING:  cpu time    0.0043: real time    0.0043
    --------------------------------------------
      LOOP:  cpu time    9.7819: real time    9.8512

 eigenvalue-minimisations  :  1831
 total energy-change (2. order) : 0.7508831E+01  (-0.3176878E+01)
 number of electron     376.0000076 magnetization 
 augmentation part      111.3962820 magnetization 

 Broyden mixing:
  rms(total) = 0.18026E+01    rms(broyden)= 0.18016E+01
  rms(prec ) = 0.24903E+01
  weight for this iteration     100.00

 eigenvalues of (default mixing * dielectric matrix)
  average eigenvalue GAMMA=   0.6704
  1.0733  0.2676

 Free energy of the ion-electron system (eV)
  ---------------------------------------------------
  alpha Z        PSCENC =       975.10247152
  Ewald energy   TEWEN  =     91076.85750103
  -Hartree energ DENC   =   -119900.08841277
  -exchange      EXHF   =         0.00000000
  -V(xc)+E(xc)   XCENC  =       179.93855541
  PAW double counting   =     27369.85876675   -26417.66458206
  entropy T*S    EENTRO =        -0.09994357
  eigenvalues    EBANDS =      -782.01538230
  atomic energy  EATOM  =     27259.89416086
  Solvation  Ediel_sol  =         0.00000000
  ---------------------------------------------------
  free energy    TOTEN  =      -238.21686513 eV

  energy without entropy =     -238.11692156  energy(sigma->0) =     -238.18355061


--------------------------------------------------------------------------------------------------------




--------------------------------------- Iteration      1(   8)  ---------------------------------------


    POTLOK:  cpu time    0.1634: real time    0.1646
    SETDIJ:  cpu time    0.0111: real time    0.0112
    EDDIAG:  cpu time    1.7738: real time    1.7859
  RMM-DIIS:  cpu time    6.1118: real time    6.1553
    ORTHCH:  cpu time    0.2734: real time    0.2752
       DOS:  cpu time    0.0012: real time    0.0012
    CHARGE:  cpu time    0.7361: real time    0.7409
    MIXING:  cpu time    0.0049: real time    0.0049
    --------------------------------------------
      LOOP:  cpu time    9.0757: real time    9.1392

 eigenvalue-minimisations  :  1830
 total energy-change (2. order) :-0.1553827E+01  (-0.7596679E+00)
 number of electron     376.0000073 magnetization 
 augmentation part      112.5884499 magnetization 

 Broyden mixing:
  rms(total) = 0.23022E+01    rms(broyden)= 0.23020E+01
  rms(prec ) = 0.42815E+01
  weight for this iteration     100.00

 eigenvalues of (default mixing * dielectric matrix)
  average eigenvalue GAMMA=   0.5506
  1.2004  0.2868  0.1645

 Free energy of the ion-electron system (eV)
  ---------------------------------------------------
  alpha Z        PSCENC =       975.10247152
  Ewald energy   TEWEN  =     91076.85750103
  -Hartree energ DENC   =   -119786.22215393
  -exchange      EXHF   =         0.00000000
  -V(xc)+E(xc)   XCENC  =       178.59857154
  PAW double counting   =     28337.38096135   -27400.53028932
  entropy T*S    EENTRO =         0.06580906
  eigenvalues    EBANDS =      -880.91772394
  atomic energy  EATOM  =     27259.89416086
  Solvation  Ediel_sol  =         0.00000000
  ---------------------------------------------------
  free energy    TOTEN  =      -239.77069182 eV

  energy without entropy =     -239.83650089  energy(sigma->0) =     -239.79262818


--------------------------------------------------------------------------------------------------------




--------------------------------------- Iteration      1(   9)  ---------------------------------------


    POTLOK:  cpu time    0.1709: real time    0.1723
    SETDIJ:  cpu time    0.0113: real time    0.0113
    EDDIAG:  cpu time    1.8785: real time    1.8916
  RMM-DIIS:  cpu time    6.7687: real time    6.8167
    ORTHCH:  cpu time    0.2600: real time    0.2618
       DOS:  cpu time    0.0012: real time    0.0012
    CHARGE:  cpu time    0.7403: real time    0.7454
    MIXING:  cpu time    0.0063: real time    0.0064
    --------------------------------------------
      LOOP:  cpu time    9.8373: real time    9.9066

 eigenvalue-minimisations  :  1828
 total energy-change (2. order) : 0.6920539E+01  (-0.2564447E+00)
 number of electron     376.0000074 magnetization 
 augmentation part      112.7202766 magnetization 

 Broyden mixing:
  rms(total) = 0.11934E+01    rms(broyden)= 0.11932E+01
  rms(prec ) = 0.19633E+01
  weight for this iteration     100.00

 eigenvalues of (default mixing * dielectric matrix)
  average eigenvalue GAMMA=   0.5053
  1.3010  0.3379  0.2882  0.0940

 Free energy of the ion-electron system (eV)
  ---------------------------------------------------
  alpha Z        PSCENC =       975.10247152
  Ewald energy   TEWEN  =     91076.85750103
  -Hartree energ DENC   =   -119786.82720817
  -exchange      EXHF   =         0.00000000
  -V(xc)+E(xc)   XCENC  =       178.40440473
  PAW double counting   =     28643.54746648   -27711.27060464
  entropy T*S    EENTRO =        -0.05502913
  eigenvalues    EBANDS =      -868.50331553
  atomic energy  EATOM  =     27259.89416086
  Solvation  Ediel_sol  =         0.00000000
  ---------------------------------------------------
  free energy    TOTEN  =      -232.85015286 eV

  energy without entropy =     -232.79512372  energy(sigma->0) =     -232.83180981


--------------------------------------------------------------------------------------------------------




--------------------------------------- Iteration      1(  10)  ---------------------------------------


    POTLOK:  cpu time    0.1640: real time    0.1652
    SETDIJ:  cpu time    0.0106: real time    0.0106
    EDDIAG:  cpu time    1.9538: real time    1.9672
  RMM-DIIS:  cpu time    6.7588: real time    6.8068
    ORTHCH:  cpu time    0.2694: real time    0.2710
       DOS:  cpu time    0.0012: real time    0.0012
    CHARGE:  cpu time    0.6812: real time    0.6858
    MIXING:  cpu time    0.0064: real time    0.0064
    --------------------------------------------
      LOOP:  cpu time    9.8452: real time    9.9144

 eigenvalue-minimisations  :  1831
 total energy-change (2. order) : 0.1959749E+01  (-0.1530721E+00)
 number of electron     376.0000072 magnetization 
 augmentation part      112.7619588 magnetization 

 Broyden mixing:
  rms(total) = 0.49416E+00    rms(broyden)= 0.49395E+00
  rms(prec ) = 0.64539E+00
  weight for this iteration     100.00

 eigenvalues of (default mixing * dielectric matrix)
  average eigenvalue GAMMA=   0.5213
  1.3859  0.4936  0.4099  0.2218  0.0955

 Free energy of the ion-electron system (eV)
  ---------------------------------------------------
  alpha Z        PSCENC =       975.10247152
  Ewald energy   TEWEN  =     91076.85750103
  -Hartree energ DENC   =   -119798.45517447
  -exchange      EXHF   =         0.00000000
  -V(xc)+E(xc)   XCENC  =       178.31356206
  PAW double counting   =     28958.26739747   -28030.49410366
  entropy T*S    EENTRO =        -0.01342280
  eigenvalues    EBANDS =      -850.36279636
  atomic energy  EATOM  =     27259.89416086
  Solvation  Ediel_sol  =         0.00000000
  ---------------------------------------------------
  free energy    TOTEN  =      -230.89040435 eV

  energy without entropy =     -230.87698155  energy(sigma->0) =     -230.88593008


--------------------------------------------------------------------------------------------------------




--------------------------------------- Iteration      1(  11)  ---------------------------------------


    POTLOK:  cpu time    0.1718: real time    0.1731
    SETDIJ:  cpu time    0.0111: real time    0.0111
    EDDIAG:  cpu time    1.9450: real time    1.9579
  RMM-DIIS:  cpu time    6.7552: real time    6.8024
    ORTHCH:  cpu time    0.2689: real time    0.2705
       DOS:  cpu time    0.0012: real time    0.0012
    CHARGE:  cpu time    0.6948: real time    0.6994
    MIXING:  cpu time    0.0056: real time    0.0057
    --------------------------------------------
      LOOP:  cpu time    9.8535: real time    9.9213

 eigenvalue-minimisations  :  1832
 total energy-change (2. order) : 0.4273950E+00  (-0.4067780E-01)
 number of electron     376.0000071 magnetization 
 augmentation part      112.8648075 magnetization 

 Broyden mixing:
  rms(total) = 0.32657E+00    rms(broyden)= 0.32653E+00
  rms(prec ) = 0.45034E+00
  weight for this iteration     100.00

 eigenvalues of (default mixing * dielectric matrix)
  average eigenvalue GAMMA=   0.5709
  1.5012  0.7262  0.4350  0.4350  0.2334  0.0945

 Free energy of the ion-electron system (eV)
  ---------------------------------------------------
  alpha Z        PSCENC =       975.10247152
  Ewald energy   TEWEN  =     91076.85750103
  -Hartree energ DENC   =   -119783.03187851
  -exchange      EXHF   =         0.00000000
  -V(xc)+E(xc)   XCENC  =       178.26424238
  PAW double counting   =     29250.89093123   -28326.92721413
  entropy T*S    EENTRO =        -0.00108132
  eigenvalues    EBANDS =      -861.51214240
  atomic energy  EATOM  =     27259.89416086
  Solvation  Ediel_sol  =         0.00000000
  ---------------------------------------------------
  free energy    TOTEN  =      -230.46300933 eV

  energy without entropy =     -230.46192801  energy(sigma->0) =     -230.46264889


--------------------------------------------------------------------------------------------------------




--------------------------------------- Iteration      1(  12)  ---------------------------------------


    POTLOK:  cpu time    0.1677: real time    0.1690
    SETDIJ:  cpu time    0.0113: real time    0.0114
    EDDIAG:  cpu time    1.9328: real time    1.9466
  RMM-DIIS:  cpu time    6.9843: real time    7.0345
    ORTHCH:  cpu time    0.2701: real time    0.2718
       DOS:  cpu time    0.0012: real time    0.0012
    CHARGE:  cpu time    0.8574: real time    0.8630
    MIXING:  cpu time    0.0051: real time    0.0051
    --------------------------------------------
      LOOP:  cpu time   10.2298: real time   10.3025

 eigenvalue-minimisations  :  1832
 total energy-change (2. order) : 0.1207080E+00  (-0.1846040E-01)
 number of electron     376.0000071 magnetization 
 augmentation part      112.9483184 magnetization 

 Broyden mixing:
  rms(total) = 0.26009E+00    rms(broyden)= 0.26001E+00
  rms(prec ) = 0.32384E+00
  weight for this iteration     100.00

 eigenvalues of (default mixing * dielectric matrix)
  average eigenvalue GAMMA=   0.6531
  1.7933  1.0632  0.6844  0.4423  0.0946  0.2351  0.2586

 Free energy of the ion-electron system (eV)
  ---------------------------------------------------
  alpha Z        PSCENC =       975.10247152
  Ewald energy   TEWEN  =     91076.85750103
  -Hartree energ DENC   =   -119776.19477762
  -exchange      EXHF   =         0.00000000
  -V(xc)+E(xc)   XCENC  =       178.22269872
  PAW double counting   =     29524.31341964   -28603.78254687
  entropy T*S    EENTRO =        -0.03165899
  eigenvalues    EBANDS =      -864.72356962
  atomic energy  EATOM  =     27259.89416086
  Solvation  Ediel_sol  =         0.00000000
  ---------------------------------------------------
  free energy    TOTEN  =      -230.34230132 eV

  energy without entropy =     -230.31064234  energy(sigma->0) =     -230.33174833


--------------------------------------------------------------------------------------------------------




--------------------------------------- Iteration      1(  13)  ---------------------------------------


    POTLOK:  cpu time    0.1650: real time    0.1663
    SETDIJ:  cpu time    0.0108: real time    0.0108
    EDDIAG:  cpu time    2.0333: real time    2.0476
  RMM-DIIS:  cpu time    6.9901: real time    7.0411
    ORTHCH:  cpu time    0.2732: real time    0.2750
       DOS:  cpu time    0.0013: real time    0.0013
    CHARGE:  cpu time    0.7816: real time    0.7872
    MIXING:  cpu time    0.0062: real time    0.0063
    --------------------------------------------
      LOOP:  cpu time   10.2613: real time   10.3355

 eigenvalue-minimisations  :  1830
 total energy-change (2. order) : 0.6619208E-01  (-0.1544211E-01)
 number of electron     376.0000070 magnetization 
 augmentation part      112.9679921 magnetization 

 Broyden mixing:
  rms(total) = 0.18392E+00    rms(broyden)= 0.18391E+00
  rms(prec ) = 0.21883E+00
  weight for this iteration     100.00

 eigenvalues of (default mixing * dielectric matrix)
  average eigenvalue GAMMA=   0.7091
  2.1964  1.2400  0.8458  0.4631  0.0946  0.3512  0.2310  0.2505

 Free energy of the ion-electron system (eV)
  ---------------------------------------------------
  alpha Z        PSCENC =       975.10247152
  Ewald energy   TEWEN  =     91076.85750103
  -Hartree energ DENC   =   -119772.24654513
  -exchange      EXHF   =         0.00000000
  -V(xc)+E(xc)   XCENC  =       178.14137746
  PAW double counting   =     29794.63493600   -28877.35663020
  entropy T*S    EENTRO =        -0.00836612
  eigenvalues    EBANDS =      -865.29501466
  atomic energy  EATOM  =     27259.89416086
  Solvation  Ediel_sol  =         0.00000000
  ---------------------------------------------------
  free energy    TOTEN  =      -230.27610924 eV

  energy without entropy =     -230.26774312  energy(sigma->0) =     -230.27332053


--------------------------------------------------------------------------------------------------------




--------------------------------------- Iteration      1(  14)  ---------------------------------------


    POTLOK:  cpu time    0.1792: real time    0.1806
    SETDIJ:  cpu time    0.0110: real time    0.0110
    EDDIAG:  cpu time    1.9791: real time    1.9936
  RMM-DIIS:  cpu time    6.6499: real time    6.6974
    ORTHCH:  cpu time    0.2818: real time    0.2836
       DOS:  cpu time    0.0012: real time    0.0012
    CHARGE:  cpu time    0.7742: real time    0.7788
    MIXING:  cpu time    0.0089: real time    0.0090
    --------------------------------------------
      LOOP:  cpu time    9.8854: real time    9.9552

 eigenvalue-minimisations  :  1830
 total energy-change (2. order) : 0.4014618E-01  (-0.9593585E-02)
 number of electron     376.0000071 magnetization 
 augmentation part      112.9520400 magnetization 

 Broyden mixing:
  rms(total) = 0.92883E-01    rms(broyden)= 0.92813E-01
  rms(prec ) = 0.11247E+00
  weight for this iteration     100.00

 eigenvalues of (default mixing * dielectric matrix)
  average eigenvalue GAMMA=   0.7073
  2.3321  1.2549  0.9096  0.5229  0.4604  0.0946  0.3184  0.2399  0.2327

 Free energy of the ion-electron system (eV)
  ---------------------------------------------------
  alpha Z        PSCENC =       975.10247152
  Ewald energy   TEWEN  =     91076.85750103
  -Hartree energ DENC   =   -119772.24369352
  -exchange      EXHF   =         0.00000000
  -V(xc)+E(xc)   XCENC  =       178.04795514
  PAW double counting   =     30001.33090182   -29086.43788692
  entropy T*S    EENTRO =        -0.00177136
  eigenvalues    EBANDS =      -862.78560163
  atomic energy  EATOM  =     27259.89416086
  Solvation  Ediel_sol  =         0.00000000
  ---------------------------------------------------
  free energy    TOTEN  =      -230.23596306 eV

  energy without entropy =     -230.23419170  energy(sigma->0) =     -230.23537261


--------------------------------------------------------------------------------------------------------




--------------------------------------- Iteration      1(  15)  ---------------------------------------


    POTLOK:  cpu time    0.1741: real time    0.1752
    SETDIJ:  cpu time    0.0122: real time    0.0123
    EDDIAG:  cpu time    2.0355: real time    2.0486
  RMM-DIIS:  cpu time    7.1566: real time    7.2038
    ORTHCH:  cpu time    0.2640: real time    0.2655
       DOS:  cpu time    0.0012: real time    0.0012
    CHARGE:  cpu time    0.7272: real time    0.7313
    MIXING:  cpu time    0.0092: real time    0.0092
    --------------------------------------------
      LOOP:  cpu time   10.3800: real time   10.4471

 eigenvalue-minimisations  :  1832
 total energy-change (2. order) : 0.9259497E-02  (-0.2913860E-02)
 number of electron     376.0000071 magnetization 
 augmentation part      112.9525146 magnetization 

 Broyden mixing:
  rms(total) = 0.54869E-01    rms(broyden)= 0.54864E-01
  rms(prec ) = 0.68113E-01
  weight for this iteration     100.00

 eigenvalues of (default mixing * dielectric matrix)
  average eigenvalue GAMMA=   0.7135
  2.4796  1.2497  0.8641  0.8641  0.4587  0.0946  0.3730  0.2824  0.2373  0.2315

 Free energy of the ion-electron system (eV)
  ---------------------------------------------------
  alpha Z        PSCENC =       975.10247152
  Ewald energy   TEWEN  =     91076.85750103
  -Hartree energ DENC   =   -119773.45211533
  -exchange      EXHF   =         0.00000000
  -V(xc)+E(xc)   XCENC  =       178.04220528
  PAW double counting   =     30049.38388408   -29135.01965004
  entropy T*S    EENTRO =        -0.00337914
  eigenvalues    EBANDS =      -861.03178182
  atomic energy  EATOM  =     27259.89416086
  Solvation  Ediel_sol  =         0.00000000
  ---------------------------------------------------
  free energy    TOTEN  =      -230.22670356 eV

  energy without entropy =     -230.22332442  energy(sigma->0) =     -230.22557718


--------------------------------------------------------------------------------------------------------




--------------------------------------- Iteration      1(  16)  ---------------------------------------


    POTLOK:  cpu time    0.1661: real time    0.1672
    SETDIJ:  cpu time    0.0125: real time    0.0126
    EDDIAG:  cpu time    1.9502: real time    1.9630
  RMM-DIIS:  cpu time    6.9457: real time    6.9931
    ORTHCH:  cpu time    0.2737: real time    0.2752
       DOS:  cpu time    0.0012: real time    0.0012
    CHARGE:  cpu time    0.6963: real time    0.7005
    MIXING:  cpu time    0.0094: real time    0.0095
    --------------------------------------------
      LOOP:  cpu time   10.0552: real time   10.1223

 eigenvalue-minimisations  :  1833
 total energy-change (2. order) : 0.2932975E-02  (-0.7680552E-03)
 number of electron     376.0000071 magnetization 
 augmentation part      112.9570083 magnetization 

 Broyden mixing:
  rms(total) = 0.34185E-01    rms(broyden)= 0.34179E-01
  rms(prec ) = 0.42415E-01
  weight for this iteration     100.00

 eigenvalues of (default mixing * dielectric matrix)
  average eigenvalue GAMMA=   0.7081
  2.5236  1.2344  0.9403  0.9403  0.4942  0.4942  0.0946  0.3353  0.2666  0.2347
  0.2303

 Free energy of the ion-electron system (eV)
  ---------------------------------------------------
  alpha Z        PSCENC =       975.10247152
  Ewald energy   TEWEN  =     91076.85750103
  -Hartree energ DENC   =   -119773.97361311
  -exchange      EXHF   =         0.00000000
  -V(xc)+E(xc)   XCENC  =       178.04625209
  PAW double counting   =     30078.73317738   -29164.67001822
  entropy T*S    EENTRO =        -0.00193636
  eigenvalues    EBANDS =      -860.21176578
  atomic energy  EATOM  =     27259.89416086
  Solvation  Ediel_sol  =         0.00000000
  ---------------------------------------------------
  free energy    TOTEN  =      -230.22377059 eV

  energy without entropy =     -230.22183422  energy(sigma->0) =     -230.22312513


--------------------------------------------------------------------------------------------------------




--------------------------------------- Iteration      1(  17)  ---------------------------------------


    POTLOK:  cpu time    0.1761: real time    0.1772
    SETDIJ:  cpu time    0.0157: real time    0.0157
    EDDIAG:  cpu time    1.9541: real time    1.9664
  RMM-DIIS:  cpu time    5.6435: real time    5.6807
    ORTHCH:  cpu time    0.2112: real time    0.2124
       DOS:  cpu time    0.0013: real time    0.0013
    CHARGE:  cpu time    0.4472: real time    0.4499
    MIXING:  cpu time    0.0056: real time    0.0056
    --------------------------------------------
      LOOP:  cpu time    8.4545: real time    8.5092

 eigenvalue-minimisations  :  1826
 total energy-change (2. order) : 0.6665111E-03  (-0.3469431E-03)
 number of electron     376.0000071 magnetization 
 augmentation part      112.9558238 magnetization 

 Broyden mixing:
  rms(total) = 0.23706E-01    rms(broyden)= 0.23703E-01
  rms(prec ) = 0.29171E-01
  weight for this iteration     100.00

 eigenvalues of (default mixing * dielectric matrix)
  average eigenvalue GAMMA=   0.7373
  2.5108  1.3084  1.3084  1.0360  0.7440  0.4755  0.0946  0.3663  0.2949  0.2476
  0.2278  0.2333

 Free energy of the ion-electron system (eV)
  ---------------------------------------------------
  alpha Z        PSCENC =       975.10247152
  Ewald energy   TEWEN  =     91076.85750103
  -Hartree energ DENC   =   -119774.53224589
  -exchange      EXHF   =         0.00000000
  -V(xc)+E(xc)   XCENC  =       178.04764543
  PAW double counting   =     30083.39312754   -29169.35381403
  entropy T*S    EENTRO =        -0.00351495
  eigenvalues    EBANDS =      -859.62843559
  atomic energy  EATOM  =     27259.89416086
  Solvation  Ediel_sol  =         0.00000000
  ---------------------------------------------------
  free energy    TOTEN  =      -230.22310408 eV

  energy without entropy =     -230.21958913  energy(sigma->0) =     -230.22193243


--------------------------------------------------------------------------------------------------------




--------------------------------------- Iteration      1(  18)  ---------------------------------------


    POTLOK:  cpu time    0.1266: real time    0.1275
    SETDIJ:  cpu time    0.0110: real time    0.0110
    EDDIAG:  cpu time    1.4967: real time    1.5060
  RMM-DIIS:  cpu time    4.9697: real time    5.0028
    ORTHCH:  cpu time    0.2122: real time    0.2133
       DOS:  cpu time    0.0011: real time    0.0011
    CHARGE:  cpu time    0.4720: real time    0.4749
    MIXING:  cpu time    0.0059: real time    0.0060
    --------------------------------------------
      LOOP:  cpu time    7.2952: real time    7.3427

 eigenvalue-minimisations  :  1814
 total energy-change (2. order) : 0.9495235E-04  (-0.1596775E-03)
 number of electron     376.0000071 magnetization 
 augmentation part      112.9534828 magnetization 

 Broyden mixing:
  rms(total) = 0.15493E-01    rms(broyden)= 0.15492E-01
  rms(prec ) = 0.18947E-01
  weight for this iteration     100.00

 eigenvalues of (default mixing * dielectric matrix)
  average eigenvalue GAMMA=   0.7316
  2.5026  1.4509  1.4509  0.9831  0.8236  0.0946  0.4681  0.4081  0.3472  0.2842
  0.2369  0.2369  0.2237

 Free energy of the ion-electron system (eV)
  ---------------------------------------------------
  alpha Z        PSCENC =       975.10247152
  Ewald energy   TEWEN  =     91076.85750103
  -Hartree energ DENC   =   -119775.74767670
  -exchange      EXHF   =         0.00000000
  -V(xc)+E(xc)   XCENC  =       178.05226445
  PAW double counting   =     30079.01083064   -29164.87178905
  entropy T*S    EENTRO =        -0.00262744
  eigenvalues    EBANDS =      -858.51814444
  atomic energy  EATOM  =     27259.89416086
  Solvation  Ediel_sol  =         0.00000000
  ---------------------------------------------------
  free energy    TOTEN  =      -230.22300913 eV

  energy without entropy =     -230.22038168  energy(sigma->0) =     -230.22213331


--------------------------------------------------------------------------------------------------------




--------------------------------------- Iteration      1(  19)  ---------------------------------------


    POTLOK:  cpu time    0.1217: real time    0.1225
    SETDIJ:  cpu time    0.0112: real time    0.0113
    EDDIAG:  cpu time    1.4794: real time    1.4888
  RMM-DIIS:  cpu time    4.5709: real time    4.6024
    ORTHCH:  cpu time    0.2196: real time    0.2209
       DOS:  cpu time    0.0011: real time    0.0011
    CHARGE:  cpu time    0.4527: real time    0.4556
    MIXING:  cpu time    0.0069: real time    0.0070
    --------------------------------------------
      LOOP:  cpu time    6.8635: real time    6.9095

 eigenvalue-minimisations  :  1613
 total energy-change (2. order) : 0.1367021E-03  (-0.5883194E-04)
 number of electron     376.0000071 magnetization 
 augmentation part      112.9516785 magnetization 

 Broyden mixing:
  rms(total) = 0.65591E-02    rms(broyden)= 0.65570E-02
  rms(prec ) = 0.85486E-02
  weight for this iteration     100.00

 eigenvalues of (default mixing * dielectric matrix)
  average eigenvalue GAMMA=   0.7496
  2.5736  1.6381  1.2348  1.2348  0.8769  0.6544  0.4957  0.0946  0.3822  0.3320
  0.2809  0.2392  0.2333  0.2236

 Free energy of the ion-electron system (eV)
  ---------------------------------------------------
  alpha Z        PSCENC =       975.10247152
  Ewald energy   TEWEN  =     91076.85750103
  -Hartree energ DENC   =   -119776.42421362
  -exchange      EXHF   =         0.00000000
  -V(xc)+E(xc)   XCENC  =       178.05484093
  PAW double counting   =     30077.08405254   -29162.89406867
  entropy T*S    EENTRO =        -0.00273379
  eigenvalues    EBANDS =      -857.89488322
  atomic energy  EATOM  =     27259.89416086
  Solvation  Ediel_sol  =         0.00000000
  ---------------------------------------------------
  free energy    TOTEN  =      -230.22287242 eV

  energy without entropy =     -230.22013864  energy(sigma->0) =     -230.22196116


--------------------------------------------------------------------------------------------------------




--------------------------------------- Iteration      1(  20)  ---------------------------------------


    POTLOK:  cpu time    0.1311: real time    0.1320
    SETDIJ:  cpu time    0.0102: real time    0.0102
    EDDIAG:  cpu time    1.5346: real time    1.5446
  RMM-DIIS:  cpu time    3.0858: real time    3.1068
    ORTHCH:  cpu time    0.2599: real time    0.2615
       DOS:  cpu time    0.0012: real time    0.0012
    CHARGE:  cpu time    0.3823: real time    0.3846
    MIXING:  cpu time    0.0063: real time    0.0064
    --------------------------------------------
      LOOP:  cpu time    5.4113: real time    5.4473

 eigenvalue-minimisations  :  1029
 total energy-change (2. order) :-0.2013257E-03  (-0.1699486E-04)
 number of electron     376.0000071 magnetization 
 augmentation part      112.9523842 magnetization 

 Broyden mixing:
  rms(total) = 0.60920E-02    rms(broyden)= 0.60917E-02
  rms(prec ) = 0.78565E-02
  weight for this iteration     100.00

 eigenvalues of (default mixing * dielectric matrix)
  average eigenvalue GAMMA=   0.7671
  2.6635  2.0135  1.2834  1.2834  0.9565  0.7355  0.4895  0.0946  0.3868  0.3483
  0.2906  0.2658  0.2398  0.2320  0.2233

 Free energy of the ion-electron system (eV)
  ---------------------------------------------------
  alpha Z        PSCENC =       975.10247152
  Ewald energy   TEWEN  =     91076.85750103
  -Hartree energ DENC   =   -119776.82110810
  -exchange      EXHF   =         0.00000000
  -V(xc)+E(xc)   XCENC  =       178.05895187
  PAW double counting   =     30077.94253434   -29163.74623533
  entropy T*S    EENTRO =        -0.00289704
  eigenvalues    EBANDS =      -857.50845290
  atomic energy  EATOM  =     27259.89416086
  Solvation  Ediel_sol  =         0.00000000
  ---------------------------------------------------
  free energy    TOTEN  =      -230.22307375 eV

  energy without entropy =     -230.22017671  energy(sigma->0) =     -230.22210807


--------------------------------------------------------------------------------------------------------




--------------------------------------- Iteration      1(  21)  ---------------------------------------


    POTLOK:  cpu time    0.1317: real time    0.1326
    SETDIJ:  cpu time    0.0106: real time    0.0106
    EDDIAG:  cpu time    1.5174: real time    1.5269
  RMM-DIIS:  cpu time    3.1879: real time    3.2094
    ORTHCH:  cpu time    0.2397: real time    0.2411
       DOS:  cpu time    0.0011: real time    0.0011
    CHARGE:  cpu time    0.4810: real time    0.4840
    MIXING:  cpu time    0.0074: real time    0.0075
    --------------------------------------------
      LOOP:  cpu time    5.5768: real time    5.6133

 eigenvalue-minimisations  :  1007
 total energy-change (2. order) :-0.1837564E-03  (-0.9231377E-05)
 number of electron     376.0000071 magnetization 
 augmentation part      112.9523824 magnetization 

 Broyden mixing:
  rms(total) = 0.33531E-02    rms(broyden)= 0.33526E-02
  rms(prec ) = 0.47351E-02
  weight for this iteration     100.00

 eigenvalues of (default mixing * dielectric matrix)
  average eigenvalue GAMMA=   0.7565
  2.6693  2.2209  1.2239  1.2239  1.0628  0.7183  0.0946  0.5008  0.4200  0.4200
  0.3343  0.2818  0.2444  0.2332  0.2332  0.2220

 Free energy of the ion-electron system (eV)
  ---------------------------------------------------
  alpha Z        PSCENC =       975.10247152
  Ewald energy   TEWEN  =     91076.85750103
  -Hartree energ DENC   =   -119777.33676054
  -exchange      EXHF   =         0.00000000
  -V(xc)+E(xc)   XCENC  =       178.06339865
  PAW double counting   =     30077.39845666   -29163.17997866
  entropy T*S    EENTRO =        -0.00279926
  eigenvalues    EBANDS =      -857.01970777
  atomic energy  EATOM  =     27259.89416086
  Solvation  Ediel_sol  =         0.00000000
  ---------------------------------------------------
  free energy    TOTEN  =      -230.22325751 eV

  energy without entropy =     -230.22045824  energy(sigma->0) =     -230.22232442


--------------------------------------------------------------------------------------------------------




--------------------------------------- Iteration      1(  22)  ---------------------------------------


    POTLOK:  cpu time    0.1281: real time    0.1290
    SETDIJ:  cpu time    0.0099: real time    0.0703
    EDDIAG:  cpu time    1.5184: real time    1.5282
  RMM-DIIS:  cpu time    3.1111: real time    3.1319
    ORTHCH:  cpu time    0.2182: real time    0.2194
       DOS:  cpu time    0.0011: real time    0.0011
    --------------------------------------------
      LOOP:  cpu time    4.9869: real time    5.0800

 eigenvalue-minimisations  :   971
 total energy-change (2. order) :-0.9895690E-04  (-0.3414984E-05)
 number of electron     376.0000071 magnetization 
 augmentation part      112.9523824 magnetization 

 Free energy of the ion-electron system (eV)
  ---------------------------------------------------
  alpha Z        PSCENC =       975.10247152
  Ewald energy   TEWEN  =     91076.85750103
  -Hartree energ DENC   =   -119777.64932398
  -exchange      EXHF   =         0.00000000
  -V(xc)+E(xc)   XCENC  =       178.06508320
  PAW double counting   =     30076.18455184   -29161.94763920
  entropy T*S    EENTRO =        -0.00282184
  eigenvalues    EBANDS =      -856.72733988
  atomic energy  EATOM  =     27259.89416086
  Solvation  Ediel_sol  =         0.00000000
  ---------------------------------------------------
  free energy    TOTEN  =      -230.22335646 eV

  energy without entropy =     -230.22053462  energy(sigma->0) =     -230.22241585


--------------------------------------------------------------------------------------------------------




 average (electrostatic) potential at core
  the test charge radii are     0.6991  0.7215  1.2059
  (the norm of the test charge is              1.0000)
       1 -56.2323       2 -74.5602       3 -76.0828       4 -72.3450       5 -72.3534
       6 -72.3494       7 -72.3534       8 -72.3767       9 -72.3694      10 -72.3369
      11 -72.3584      12 -72.3340      13 -72.9740      14 -73.0583      15 -73.0035
      16 -73.0364      17 -72.9924      18 -72.9890      19 -73.0750      20 -73.0493
      21 -73.0354      22 -73.0095      23 -73.0357      24 -72.8868      25 -73.0187
      26 -73.0360      27 -73.0811      28 -73.0119      29 -72.9993      30 -72.9177
      31 -72.4180      32 -72.4133      33 -72.5446      34 -72.2711      35 -72.4671
      36 -73.1710      37 -72.5280      38 -73.0435      39 -72.4154
 
 
 
 E-fermi :   1.0639     XC(G=0):  -6.6166     alpha+bet : -6.8913


 k-point     1 :       0.0000    0.0000    0.0000
  band No.  band energies     occupation 
      1     -21.9954      2.00000
      2     -16.6837      2.00000
      3      -8.5118      2.00000
      4      -8.1486      2.00000
      5      -6.8137      2.00000
      6      -5.8863      2.00000
      7      -5.8088      2.00000
      8      -5.7613      2.00000
      9      -5.7368      2.00000
     10      -5.7132      2.00000
     11      -5.6864      2.00000
     12      -5.6693      2.00000
     13      -5.6198      2.00000
     14      -5.5636      2.00000
     15      -5.4127      2.00000
     16      -5.1876      2.00000
     17      -5.1385      2.00000
     18      -5.1180      2.00000
     19      -5.0853      2.00000
     20      -5.0442      2.00000
     21      -5.0250      2.00000
     22      -5.0083      2.00000
     23      -4.6663      2.00000
     24      -4.6062      2.00000
     25      -4.5842      2.00000
     26      -4.5752      2.00000
     27      -4.5330      2.00000
     28      -4.4967      2.00000
     29      -4.4318      2.00000
     30      -4.4024      2.00000
     31      -4.3786      2.00000
     32      -4.3486      2.00000
     33      -4.3147      2.00000
     34      -4.2698      2.00000
     35      -4.1878      2.00000
     36      -4.1449      2.00000
     37      -4.1376      2.00000
     38      -4.1159      2.00000
     39      -4.1125      2.00000
     40      -4.0963      2.00000
     41      -4.0765      2.00000
     42      -4.0629      2.00000
     43      -4.0556      2.00000
     44      -4.0454      2.00000
     45      -4.0330      2.00000
     46      -4.0099      2.00000
     47      -3.5314      2.00000
     48      -3.5157      2.00000
     49      -3.4597      2.00000
     50      -3.4510      2.00000
     51      -3.4403      2.00000
     52      -3.4115      2.00000
     53      -3.3892      2.00000
     54      -3.3656      2.00000
     55      -3.3480      2.00000
     56      -3.3257      2.00000
     57      -3.2879      2.00000
     58      -3.2513      2.00000
     59      -3.1956      2.00000
     60      -3.0965      2.00000
     61      -2.9281      2.00000
     62      -2.8588      2.00000
     63      -2.7646      2.00000
     64      -2.6518      2.00000
     65      -2.6073      2.00000
     66      -2.5930      2.00000
     67      -2.5888      2.00000
     68      -2.5424      2.00000
     69      -2.5209      2.00000
     70      -2.4816      2.00000
     71      -2.4759      2.00000
     72      -2.4408      2.00000
     73      -2.4287      2.00000
     74      -2.4208      2.00000
     75      -2.4082      2.00000
     76      -2.3970      2.00000
     77      -2.3935      2.00000
     78      -2.3569      2.00000
     79      -2.3472      2.00000
     80      -2.3278      2.00000
     81      -2.3192      2.00000
     82      -2.3060      2.00000
     83      -2.2795      2.00000
     84      -2.2690      2.00000
     85      -2.2633      2.00000
     86      -2.1798      2.00000
     87      -2.1498      2.00000
     88      -2.1238      2.00000
     89      -2.1088      2.00000
     90      -2.0828      2.00000
     91      -2.0589      2.00000
     92      -2.0542      2.00000
     93      -2.0238      2.00000
     94      -2.0089      2.00000
     95      -1.9645      2.00000
     96      -1.9207      2.00000
     97      -1.9112      2.00000
     98      -1.8931      2.00000
     99      -1.7954      2.00000
    100      -1.7827      2.00000
    101      -1.6669      2.00000
    102      -1.6557      2.00000
    103      -1.6330      2.00000
    104      -1.6016      2.00000
    105      -1.5880      2.00000
    106      -1.5782      2.00000
    107      -1.5702      2.00000
    108      -1.5449      2.00000
    109      -1.5300      2.00000
    110      -1.5240      2.00000
    111      -1.5198      2.00000
    112      -1.4845      2.00000
    113      -1.4791      2.00000
    114      -1.3555      2.00000
    115      -1.2844      2.00000
    116      -1.1640      2.00000
    117      -1.1061      2.00000
    118      -1.0662      2.00000
    119      -1.0545      2.00000
    120      -1.0008      2.00000
[...]
     83      -2.3119      2.00000
     84      -2.2823      2.00000
     85      -2.2679      2.00000
     86      -2.2320      2.00000
     87      -2.2037      2.00000
     88      -2.1907      2.00000
     89      -2.1828      2.00000
     90      -2.1768      2.00000
     91      -2.1623      2.00000
     92      -2.1184      2.00000
     93      -2.0963      2.00000
     94      -2.0338      2.00000
     95      -2.0001      2.00000
     96      -1.9658      2.00000
     97      -1.9432      2.00000
     98      -1.9240      2.00000
     99      -1.9062      2.00000
    100      -1.8485      2.00000
    101      -1.8098      2.00000
    102      -1.7797      2.00000
    103      -1.7596      2.00000
    104      -1.7563      2.00000
    105      -1.7254      2.00000
    106      -1.6925      2.00000
    107      -1.6792      2.00000
    108      -1.6531      2.00000
    109      -1.6077      2.00000
    110      -1.5767      2.00000
    111      -1.5551      2.00000
    112      -1.4889      2.00000
    113      -1.4773      2.00000
    114      -1.3639      2.00000
    115      -1.3350      2.00000
    116      -1.2972      2.00000
    117      -1.2374      2.00000
    118      -1.1976      2.00000
    119      -1.1695      2.00000
    120      -1.1009      2.00000
    121      -1.0858      2.00000
    122      -1.0802      2.00000
    123      -1.0428      2.00000
    124      -1.0189      2.00000
    125      -1.0115      2.00000
    126      -0.9749      2.00000
    127      -0.9676      2.00000
    128      -0.9499      2.00000
    129      -0.9351      2.00000
    130      -0.9104      2.00000
    131      -0.8909      2.00000
    132      -0.8341      2.00000
    133      -0.7721      2.00000
    134      -0.7648      2.00000
    135      -0.7389      2.00000
    136      -0.7221      2.00000
    137      -0.6976      2.00000
    138      -0.6519      2.00000
    139      -0.6139      2.00000
    140      -0.5860      2.00000
    141      -0.5102      2.00000
    142      -0.4919      2.00000
    143      -0.4036      2.00000
    144      -0.3216      2.00000
    145      -0.2808      2.00000
    146      -0.2331      2.00000
    147      -0.2001      2.00000
    148      -0.1662      2.00000
    149      -0.1211      2.00000
    150      -0.1012      2.00000
    151      -0.0808      2.00000
    152       0.0026      2.00000
    153       0.0124      2.00000
    154       0.0475      2.00000
    155       0.0583      2.00000
    156       0.0814      2.00000
    157       0.1041      2.00000
    158       0.1460      2.00000
    159       0.1573      2.00000
    160       0.1721      2.00000
    161       0.2468      2.00000
    162       0.2617      2.00000
    163       0.2806      2.00000
    164       0.3137      2.00000
    165       0.3242      2.00000
    166       0.3661      2.00001
    167       0.4984      2.00049
    168       0.5482      2.00166
    169       0.5792      2.00331
    170       0.6021      2.00532
    171       0.6369      2.01029
    172       0.6573      2.01461
    173       0.6883      2.02361
    174       0.7511      2.04998
    175       0.7612      2.05456
    176       0.7865      2.06487
    177       0.8208      2.07085
    178       0.8344      2.06855
    179       0.8782      2.03034
    180       0.9042      1.97656
    181       0.9128      1.95222
    182       0.9719      1.68818
    183       1.0178      1.37036
    184       1.0562      1.05578
    185       1.0643      0.98712
    186       1.0738      0.90746
    187       1.1015      0.67913
    188       1.1072      0.63423
    189       1.1383      0.40850
    190       1.1465      0.35559
    191       1.2715     -0.05811
    192       1.3068     -0.07091
    193       1.3249     -0.06891
    194       1.3658     -0.05394
    195       1.3785     -0.04811
    196       1.4425     -0.02189
    197       1.5758     -0.00172
    198       1.6935     -0.00008
    199       1.7871     -0.00000
    200       1.9688     -0.00000
    201       2.2165     -0.00000
    202       2.2933     -0.00000
    203       2.7452     -0.00000
    204       2.9046     -0.00000
    205       2.9236     -0.00000
    206       2.9539     -0.00000
    207       2.9881     -0.00000
    208       3.2059     -0.00000
    209       3.3985     -0.00000
    210       3.4887     -0.00000
    211       3.5368     -0.00000
    212       3.6011     -0.00000
    213       3.6833     -0.00000
    214       3.7639     -0.00000
    215       3.8995     -0.00000
    216       4.1447     -0.00000
    217       4.1870     -0.00000
    218       4.3784     -0.00000
    219       4.4136     -0.00000
    220       4.5984     -0.00000
    221       4.6452     -0.00000
    222       4.8083     -0.00000
    223       5.1182     -0.00000
    224       5.4578     -0.00000
    225       6.1211     -0.00000
    226       6.4845     -0.00000
    227       6.5315      0.00000
    228       6.6042      0.00000


--------------------------------------------------------------------------------------------------------


 soft charge-density along one line, spin component           1
         0         1         2         3         4         5         6         7         8         9
 total charge-density along one line
 
 pseudopotential strength for first ion, spin component:           1
 10.090   0.015   0.004   0.010   0.000  -0.003  -0.009   0.000
  0.015  -0.002  -0.000  -0.000  -0.000  -0.000  -0.000   0.000
  0.004  -0.000  -4.243  -0.006   0.001  -0.009  -0.002   0.000
  0.010  -0.000  -0.006  -4.257   0.004  -0.002  -0.015   0.001
  0.000  -0.000   0.001   0.004  -4.241   0.000   0.001  -0.008
 -0.003  -0.000  -0.009  -0.002   0.000  -0.770  -0.000   0.000
 -0.009  -0.000  -0.002  -0.015   0.001  -0.000  -0.770   0.000
  0.000   0.000   0.000   0.001  -0.008   0.000   0.000  -0.770
 total augmentation occupancy for first ion, spin component:           1
  1.615  -0.844   0.024   0.015  -0.069   0.032   0.084  -0.028
 -0.844   1.188  -0.186  -0.539   0.110  -0.076  -0.223   0.040
  0.024  -0.186   0.835   0.174  -0.002   0.112   0.051  -0.008
  0.015  -0.539   0.174   1.303  -0.016   0.051   0.241  -0.014
 -0.069   0.110  -0.002  -0.016   0.800  -0.008  -0.015   0.100
  0.032  -0.076   0.112   0.051  -0.008   0.019   0.020  -0.004
  0.084  -0.223   0.051   0.241  -0.015   0.020   0.068  -0.008
 -0.028   0.040  -0.008  -0.014   0.100  -0.004  -0.008   0.015


------------------------ aborting loop because EDIFF is reached ----------------------------------------


    CHARGE:  cpu time    0.7968: real time    0.8027
    FORLOC:  cpu time    0.0504: real time    0.0508
    FORNL :  cpu time    3.4003: real time    3.4254
    STRESS:  cpu time   10.4401: real time   10.5178
    FORCOR:  cpu time    0.2160: real time    0.2174
    FORHAR:  cpu time    0.0947: real time    0.0954
    MIXING:  cpu time    0.0063: real time    0.0064
    OFIELD:  cpu time    0.0001: real time    0.0000

  FORCE on cell =-STRESS in cart. coord.  units (eV):
  Direction    XX          YY          ZZ          XY          YZ          ZX
  --------------------------------------------------------------------------------------
  Alpha Z   975.10247   975.10247   975.10247
  Ewald  110858.00595110845.84173************  -218.55443   233.45738   -93.19687
  Hartree117607.14395117581.25013************  -143.49500   100.44403   -53.92637
  E(xc)   -1665.71425 -1665.53925 -1673.07990    -0.54019     0.72520    -0.24933
  Local  ************************239083.14381   350.43175  -311.28739   140.15310
  n-local   122.99531   122.13607    88.90420    -1.20605     0.45642     0.71666
  augment  1895.10916  1893.88730  1932.55662     3.01390    -4.03385     0.63098
  Kinetic  5521.68620  5515.27958  5600.05394    11.76993   -20.99629     7.21339
  Fock        0.00000     0.00000     0.00000     0.00000     0.00000     0.00000
  -------------------------------------------------------------------------------------
  Total     -36.76926   -39.24636    -4.91042     1.41990    -1.23450     1.34155
  in kB     -43.79279   -46.74306    -5.84840     1.69112    -1.47031     1.59781
  external pressure =      -32.13 kB  Pullay stress =        0.00 kB


 VOLUME and BASIS-vectors are now :
 -----------------------------------------------------------------------------
  energy-cutoff  :      450.00
  volume of cell :     1345.22
      direct lattice vectors                 reciprocal lattice vectors
     7.296955120 -4.212899000  0.000000000     0.137043463  0.000000000  0.000000000
     0.000000000  8.425798000  0.000000000     0.068521732  0.118683121  0.000000000
     0.000000000  0.000000000 21.879635000     0.000000000  0.000000000  0.045704602

  length of vectors
     8.425798004  8.425798000 21.879635000     0.137043463  0.137043463  0.045704602


 FORCES acting on ions
    electron-ion (+dipol)            ewald-force                    non-local-force                 convergence-correction
 -----------------------------------------------------------------------------------------------
   0.634E+01 0.537E+01 -.874E+03   -.713E+01 -.948E+01 0.863E+03   0.769E+00 0.254E+01 0.103E+02   0.106E-01 0.138E-01 0.617E-01
   -.893E+02 0.634E+02 -.158E+04   0.930E+02 -.630E+02 0.160E+04   -.347E+01 -.431E-01 -.218E+02   0.111E-01 0.965E-02 0.251E-01
   0.666E+02 -.105E+03 -.153E+04   -.770E+02 0.125E+03 0.159E+04   0.106E+02 -.199E+02 -.570E+02   0.160E-01 -.151E-01 -.133E-01
   0.320E+00 -.250E+00 0.234E+04   -.349E+00 0.220E+00 -.234E+04   0.432E-01 -.224E-01 -.121E+01   -.185E-01 -.181E-01 -.241E-01
   -.857E+00 -.711E+00 0.234E+04   0.796E+00 0.715E+00 -.234E+04   0.836E-02 -.330E-01 -.113E+01   -.240E-01 0.162E-01 -.336E-01
   -.449E+00 -.562E+00 0.234E+04   0.380E+00 0.507E+00 -.234E+04   0.156E-01 0.596E-02 -.115E+01   0.525E-01 0.191E-01 -.849E-02
   0.104E+01 0.528E+00 0.234E+04   -.100E+01 -.490E+00 -.234E+04   0.117E-01 -.300E-02 -.119E+01   -.301E-01 0.299E-01 -.177E-01
   -.413E+00 0.910E+00 0.234E+04   0.425E+00 -.917E+00 -.234E+04   -.169E-01 0.254E-01 -.123E+01   0.898E-03 -.419E-02 -.359E-01
   0.576E+00 0.680E+00 0.234E+04   -.645E+00 -.734E+00 -.234E+04   0.212E-01 0.254E-01 -.121E+01   0.599E-01 0.275E-01 0.769E-02
   -.437E+00 -.304E+00 0.234E+04   0.502E+00 0.199E+00 -.234E+04   -.367E-01 0.971E-01 -.109E+01   -.434E-01 -.123E-01 -.490E-01
   -.212E+00 -.472E-01 0.234E+04   0.195E+00 0.230E+00 -.234E+04   -.143E-01 -.583E-01 -.124E+01   0.572E-01 -.466E-01 -.150E-01
   0.414E+00 -.230E+00 0.234E+04   -.298E+00 0.263E+00 -.234E+04   -.213E-01 0.534E-02 -.103E+01   -.544E-01 -.117E-01 -.218E-01
   -.142E+01 -.367E+01 0.863E+03   0.134E+01 0.366E+01 -.862E+03   0.840E-01 -.247E-01 -.676E+00   -.458E-01 0.593E-02 -.257E-01
   -.102E+02 -.437E+00 0.861E+03   0.101E+02 0.498E+00 -.861E+03   0.246E+00 -.423E-01 -.365E+00   0.556E-01 -.822E-02 0.163E-01
   0.398E+01 -.853E+01 0.858E+03   -.384E+01 0.849E+01 -.858E+03   -.902E-01 0.183E+00 -.397E+00   -.311E-01 -.336E-01 -.399E-01
   -.956E+01 0.294E+01 0.859E+03   0.958E+01 -.296E+01 -.858E+03   0.180E+00 -.116E+00 -.384E+00   -.190E-02 0.943E-02 -.885E-02
   -.435E+01 -.692E+01 0.853E+03   0.426E+01 0.691E+01 -.852E+03   0.128E+00 0.935E-01 -.189E+00   0.704E-01 0.443E-01 0.319E-01
   0.897E+01 -.690E+00 0.856E+03   -.902E+01 0.625E+00 -.856E+03   -.101E+00 0.601E-01 -.212E+00   -.197E-01 0.314E-01 0.114E-04
   0.123E+01 0.201E+01 0.865E+03   -.114E+01 -.193E+01 -.864E+03   -.113E+00 -.408E-01 -.567E+00   -.404E-01 -.152E-01 -.144E-01
   0.476E+01 0.886E+01 0.858E+03   -.487E+01 -.883E+01 -.857E+03   -.726E-01 -.188E+00 -.475E+00   0.678E-01 -.360E-01 0.521E-02
   0.606E+01 0.916E+01 0.863E+03   -.597E+01 -.903E+01 -.862E+03   -.287E-01 -.257E+00 -.496E+00   -.554E-01 0.198E-02 -.269E-01
   -.683E+01 0.939E+00 -.617E+03   0.667E+01 -.114E+01 0.616E+03   0.232E+00 0.396E+00 0.112E+01   -.217E-01 0.522E-03 0.545E-01
   -.287E+01 0.766E+01 -.620E+03   0.289E+01 -.754E+01 0.620E+03   0.324E-01 -.266E+00 0.701E+00   0.265E-01 -.434E-01 0.370E-01
   0.657E+00 0.731E+01 -.680E+03   -.838E+00 -.698E+01 0.680E+03   0.879E-01 -.501E+00 -.237E+00   0.116E-01 0.216E-01 0.194E-01
   0.174E+01 0.648E+01 -.642E+03   -.216E+01 -.591E+01 0.642E+03   0.337E+00 -.349E+00 0.372E+00   -.108E-01 0.253E-01 0.328E-01
   0.410E+01 -.114E+01 -.619E+03   -.351E+01 0.103E+01 0.619E+03   -.627E+00 0.121E+00 0.764E+00   0.512E-01 0.409E-01 0.449E-02
   -.464E+01 -.962E+01 -.633E+03   0.452E+01 0.960E+01 0.633E+03   0.269E+00 -.106E-02 0.577E+00   -.617E-01 -.302E-01 0.205E-01
   0.106E+00 -.627E+01 -.620E+03   0.265E-02 0.632E+01 0.620E+03   -.952E-01 0.128E+00 0.137E+01   -.393E-01 -.467E-01 -.193E-01
   0.810E+00 -.860E+01 -.670E+03   -.827E+00 0.845E+01 0.670E+03   -.476E-01 0.386E+00 -.790E+00   0.540E-01 0.401E-02 0.725E-01
   0.796E+01 0.650E+00 -.665E+03   -.790E+01 -.872E+00 0.665E+03   -.262E+00 0.132E+00 -.486E+00   -.115E-01 0.277E-01 0.164E-01
   -.225E+02 -.159E+02 -.216E+04   0.229E+02 0.161E+02 0.216E+04   -.411E+00 -.146E+00 0.122E+01   -.390E-02 -.454E-01 0.434E-01
   0.131E+02 0.237E+02 -.212E+04   -.133E+02 -.244E+02 0.212E+04   0.279E+00 0.830E+00 0.154E+01   0.696E-02 -.419E-01 0.347E-01
   0.366E+02 0.340E+01 -.213E+04   -.369E+02 -.363E+01 0.213E+04   0.197E+00 -.491E-01 0.121E+01   -.882E-03 0.851E-01 0.449E-01
   -.531E+01 0.395E+01 -.219E+04   0.524E+01 -.409E+01 0.219E+04   -.366E-01 0.979E-01 0.645E+00   -.276E-01 0.913E-02 0.735E-01
   0.158E+02 0.842E+01 -.214E+04   -.158E+02 -.869E+01 0.214E+04   -.662E-01 0.475E+00 0.108E+01   -.174E-01 -.412E-01 0.441E-01
   0.810E+02 0.642E+02 -.200E+04   -.839E+02 -.622E+02 0.201E+04   0.266E+01 -.171E+01 -.317E+01   0.492E-01 0.314E-01 0.389E-01
   -.540E+02 -.557E+02 -.206E+04   0.554E+02 0.577E+02 0.206E+04   -.137E+01 -.185E+01 0.257E+01   -.167E-01 -.357E-01 0.388E-01
   -.604E+02 0.943E+02 -.204E+04   0.607E+02 -.948E+02 0.204E+04   -.600E+00 0.460E+00 -.531E+00   0.318E-01 0.278E-01 0.606E-01
   0.271E+01 -.700E+02 -.213E+04   -.260E+01 0.712E+02 0.213E+04   0.218E+00 -.102E+01 0.131E+01   -.283E-01 0.275E-02 0.156E-01
 -----------------------------------------------------------------------------------------------
   -.891E+01 0.207E+02 0.731E+02   -.155E-13 0.156E-12 0.773E-11   0.894E+01 -.206E+02 -.736E+02   0.284E-01 0.147E-04 0.446E+00
 
 
 POSITION                                       TOTAL-FORCE (eV/Angst)
 -----------------------------------------------------------------------------------
      5.15392      0.64957     10.45087        -0.006019     -1.564558     -0.889428
      6.60731     -0.53881     10.25317         0.305001      0.348800     -0.039839
      4.96462      1.03384     11.53188         0.213300      0.309806      0.268573
      7.20031     -1.38846      1.62732        -0.006593     -0.074139      0.093219
      2.33567      1.42014      1.62732        -0.078572     -0.017213      0.139915
      4.76799      0.01584      1.62732        -0.002352     -0.034753      0.163910
      7.20031      1.42015      1.62732         0.017324      0.061424      0.137431
      2.33567      4.22875      1.62732        -0.006131      0.010477      0.180782
      4.76799      2.82445      1.62732         0.010526     -0.005059      0.199535
      2.33567      7.03734      1.62732        -0.017077     -0.023515      0.041021
      4.76799      5.63304      1.62732         0.025138      0.074228      0.114339
      7.20031      4.22874      1.62732         0.039234      0.022865      0.024313
      1.52490      0.01584      3.92052        -0.041583     -0.034012     -0.366410
      3.95722     -1.38846      3.92052         0.195548      0.007269     -0.217023
      6.38953     -2.79276      3.92052         0.010412      0.109567     -0.243614
      1.52490      2.82445      3.92052         0.192091     -0.129183     -0.145256
      3.95722      1.42015      3.92052         0.105924      0.120261      0.130879
      6.38953      0.01585      3.92052        -0.171128      0.023013      0.077340
      1.52490      5.63305      3.92052        -0.068344      0.020596     -0.380747
      3.95722      4.22874      3.92052        -0.115654     -0.196022     -0.153420
      6.38953      2.82445      3.92052        -0.003857     -0.133901     -0.329533
      0.71667      4.17696      6.14443         0.056378      0.189099      0.553354
      3.14450      5.62430      6.14663         0.069843     -0.192284      0.210316
      5.58564     -1.36860      6.25992        -0.083275     -0.150906     -0.183376
      0.69312      1.40739      6.17270        -0.088429      0.244043      0.661724
      3.16970     -0.00500      6.14978         0.020961      0.047042      0.581674
      0.69954      7.02907      6.16491         0.085503     -0.057578      0.207817
      5.58264      4.20247      6.12894        -0.027920      0.125336      0.733907
      3.16047      2.77789      6.27313        -0.012396      0.238438     -0.800950
      5.59900      1.40074      6.26629        -0.216868     -0.067219     -0.559007
      2.35708      4.21094      8.47153        -0.031307      0.066157     -0.124957
      4.76480      5.57730      8.42323         0.032300      0.097934      0.078141
      2.31876      1.38326      8.46146        -0.117929     -0.198761      0.035465
      7.21520      4.19926      8.55309        -0.137571     -0.038579     -0.541781
      2.34835      6.98917      8.42455        -0.075812      0.165062      0.149809
      4.65854      0.04918      8.66927        -0.120949      0.338190     -0.033819
      7.27009      1.41895      8.43104         0.001629      0.135081      0.151276
      7.25382     -1.45333      8.60560        -0.249489     -0.007523      0.277457
      4.77242      2.83951      8.52150         0.298143      0.170519     -0.203038
 -----------------------------------------------------------------------------------
    total drift:                                0.061670      0.153296     -0.000339
  FORCES: max atom, RMS     1.799711    0.441810
  Number: max atom                 1
  FORCE total and by dimension    2.759103    1.564558


--------------------------------------------------------------------------------------------------------



  FREE ENERGIE OF THE ION-ELECTRON SYSTEM (eV)
  ---------------------------------------------------
  free  energy   TOTEN  =      -230.47236197 eV

  energy  without entropy=     -230.46717692  energy(sigma->0) =     -230.47063362
 
 d Force = 0.7600200E-01[ 0.258E-01, 0.126E+00]  d Energy = 0.7868168E-01-0.268E-02
 d Force =-0.1769791E+02[-0.180E+02,-0.174E+02]  d Ewald  =-0.1769533E+02-0.257E-02


--------------------------------------------------------------------------------------------------------


    POTLOK:  cpu time    0.1820: real time    0.3883


--------------------------------------------------------------------------------------------------------


 stress matrix after NEB project (eV)
    -36.76926      1.41990      1.34155
      1.41990    -39.24636     -1.23450
      1.34155     -1.23450     -4.91042
  FORCES: max atom, RMS     1.799711    0.441810
  FORCE total and by dimension    2.759103    1.564558
  Stress total and by dimension   54.102189   39.246359
 Quasi-Newton relaxation of ions (Broydens 2nd method)
  g(Force)  = 0.147E+00   g(Stress)= 0.000E+00

 retain information from N=  2 steps
 eigenvalues of (default step * inverse Hessian matrix)
  average eigenvalue of G=   3.8711
 eigenvalue spectrum of G is  0.4965  7.2456
  RESET_HESSIAN           0


--------------------------------------------------------------------------------------------------------


    WAVPRE:  cpu time    0.0733: real time    0.2651
    FEWALD:  cpu time    0.0014: real time    0.0014

 real space projection operators:
  total allocation   :      13560.16 KBytes
  max/ min on nodes  :       6790.61       6769.55

    ORTHCH:  cpu time    1.3948: real time    1.4109
     LOOP+:  cpu time   99.3090: real time  100.5992

