<?xml version="1.0" encoding="ISO-8859-1"?>
<modeling>
 <generator>
  <i name="program" type="string"> vasp </i>
  <i name="version" type="string">5.4.4  </i>
  <i name="subversion" type="string">16052018 (build Apr 24 2014 20:13:14) complex standard parallel Constrained Minimization Technique (TS), Periodic NBO, VASPsol, libbeef, VASP2WANNIER90, Constrained Cell Relaxation </i>
  <i name="platform" type="string">Center for Computational Chemistry </i>
  <i name="user" type="string">phu </i>
  <i name="host" type="string">node11 </i>
  <i name="date" type="string">2025 11 24 </i>
  <i name="time" type="string">21:51:43 </i>
 </generator>
 <incar>
  <i type="string" name="SYSTEM"> metal</i>
  <i type="int" name="ISTART">     0</i>
  <i type="string" name="PREC">normal</i>
  <i type="string" name="ALGO">Fast</i>
  <i type="int" name="NSIM">     4</i>
  <i type="int" name="ISPIN">     1</i>
  <i type="int" name="NELMIN">     8</i>
  <i type="int" name="IBRION">     1</i>
  <i name="EDIFFG">     -0.05000000</i>
  <i type="int" name="NSW">  5000</i>
  <i type="int" name="ISIF">     2</i>
  <i type="int" name="ISYM">     0</i>
  <i name="ENCUT">    450.00000000</i>
  <i name="POTIM">      0.20000000</i>
  <i type="string" name="LREAL">A</i>
  <i type="int" name="ISMEAR">     1</i>
  <i name="SIGMA">      0.20000000</i>
  <i type="logical" name="LWAVE"> F  </i>
  <i type="logical" name="LCHARG"> F  </i>
  <v type="int" name="KPOINT_BSE">    -1     0     0     0</v>
  <i type="int" name="VOSKOWN">     0</i>
 </incar>
 <structure name="primitive_cell" >
  <crystal>
   <varray name="basis" >
    <v>       7.29695512      -4.21289900       0.00000000 </v>
    <v>       0.00000000       8.42579800       0.00000000 </v>
    <v>       0.00000000       0.00000000      21.87963500 </v>
   </varray>
   <i name="volume">   1345.21837528 </i>
   <varray name="rec_basis" >
    <v>       0.13704346       0.00000000       0.00000000 </v>
    <v>       0.06852173       0.11868312       0.00000000 </v>
    <v>       0.00000000       0.00000000       0.04570460 </v>
   </varray>
  </crystal>
  <varray name="positions" >
   <v>      -0.29288309       0.43512319       0.47790267 </v>
   <v>      -0.32101964       0.46197908      -0.47220880 </v>
   <v>      -0.09566019       0.38724542       0.46886456 </v>
   <v>      -0.36121783       0.32392731       0.39605179 </v>
   <v>      -0.34764892      -0.33762869       0.38961188 </v>
   <v>      -0.00400022      -0.33416742       0.38508569 </v>
   <v>      -0.00482224       0.32502811       0.39282722 </v>
   <v>       0.31854626       0.32470141       0.38662687 </v>
   <v>       0.32226322      -0.01006292       0.38490076 </v>
   <v>      -0.34728692      -0.01184465       0.38497906 </v>
   <v>      -0.23154694      -0.44918819       0.28730402 </v>
   <v>      -0.01061983      -0.00678034       0.39177393 </v>
   <v>      -0.23406355       0.22120613       0.28637084 </v>
   <v>       0.43421676       0.21628670       0.28012526 </v>
   <v>       0.32330533      -0.33906666       0.38735056 </v>
   <v>       0.43306770      -0.45483111       0.28808215 </v>
   <v>       0.09775588      -0.45619257       0.27994866 </v>
   <v>       0.09540618      -0.11780029       0.28136667 </v>
   <v>      -0.23461371      -0.11916969       0.27884056 </v>
   <v>       0.43053364      -0.11627437       0.28056481 </v>
   <v>       0.09542164       0.21387775       0.28103910 </v>
   <v>      -0.12435600       0.43970300       0.17918600 </v>
   <v>      -0.45768900       0.43970300       0.17918600 </v>
   <v>      -0.45768900       0.10636900       0.17918600 </v>
   <v>      -0.12435600      -0.22696400       0.17918600 </v>
   <v>      -0.12435600       0.10636900       0.17918600 </v>
   <v>       0.20897700       0.10636900       0.17918600 </v>
   <v>       0.20897700      -0.22696400       0.17918600 </v>
   <v>      -0.45768900      -0.22696400       0.17918600 </v>
   <v>       0.20897700       0.43970300       0.17918600 </v>
   <v>      -0.34657800       0.32859100       0.07437600 </v>
   <v>      -0.01324500      -0.33807500       0.07437600 </v>
   <v>      -0.34657800      -0.33807500       0.07437600 </v>
   <v>      -0.01324500       0.32859100       0.07437600 </v>
   <v>       0.32008800       0.32859100       0.07437600 </v>
   <v>      -0.34657800      -0.00474200       0.07437600 </v>
   <v>       0.32008800      -0.00474200       0.07437600 </v>
   <v>      -0.01324500      -0.00474200       0.07437600 </v>
   <v>       0.32008800      -0.33807500       0.07437600 </v>
  </varray>
 </structure>
 <varray name="primitive_index" >
  <v type="int" >        1 </v>
  <v type="int" >        3 </v>
  <v type="int" >        2 </v>
  <v type="int" >       36 </v>
  <v type="int" >       39 </v>
  <v type="int" >       37 </v>
  <v type="int" >       38 </v>
  <v type="int" >       33 </v>
  <v type="int" >       35 </v>
  <v type="int" >       32 </v>
  <v type="int" >       30 </v>
  <v type="int" >       34 </v>
  <v type="int" >       24 </v>
  <v type="int" >       26 </v>
  <v type="int" >       31 </v>
  <v type="int" >       29 </v>
  <v type="int" >       22 </v>
  <v type="int" >       27 </v>
  <v type="int" >       28 </v>
  <v type="int" >       23 </v>
  <v type="int" >       25 </v>
  <v type="int" >       18 </v>
  <v type="int" >       17 </v>
  <v type="int" >       14 </v>
  <v type="int" >       21 </v>
  <v type="int" >       15 </v>
  <v type="int" >       13 </v>
  <v type="int" >       19 </v>
  <v type="int" >       20 </v>
  <v type="int" >       16 </v>
  <v type="int" >        6 </v>
  <v type="int" >        7 </v>
  <v type="int" >        9 </v>
  <v type="int" >        4 </v>
  <v type="int" >        5 </v>
  <v type="int" >       11 </v>
  <v type="int" >       10 </v>
  <v type="int" >       12 </v>
  <v type="int" >        8 </v>
 </varray>
 <kpoints>
  <generation param="Gamma">
   <v type="int" name="divisions">       2        2        1 </v>
   <v name="usershift">      0.00000000       0.00000000       0.00000000 </v>
   <v name="genvec1">      0.50000000       0.00000000       0.00000000 </v>
   <v name="genvec2">     -0.00000000       0.50000000       0.00000000 </v>
   <v name="genvec3">      0.00000000       0.00000000       1.00000000 </v>
   <v name="shift">      0.00000000       0.00000000       0.00000000 </v>
  </generation>
  <varray name="kpointlist" >
   <v>       0.00000000       0.00000000       0.00000000 </v>
   <v>       0.50000000       0.00000000       0.00000000 </v>
   <v>      -0.00000000       0.50000000       0.00000000 </v>
   <v>       0.50000000       0.50000000       0.00000000 </v>
  </varray>
  <varray name="weights" >
   <v>       0.25000000 </v>
   <v>       0.25000000 </v>
   <v>       0.25000000 </v>
   <v>       0.25000000 </v>
  </varray>
 </kpoints>
 <parameters>
  <separator name="general" >
   <i type="string" name="SYSTEM">metal</i>
   <i type="logical" name="LCOMPAT"> F  </i>
  </separator>
  <separator name="electronic" >
   <i type="string" name="PREC">normal</i>
   <i name="ENMAX">    450.00000000</i>
   <i name="ENAUG">    644.87300000</i>
   <i name="EDIFF">      0.00010000</i>
   <i type="int" name="IALGO">    68</i>
   <i type="int" name="IWAVPR">    11</i>
   <i type="int" name="NBANDS">   228</i>
   <i name="NELECT">    376.00000000</i>
   <i type="int" name="TURBO">     0</i>
   <i type="int" name="IRESTART">     0</i>
   <i type="int" name="NREBOOT">     0</i>
   <i type="int" name="NMIN">     0</i>
   <i name="EREF">      0.00000000</i>
   <separator name="electronic smearing" >
    <i type="int" name="ISMEAR">     1</i>
    <i name="SIGMA">      0.20000000</i>
    <i name="KSPACING">      0.50000000</i>
    <i type="logical" name="KGAMMA"> T  </i>
   </separator>
   <separator name="electronic projectors" >
    <i type="logical" name="LREAL"> T  </i>
    <v name="ROPT">     -0.00050000     -0.00050000     -0.00050000</v>
    <i type="int" name="LMAXPAW">  -100</i>
    <i type="int" name="LMAXMIX">     2</i>
    <i type="logical" name="NLSPLINE"> F  </i>
   </separator>
   <separator name="electronic startup" >
    <i type="int" name="ISTART">     0</i>
    <i type="int" name="ICHARG">     2</i>
    <i type="int" name="INIWAV">     1</i>
   </separator>
   <separator name="electronic spin" >
    <i type="int" name="ISPIN">     1</i>
    <i type="logical" name="LNONCOLLINEAR"> F  </i>
    <v name="MAGMOM">      1.00000000      1.00000000      1.00000000      1.00000000      1.00000000      1.00000000      1.00000000      1.00000000      1.00000000      1.00000000      1.00000000      1.00000000      1.00000000      1.00000000      1.00000000      1.00000000      1.00000000      1.00000000      1.00000000      1.00000000
      1.00000000      1.00000000      1.00000000      1.00000000      1.00000000      1.00000000      1.00000000      1.00000000      1.00000000      1.00000000      1.00000000      1.00000000      1.00000000      1.00000000      1.00000000      1.00000000      1.00000000      1.00000000      1.00000000</v>
    <i name="NUPDOWN">     -1.00000000</i>
    <i type="logical" name="LSORBIT"> F  </i>
    <v name="SAXIS">      0.00000000      0.00000000      1.00000000</v>
    <i type="logical" name="LSPIRAL"> F  </i>
    <v name="QSPIRAL">      0.00000000      0.00000000      0.00000000</v>
    <i type="logical" name="LZEROZ"> F  </i>
   </separator>
   <separator name="electronic exchange-correlation" >
    <i type="logical" name="LASPH"> F  </i>
    <i type="logical" name="LMETAGGA"> F  </i>
   </separator>
   <separator name="electronic convergence" >
    <i type="int" name="NELM">    60</i>
    <i type="int" name="NELMDL">    -5</i>
    <i type="int" name="NELMIN">     8</i>
    <i name="ENINI">    450.00000000</i>
    <separator name="electronic convergence detail" >
     <i type="logical" name="LDIAG"> T  </i>
     <i type="logical" name="LSUBROT"> F  </i>
     <i name="WEIMIN">      0.00100000</i>
     <i name="EBREAK">      0.00000011</i>
     <i name="DEPER">      0.30000000</i>
     <i type="int" name="NRMM">     4</i>
     <i name="TIME">      0.40000000</i>
    </separator>
   </separator>
   <separator name="electronic mixer" >
    <i name="AMIX">      0.40000000</i>
    <i name="BMIX">      1.00000000</i>
    <i name="AMIN">      0.10000000</i>
    <i name="AMIX_MAG">      1.60000000</i>
    <i name="BMIX_MAG">      1.00000000</i>
    <separator name="electronic mixer details" >
     <i type="int" name="IMIX">     4</i>
     <i type="logical" name="MIXFIRST"> F  </i>
     <i type="int" name="MAXMIX">   -45</i>
     <i name="WC">    100.00000000</i>
     <i type="int" name="INIMIX">     1</i>
     <i type="int" name="MIXPRE">     1</i>
     <i type="int" name="MREMOVE">     5</i>
    </separator>
   </separator>
   <separator name="electronic dipolcorrection" >
    <i type="logical" name="LDIPOL"> F  </i>
    <i type="logical" name="LMONO"> F  </i>
    <i type="int" name="IDIPOL">     0</i>
    <i name="EPSILON">      1.00000000</i>
    <v name="DIPOL">   -100.00000000   -100.00000000   -100.00000000</v>
    <i name="EFIELD">      0.00000000</i>
   </separator>
  </separator>
  <separator name="grids" >
   <i type="int" name="NGX">    48</i>
   <i type="int" name="NGY">    48</i>
   <i type="int" name="NGZ">   120</i>
   <i type="int" name="NGXF">    96</i>
   <i type="int" name="NGYF">    96</i>
   <i type="int" name="NGZF">   240</i>
   <i type="logical" name="ADDGRID"> F  </i>
  </separator>
  <separator name="ionic" >
   <i type="int" name="NSW">  5000</i>
   <i type="int" name="IBRION">     1</i>
   <i type="int" name="MDALGO">     0</i>
   <i type="int" name="ISIF">     2</i>
   <i name="PSTRESS">      0.00000000</i>
   <i name="EDIFFG">     -0.05000000</i>
   <i type="int" name="NFREE">     0</i>
   <i name="POTIM">      0.20000000</i>
   <i name="SMASS">     -3.00000000</i>
   <i name="SCALEE">      1.00000000</i>
  </separator>
  <separator name="ionic md" >
   <i name="TEBEG">      0.00010000</i>
   <i name="TEEND">      0.00010000</i>
   <i type="int" name="NBLOCK">     1</i>
   <i type="int" name="KBLOCK">  5000</i>
   <i type="int" name="NPACO">   256</i>
   <i name="APACO">     16.00000000</i>
  </separator>
  <separator name="symmetry" >
   <i type="int" name="ISYM">     0</i>
   <i name="SYMPREC">      0.00001000</i>
  </separator>
  <separator name="dos" >
   <i type="int" name="LORBIT">     0</i>
   <v name="RWIGS">     -1.00000000     -1.00000000     -1.00000000</v>
   <i type="int" name="NEDOS">   301</i>
   <i name="EMIN">     10.00000000</i>
   <i name="EMAX">    -10.00000000</i>
   <i name="EFERMI">      0.00000000</i>
  </separator>
  <separator name="writing" >
   <i type="int" name="NWRITE">     2</i>
   <i type="logical" name="LWAVE"> F  </i>
   <i type="logical" name="LDOWNSAMPLE"> F  </i>
   <i type="logical" name="LCHARG"> F  </i>
   <i type="logical" name="LPARD"> F  </i>
   <i type="logical" name="LVTOT"> F  </i>
   <i type="logical" name="LVHAR"> F  </i>
   <i type="logical" name="LELF"> F  </i>
   <i type="logical" name="LOPTICS"> F  </i>
   <v name="STM">      0.00000000      0.00000000      0.00000000      0.00000000      0.00000000      0.00000000      0.00000000</v>
  </separator>
  <separator name="performance" >
   <i type="int" name="NPAR">     4</i>
   <i type="int" name="NSIM">     4</i>
   <i type="int" name="NBLK">    -1</i>
   <i type="logical" name="LPLANE"> T  </i>
   <i type="logical" name="LSCALAPACK"> T  </i>
   <i type="logical" name="LSCAAWARE"> F  </i>
   <i type="logical" name="LSCALU"> F  </i>
   <i type="logical" name="LASYNC"> F  </i>
   <i type="logical" name="LORBITALREAL"> F  </i>
  </separator>
  <separator name="miscellaneous" >
   <i type="int" name="IDIOT">     3</i>
   <i type="int" name="ISPECIAL">     0</i>
   <i type="logical" name="LMUSIC"> F  </i>
   <v name="POMASS">     12.01100000     16.00000000    195.08000000</v>
   <v name="DARWINR">      0.00000000      0.00000000      0.00000000</v>
   <v name="DARWINV">      1.00000000      1.00000000      1.00000000</v>
   <i type="logical" name="LCORR"> T  </i>
  </separator>
  <i type="logical" name="GGA_COMPAT"> T  </i>
  <i type="logical" name="LBERRY"> F  </i>
  <i type="int" name="ICORELEVEL">     0</i>
  <i type="logical" name="LDAU"> F  </i>
  <i type="int" name="I_CONSTRAINED_M">     0</i>
  <separator name="electronic exchange-correlation" >
   <i type="string" name="GGA">--</i>
   <i type="int" name="VOSKOWN">     0</i>
   <i type="logical" name="LHFCALC"> F  </i>
   <i type="string" name="PRECFOCK"></i>
   <i type="logical" name="LSYMGRAD"> F  </i>
   <i type="logical" name="LHFONE"> F  </i>
   <i type="logical" name="LRHFCALC"> F  </i>
   <i type="logical" name="LTHOMAS"> F  </i>
   <i type="logical" name="LMODELHF"> F  </i>
   <i name="ENCUT4O">     -1.00000000</i>
   <i type="int" name="EXXOEP">     0</i>
   <i type="int" name="FOURORBIT">     0</i>
   <i name="AEXX">      0.00000000</i>
   <i name="HFALPHA">      0.00000000</i>
   <i name="MCALPHA">      0.00000000</i>
   <i name="ALDAX">      1.00000000</i>
   <i name="AGGAX">      1.00000000</i>
   <i name="ALDAC">      1.00000000</i>
   <i name="AGGAC">      1.00000000</i>
   <i type="int" name="NKREDX">     1</i>
   <i type="int" name="NKREDY">     1</i>
   <i type="int" name="NKREDZ">     1</i>
   <i type="logical" name="SHIFTRED"> F  </i>
   <i type="logical" name="ODDONLY"> F  </i>
   <i type="logical" name="EVENONLY"> F  </i>
   <i type="int" name="LMAXFOCK">     0</i>
   <i type="int" name="NMAXFOCKAE">     0</i>
   <i type="logical" name="LFOCKAEDFT"> F  </i>
   <i name="HFSCREEN">      0.00000000</i>
   <i name="HFSCREENC">      0.00000000</i>
   <i type="int" name="NBANDSGWLOW">     0</i>
  </separator>
  <separator name="vdW DFT" >
   <i type="logical" name="LUSE_VDW"> F  </i>
   <i name="Zab_VDW">     -0.84910000</i>
   <i name="PARAM1">      0.12340000</i>
   <i name="PARAM2">      1.00000000</i>
   <i name="PARAM3">      0.00000000</i>
  </separator>
  <separator name="model GW" >
   <i type="int" name="MODEL_GW">     0</i>
   <i name="MODEL_EPS0">     20.69566731</i>
   <i name="MODEL_ALPHA">      1.00000000</i>
  </separator>
  <separator name="linear response parameters" >
   <i type="logical" name="LEPSILON"> F  </i>
   <i type="logical" name="LRPA"> F  </i>
   <i type="logical" name="LNABLA"> F  </i>
   <i type="logical" name="LVEL"> F  </i>
   <i type="int" name="KINTER">     0</i>
   <i name="CSHIFT">      0.10000000</i>
   <i name="OMEGAMAX">     -1.00000000</i>
   <i name="DEG_THRESHOLD">      0.00200000</i>
   <i name="RTIME">     -0.10000000</i>
   <i name="WPLASMAI">      0.00000000</i>
   <v name="DFIELD">      0.00000000      0.00000000      0.00000000</v>
   <v name="WPLASMA">      0.00000000      0.00000000      0.00000000      0.00000000      0.00000000      0.00000000      0.00000000      0.00000000      0.00000000</v>
  </separator>
  <separator name="orbital magnetization" >
   <i type="logical" name="NUCIND"> F  </i>
   <v name="MAGPOS">      0.00000000      0.00000000      0.00000000</v>
   <i type="logical" name="LNICSALL"> T  </i>
   <i type="logical" name="ORBITALMAG"> F  </i>
   <i type="logical" name="LMAGBLOCH"> F  </i>
   <i type="logical" name="LCHIMAG"> F  </i>
   <i type="logical" name="LGAUGE"> T  </i>
   <i type="int" name="MAGATOM">     0</i>
   <v name="MAGDIPOL">      0.00000000      0.00000000      0.00000000</v>
   <v name="AVECCONST">      0.00000000      0.00000000      0.00000000</v>
  </separator>
  <separator name="response functions" >
   <i type="logical" name="LADDER"> F  </i>
   <i type="logical" name="LRPAFORCE"> F  </i>
   <i type="logical" name="LFXC"> F  </i>
   <i type="logical" name="LHARTREE"> T  </i>
   <i type="int" name="IBSE">     0</i>
   <v type="int" name="KPOINT">    -1     0     0     0</v>
   <i type="logical" name="LTCTE"> F  </i>
   <i type="logical" name="LTETE"> F  </i>
   <i type="logical" name="LTRIPLET"> F  </i>
   <i type="logical" name="LFXCEPS"> F  </i>
   <i type="logical" name="LFXHEG"> F  </i>
   <i type="int" name="NATURALO">     2</i>
   <i type="logical" name="L2ORDER"> F  </i>
   <i type="logical" name="LMP2LT"> F  </i>
   <i type="logical" name="LUSEW"> F  </i>
   <i name="ENCUTGW">     -2.00000000</i>
   <i name="ENCUTGWSOFT">     -2.00000000</i>
   <i name="ENCUTLF">     -1.00000000</i>
   <i type="int" name="LMAXMP2">    -1</i>
   <i name="SCISSOR">      0.00000000</i>
   <i type="int" name="NOMEGA">     0</i>
   <i type="int" name="NOMEGAR">     0</i>
   <i type="int" name="NBANDSGW">    -1</i>
   <i type="int" name="NBANDSO">    -1</i>
   <i type="int" name="NBANDSV">    -1</i>
   <i type="int" name="NELM">     1</i>
   <i type="int" name="NELMHF">     1</i>
   <i type="int" name="DIM">     3</i>
   <i type="int" name="ANTIRES">     0</i>
   <i name="OMEGAMAX">    -30.00000000</i>
   <i name="OMEGAMIN">    -30.00000000</i>
   <i name="OMEGATL">   -200.00000000</i>
   <i type="int" name="OMEGAGRID">   140</i>
   <i name="CSHIFT">     -0.10000000</i>
   <i type="logical" name="SELFENERGY"> F  </i>
   <i type="logical" name="LSPECTRAL"> F  </i>
   <i type="logical" name="LSPECTRALGW"> F  </i>
   <i type="logical" name="LSINGLES"> F  </i>
   <i type="logical" name="LFERMIGW"> F  </i>
   <i type="logical" name="ODDONLYGW"> F  </i>
   <i type="logical" name="EVENONLYGW"> F  </i>
   <i type="int" name="NKREDLFX">     1</i>
   <i type="int" name="NKREDLFY">     1</i>
   <i type="int" name="NKREDLFZ">     1</i>
   <i type="int" name="MAXMEM">  2800</i>
   <i type="int" name="TELESCOPE">     0</i>
   <i type="int" name="TAUPAR">     1</i>
   <i type="int" name="OMEGAPAR">    -1</i>
   <i name="LAMBDA">      1.00000000</i>
  </separator>
  <separator name="External order field" >
   <i name="OFIELD_KAPPA">      0.00000000</i>
   <v name="OFIELD_K">      0.00000000      0.00000000      0.00000000</v>
   <i name="OFIELD_Q6_NEAR">      0.00000000</i>
   <i name="OFIELD_Q6_FAR">      0.00000000</i>
   <i name="OFIELD_A">      0.00000000</i>
  </separator>
  <separator name="solvation model" >
   <i type="logical" name="LSOL"> F  </i>
  </separator>
 </parameters>
 <atominfo>
  <atoms>      39 </atoms>
  <types>       3 </types>
  <array name="atoms" >
   <dimension dim="1">ion</dimension>
   <field type="string">element</field>
   <field type="int">atomtype</field>
   <set>
    <rc><c>C </c><c>   1</c></rc>
    <rc><c>O </c><c>   2</c></rc>
    <rc><c>O </c><c>   2</c></rc>
    <rc><c>Pt</c><c>   3</c></rc>
    <rc><c>Pt</c><c>   3</c></rc>
    <rc><c>Pt</c><c>   3</c></rc>
    <rc><c>Pt</c><c>   3</c></rc>
    <rc><c>Pt</c><c>   3</c></rc>
    <rc><c>Pt</c><c>   3</c></rc>
    <rc><c>Pt</c><c>   3</c></rc>
    <rc><c>Pt</c><c>   3</c></rc>
    <rc><c>Pt</c><c>   3</c></rc>
    <rc><c>Pt</c><c>   3</c></rc>
    <rc><c>Pt</c><c>   3</c></rc>
    <rc><c>Pt</c><c>   3</c></rc>
    <rc><c>Pt</c><c>   3</c></rc>
    <rc><c>Pt</c><c>   3</c></rc>
    <rc><c>Pt</c><c>   3</c></rc>
    <rc><c>Pt</c><c>   3</c></rc>
    <rc><c>Pt</c><c>   3</c></rc>
    <rc><c>Pt</c><c>   3</c></rc>
    <rc><c>Pt</c><c>   3</c></rc>
    <rc><c>Pt</c><c>   3</c></rc>
    <rc><c>Pt</c><c>   3</c></rc>
    <rc><c>Pt</c><c>   3</c></rc>
    <rc><c>Pt</c><c>   3</c></rc>
    <rc><c>Pt</c><c>   3</c></rc>
    <rc><c>Pt</c><c>   3</c></rc>
    <rc><c>Pt</c><c>   3</c></rc>
    <rc><c>Pt</c><c>   3</c></rc>
    <rc><c>Pt</c><c>   3</c></rc>
    <rc><c>Pt</c><c>   3</c></rc>
    <rc><c>Pt</c><c>   3</c></rc>
    <rc><c>Pt</c><c>   3</c></rc>
    <rc><c>Pt</c><c>   3</c></rc>
    <rc><c>Pt</c><c>   3</c></rc>
    <rc><c>Pt</c><c>   3</c></rc>
    <rc><c>Pt</c><c>   3</c></rc>
    <rc><c>Pt</c><c>   3</c></rc>
   </set>
  </array>
  <array name="atomtypes" >
   <dimension dim="1">type</dimension>
   <field type="int">atomspertype</field>
   <field type="string">element</field>
   <field>mass</field>
   <field>valence</field>
   <field type="string">pseudopotential</field>
   <set>
    <rc><c>   1</c><c>C </c><c>     12.01100000</c><c>      4.00000000</c><c> PAW_PBE C 08Apr2002                    </c></rc>
    <rc><c>   2</c><c>O </c><c>     16.00000000</c><c>      6.00000000</c><c> PAW_PBE O 08Apr2002                    </c></rc>
    <rc><c>  36</c><c>Pt</c><c>    195.08000000</c><c>     10.00000000</c><c>  PAW_PBE Pt 04Feb2005                  </c></rc>
   </set>
  </array>
 </atominfo>
 <structure name="initialpos" >
  <crystal>
   <varray name="basis" >
    <v>       7.29695512      -4.21289900       0.00000000 </v>
    <v>       0.00000000       8.42579800       0.00000000 </v>
    <v>       0.00000000       0.00000000      21.87963500 </v>
   </varray>
   <i name="volume">   1345.21837528 </i>
   <varray name="rec_basis" >
    <v>       0.13704346       0.00000000       0.00000000 </v>
    <v>       0.06852173       0.11868312       0.00000000 </v>
    <v>       0.00000000       0.00000000       0.04570460 </v>
   </varray>
  </crystal>
  <varray name="positions" >
   <v>       0.70711691       0.43512319       0.47790267 </v>
   <v>       0.90433981       0.38724542       0.46886456 </v>
   <v>       0.67898036       0.46197908       0.52779120 </v>
   <v>       0.98675500       0.32859100       0.07437600 </v>
   <v>       0.32008800       0.32859100       0.07437600 </v>
   <v>       0.65342200       0.32859100       0.07437600 </v>
   <v>       0.98675500       0.66192500       0.07437600 </v>
   <v>       0.32008800       0.66192500       0.07437600 </v>
   <v>       0.65342200       0.66192500       0.07437600 </v>
   <v>       0.32008800       0.99525800       0.07437600 </v>
   <v>       0.65342200       0.99525800       0.07437600 </v>
   <v>       0.98675500       0.99525800       0.07437600 </v>
   <v>       0.20897700       0.10636900       0.17918600 </v>
   <v>       0.54231100       0.10636900       0.17918600 </v>
   <v>       0.87564400       0.10636900       0.17918600 </v>
   <v>       0.20897700       0.43970300       0.17918600 </v>
   <v>       0.54231100       0.43970300       0.17918600 </v>
   <v>       0.87564400       0.43970300       0.17918600 </v>
   <v>       0.20897700       0.77303600       0.17918600 </v>
   <v>       0.54231100       0.77303600       0.17918600 </v>
   <v>       0.87564400       0.77303600       0.17918600 </v>
   <v>       0.09775588       0.54380743       0.27994866 </v>
   <v>       0.43053364       0.88372563       0.28056481 </v>
   <v>       0.76593645       0.22120613       0.28637084 </v>
   <v>       0.09542164       0.21387775       0.28103910 </v>
   <v>       0.43421676       0.21628670       0.28012526 </v>
   <v>       0.09540618       0.88219971       0.28136667 </v>
   <v>       0.76538629       0.88083031       0.27884056 </v>
   <v>       0.43306770       0.54516889       0.28808215 </v>
   <v>       0.76845306       0.55081181       0.28730402 </v>
   <v>       0.32330533       0.66093334       0.38735056 </v>
   <v>       0.65271308       0.98815535       0.38497906 </v>
   <v>       0.31854626       0.32470141       0.38662687 </v>
   <v>       0.98938017       0.99321966       0.39177393 </v>
   <v>       0.32226322       0.98993708       0.38490076 </v>
   <v>       0.63878217       0.32392731       0.39605179 </v>
   <v>       0.99599978       0.66583258       0.38508569 </v>
   <v>       0.99517776       0.32502811       0.39282722 </v>
   <v>       0.65235108       0.66237131       0.38961188 </v>
  </varray>
  <varray name="selective"  type="logical" >
   <v type="logical" >  T  T  T </v>
   <v type="logical" >  T  T  T </v>
   <v type="logical" >  T  T  T </v>
   <v type="logical" >  F  F  F </v>
   <v type="logical" >  F  F  F </v>
   <v type="logical" >  F  F  F </v>
   <v type="logical" >  F  F  F </v>
   <v type="logical" >  F  F  F </v>
   <v type="logical" >  F  F  F </v>
   <v type="logical" >  F  F  F </v>
   <v type="logical" >  F  F  F </v>
   <v type="logical" >  F  F  F </v>
   <v type="logical" >  F  F  F </v>
   <v type="logical" >  F  F  F </v>
   <v type="logical" >  F  F  F </v>
   <v type="logical" >  F  F  F </v>
   <v type="logical" >  F  F  F </v>
   <v type="logical" >  F  F  F </v>
   <v type="logical" >  F  F  F </v>
   <v type="logical" >  F  F  F </v>
   <v type="logical" >  F  F  F </v>
   <v type="logical" >  T  T  T </v>
   <v type="logical" >  T  T  T </v>
   <v type="logical" >  T  T  T </v>
   <v type="logical" >  T  T  T </v>
   <v type="logical" >  T  T  T </v>
   <v type="logical" >  T  T  T </v>
   <v type="logical" >  T  T  T </v>
   <v type="logical" >  T  T  T </v>
   <v type="logical" >  T  T  T </v>
   <v type="logical" >  T  T  T </v>
   <v type="logical" >  T  T  T </v>
   <v type="logical" >  T  T  T </v>
   <v type="logical" >  T  T  T </v>
   <v type="logical" >  T  T  T </v>
   <v type="logical" >  T  T  T </v>
   <v type="logical" >  T  T  T </v>
   <v type="logical" >  T  T  T </v>
   <v type="logical" >  T  T  T </v>
  </varray>
  <nose>
   <v>      -3.00000000       0.00000000       0.00010000       0.00010000 </v>
  </nose>
 </structure>
 <calculation>
  <scstep>
   <time name="dav">   11.66   11.79</time>
   <time name="total">   11.84   12.01</time>
   <energy>
    <i name="alphaZ">    975.10247152 </i>
    <i name="ewald">  91076.85750103 </i>
    <i name="hartreedc">-120168.33951241 </i>
    <i name="XCdc">    189.49928985 </i>
    <i name="pawpsdc">  24789.08602224 </i>
    <i name="pawaedc"> -23775.73976456 </i>
    <i name="eentropy">      0.02704481 </i>
    <i name="bandstr">   2072.12505497 </i>
    <i name="atom">  27259.89416086 </i>
    <i name="e_fr_energy">   2418.51226831 </i>
    <i name="e_wo_entrp">   2418.48522350 </i>
    <i name="e_0_energy">   2418.50325337 </i>
   </energy>
  </scstep>
  <scstep>
   <time name="dav">   13.07   13.19</time>
   <time name="total">   13.07   13.19</time>
   <energy>
    <i name="e_fr_energy">    -64.33797402 </i>
    <i name="e_wo_entrp">    -64.32865986 </i>
    <i name="e_0_energy">    -64.33486930 </i>
   </energy>
  </scstep>
  <scstep>
   <time name="dav">   13.32   13.41</time>
   <time name="total">   13.32   13.42</time>
   <energy>
    <i name="e_fr_energy">   -240.81975527 </i>
    <i name="e_wo_entrp">   -240.82065935 </i>
    <i name="e_0_energy">   -240.82005663 </i>
   </energy>
  </scstep>
  <scstep>
   <time name="dav">   14.15   14.25</time>
   <time name="total">   14.15   14.25</time>
   <energy>
    <i name="e_fr_energy">   -248.38114017 </i>
    <i name="e_wo_entrp">   -248.39087107 </i>
    <i name="e_0_energy">   -248.38438380 </i>
   </energy>
  </scstep>
  <scstep>
   <time name="dav">   14.55   14.67</time>
   <time name="total">   15.22   15.34</time>
   <energy>
    <i name="e_fr_energy">   -248.61034499 </i>
    <i name="e_wo_entrp">   -248.62048540 </i>
    <i name="e_0_energy">   -248.61372513 </i>
   </energy>
  </scstep>
  <scstep>
   <time name="diag">    1.90    1.91</time>
   <time name="diis">    6.88    6.93</time>
   <time name="orth">    0.27    0.27</time>
   <time name="total">    9.91    9.98</time>
   <energy>
    <i name="e_fr_energy">   -245.72569588 </i>
    <i name="e_wo_entrp">   -245.52989582 </i>
    <i name="e_0_energy">   -245.66042920 </i>
   </energy>
  </scstep>
  <scstep>
   <time name="diag">    1.92    1.94</time>
   <time name="diis">    6.71    6.75</time>
   <time name="orth">    0.27    0.27</time>
   <time name="total">    9.78    9.85</time>
   <energy>
    <i name="e_fr_energy">   -238.21686513 </i>
    <i name="e_wo_entrp">   -238.11692156 </i>
    <i name="e_0_energy">   -238.18355061 </i>
   </energy>
  </scstep>
  <scstep>
   <time name="diag">    1.77    1.79</time>
   <time name="diis">    6.11    6.16</time>
   <time name="orth">    0.27    0.28</time>
   <time name="total">    9.08    9.14</time>
   <energy>
    <i name="e_fr_energy">   -239.77069182 </i>
    <i name="e_wo_entrp">   -239.83650089 </i>
    <i name="e_0_energy">   -239.79262818 </i>
   </energy>
  </scstep>
  <scstep>
   <time name="diag">    1.88    1.89</time>
   <time name="diis">    6.77    6.82</time>
   <time name="orth">    0.26    0.26</time>
   <time name="total">    9.84    9.91</time>
   <energy>
    <i name="e_fr_energy">   -232.85015286 </i>
    <i name="e_wo_entrp">   -232.79512372 </i>
    <i name="e_0_energy">   -232.83180981 </i>
   </energy>
  </scstep>
  <scstep>
   <time name="diag">    1.95    1.97</time>
   <time name="diis">    6.76    6.81</time>
   <time name="orth">    0.27    0.27</time>
   <time name="total">    9.85    9.91</time>
   <energy>
    <i name="e_fr_energy">   -230.89040435 </i>
    <i name="e_wo_entrp">   -230.87698155 </i>
    <i name="e_0_energy">   -230.88593008 </i>
   </energy>
  </scstep>
  <scstep>
   <time name="diag">    1.95    1.96</time>
   <time name="diis">    6.76    6.80</time>
   <time name="orth">    0.27    0.27</time>
   <time name="total">    9.85    9.92</time>
   <energy>
    <i name="e_fr_energy">   -230.46300933 </i>
    <i name="e_wo_entrp">   -230.46192801 </i>
    <i name="e_0_energy">   -230.46264889 </i>
   </energy>
  </scstep>
  <scstep>
   <time name="diag">    1.93    1.95</time>
   <time name="diis">    6.98    7.03</time>
   <time name="orth">    0.27    0.27</time>
   <time name="total">   10.23   10.30</time>
   <energy>
    <i name="e_fr_energy">   -230.34230132 </i>
    <i name="e_wo_entrp">   -230.31064234 </i>
    <i name="e_0_energy">   -230.33174833 </i>
   </energy>
  </scstep>
  <scstep>
   <time name="diag">    2.03    2.05</time>
   <time name="diis">    6.99    7.04</time>
   <time name="orth">    0.27    0.27</time>
   <time name="total">   10.26   10.34</time>
   <energy>
    <i name="e_fr_energy">   -230.27610924 </i>
    <i name="e_wo_entrp">   -230.26774312 </i>
    <i name="e_0_energy">   -230.27332053 </i>
   </energy>
  </scstep>
  <scstep>
   <time name="diag">    1.98    1.99</time>
   <time name="diis">    6.65    6.70</time>
   <time name="orth">    0.28    0.28</time>
   <time name="total">    9.89    9.96</time>
   <energy>
    <i name="e_fr_energy">   -230.23596306 </i>
    <i name="e_wo_entrp">   -230.23419170 </i>
    <i name="e_0_energy">   -230.23537261 </i>
   </energy>
  </scstep>
  <scstep>
   <time name="diag">    2.04    2.05</time>
   <time name="diis">    7.16    7.20</time>
   <time name="orth">    0.26    0.27</time>
   <time name="total">   10.38   10.45</time>
   <energy>
    <i name="e_fr_energy">   -230.22670356 </i>
    <i name="e_wo_entrp">   -230.22332442 </i>
    <i name="e_0_energy">   -230.22557718 </i>
   </energy>
  </scstep>
  <scstep>
   <time name="diag">    1.95    1.96</time>
   <time name="diis">    6.95    6.99</time>
   <time name="orth">    0.27    0.28</time>
   <time name="total">   10.06   10.12</time>
   <energy>
    <i name="e_fr_energy">   -230.22377059 </i>
    <i name="e_wo_entrp">   -230.22183422 </i>
    <i name="e_0_energy">   -230.22312513 </i>
   </energy>
  </scstep>
  <scstep>
   <time name="diag">    1.95    1.97</time>
   <time name="diis">    5.64    5.68</time>
   <time name="orth">    0.21    0.21</time>
   <time name="total">    8.45    8.51</time>
   <energy>
    <i name="e_fr_energy">   -230.22310408 </i>
    <i name="e_wo_entrp">   -230.21958913 </i>
    <i name="e_0_energy">   -230.22193243 </i>
   </energy>
  </scstep>
  <scstep>
   <time name="diag">    1.50    1.51</time>
   <time name="diis">    4.97    5.00</time>
   <time name="orth">    0.21    0.21</time>
   <time name="total">    7.30    7.34</time>
   <energy>
    <i name="e_fr_energy">   -230.22300913 </i>
    <i name="e_wo_entrp">   -230.22038168 </i>
    <i name="e_0_energy">   -230.22213331 </i>
   </energy>
  </scstep>
  <scstep>
   <time name="diag">    1.48    1.49</time>
   <time name="diis">    4.57    4.60</time>
   <time name="orth">    0.22    0.22</time>
   <time name="total">    6.86    6.91</time>
   <energy>
    <i name="e_fr_energy">   -230.22287242 </i>
    <i name="e_wo_entrp">   -230.22013864 </i>
    <i name="e_0_energy">   -230.22196116 </i>
   </energy>
  </scstep>
  <scstep>
   <time name="diag">    1.53    1.54</time>
   <time name="diis">    3.09    3.11</time>
   <time name="orth">    0.26    0.26</time>
   <time name="total">    5.41    5.45</time>
   <energy>
    <i name="e_fr_energy">   -230.22307375 </i>
    <i name="e_wo_entrp">   -230.22017671 </i>
    <i name="e_0_energy">   -230.22210807 </i>
   </energy>
  </scstep>
  <scstep>
   <time name="diag">    1.52    1.53</time>
   <time name="diis">    3.19    3.21</time>
   <time name="orth">    0.24    0.24</time>
   <time name="total">    5.58    5.61</time>
   <energy>
    <i name="e_fr_energy">   -230.22325751 </i>
    <i name="e_wo_entrp">   -230.22045824 </i>
    <i name="e_0_energy">   -230.22232442 </i>
   </energy>
  </scstep>
  <scstep>
   <time name="diag">    1.52    1.53</time>
   <time name="diis">    3.11    3.13</time>
   <time name="orth">    0.22    0.22</time>
   <time name="total">    4.99    5.08</time>
   <energy>
    <i name="alphaZ">    975.10247152 </i>
    <i name="ewald">  91076.85750103 </i>
    <i name="hartreedc">-119777.64932398 </i>
    <i name="XCdc">    178.06508320 </i>
    <i name="pawpsdc">  30076.18455184 </i>
    <i name="pawaedc"> -29161.94763920 </i>
    <i name="eentropy">     -0.00282184 </i>
    <i name="bandstr">   -856.72733988 </i>
    <i name="atom">  27259.89416086 </i>
    <i name="e_fr_energy">   -230.22335646 </i>
    <i name="e_wo_entrp">   -230.22053462 </i>
    <i name="e_0_energy">   -230.22241585 </i>
   </energy>
  </scstep>
  <structure>
   <crystal>
    <varray name="basis" >
     <v>       7.29695512      -4.21289900       0.00000000 </v>
     <v>       0.00000000       8.42579800       0.00000000 </v>
     <v>       0.00000000       0.00000000      21.87963500 </v>
    </varray>
    <i name="volume">   1345.21837528 </i>
    <varray name="rec_basis" >
     <v>       0.13704346       0.00000000       0.00000000 </v>
     <v>       0.06852173       0.11868312       0.00000000 </v>
     <v>       0.00000000       0.00000000       0.04570460 </v>
    </varray>
   </crystal>
   <varray name="positions" >
    <v>       0.70711691       0.43512319       0.47790267 </v>
    <v>       0.90433981       0.38724542       0.46886456 </v>
    <v>       0.67898036       0.46197908       0.52779120 </v>
    <v>       0.98675500       0.32859100       0.07437600 </v>
    <v>       0.32008800       0.32859100       0.07437600 </v>
    <v>       0.65342200       0.32859100       0.07437600 </v>
    <v>       0.98675500       0.66192500       0.07437600 </v>
    <v>       0.32008800       0.66192500       0.07437600 </v>
    <v>       0.65342200       0.66192500       0.07437600 </v>
    <v>       0.32008800       0.99525800       0.07437600 </v>
    <v>       0.65342200       0.99525800       0.07437600 </v>
    <v>       0.98675500       0.99525800       0.07437600 </v>
    <v>       0.20897700       0.10636900       0.17918600 </v>
    <v>       0.54231100       0.10636900       0.17918600 </v>
    <v>       0.87564400       0.10636900       0.17918600 </v>
    <v>       0.20897700       0.43970300       0.17918600 </v>
    <v>       0.54231100       0.43970300       0.17918600 </v>
    <v>       0.87564400       0.43970300       0.17918600 </v>
    <v>       0.20897700       0.77303600       0.17918600 </v>
    <v>       0.54231100       0.77303600       0.17918600 </v>
    <v>       0.87564400       0.77303600       0.17918600 </v>
    <v>       0.09775588       0.54380743       0.27994866 </v>
    <v>       0.43053364       0.88372563       0.28056481 </v>
    <v>       0.76593645       0.22120613       0.28637084 </v>
    <v>       0.09542164       0.21387775       0.28103910 </v>
    <v>       0.43421676       0.21628670       0.28012526 </v>
    <v>       0.09540618       0.88219971       0.28136667 </v>
    <v>       0.76538629       0.88083031       0.27884056 </v>
    <v>       0.43306770       0.54516889       0.28808215 </v>
    <v>       0.76845306       0.55081181       0.28730402 </v>
    <v>       0.32330533       0.66093334       0.38735056 </v>
    <v>       0.65271308       0.98815535       0.38497906 </v>
    <v>       0.31854626       0.32470141       0.38662687 </v>
    <v>       0.98938017       0.99321966       0.39177393 </v>
    <v>       0.32226322       0.98993708       0.38490076 </v>
    <v>       0.63878217       0.32392731       0.39605179 </v>
    <v>       0.99599978       0.66583258       0.38508569 </v>
    <v>       0.99517776       0.32502811       0.39282722 </v>
    <v>       0.65235108       0.66237131       0.38961188 </v>
   </varray>
  </structure>
  <varray name="forces" >
   <v>      -0.16212689      -1.66581656      -1.06402285 </v>
   <v>       0.33419116       0.26103633      -0.26831226 </v>
   <v>       0.25031752       0.33628468       0.17388620 </v>
   <v>      -0.01544199      -0.08516576       0.07459342 </v>
   <v>      -0.08711013      -0.00998810       0.13667839 </v>
   <v>       0.00683556      -0.04174272       0.16739284 </v>
   <v>       0.01401318       0.06565309       0.14767468 </v>
   <v>       0.00018953       0.00304527       0.20265775 </v>
   <v>       0.00607805      -0.00982516       0.21253318 </v>
   <v>      -0.02072381      -0.01823349       0.04689269 </v>
   <v>       0.03368220       0.08491896       0.11438247 </v>
   <v>       0.05048098       0.02797768       0.00626861 </v>
   <v>      -0.03432067      -0.06440064      -0.50063406 </v>
   <v>       0.24656282      -0.00896307      -0.29637102 </v>
   <v>      -0.01474602       0.17238544      -0.35121162 </v>
   <v>       0.27119634      -0.13622079      -0.21323147 </v>
   <v>       0.14141996       0.17615548       0.16770911 </v>
   <v>      -0.22742793       0.04630587       0.05101638 </v>
   <v>      -0.07041388       0.01796830      -0.44604305 </v>
   <v>      -0.19451084      -0.23604233      -0.16124643 </v>
   <v>      -0.00952322      -0.21957746      -0.42164658 </v>
   <v>       0.14308106       0.26626715       0.75016012 </v>
   <v>       0.11710756      -0.32376620       0.31783587 </v>
   <v>      -0.13645103      -0.22308467      -0.22065653 </v>
   <v>      -0.12409040       0.27501282       0.92408921 </v>
   <v>       0.05449952       0.07766435       0.81412320 </v>
   <v>       0.13452457      -0.08913414       0.35198684 </v>
   <v>      -0.10434035       0.21301659       1.11302214 </v>
   <v>       0.02310301       0.35232333      -1.18875902 </v>
   <v>      -0.33267060      -0.11468839      -0.77597095 </v>
   <v>      -0.08969022       0.17647783      -0.13094302 </v>
   <v>       0.08503178       0.02476832      -0.02131611 </v>
   <v>      -0.23473501      -0.44395051       0.09502711 </v>
   <v>      -0.16274820      -0.04857960      -0.73050871 </v>
   <v>      -0.13134134       0.22614417       0.10210180 </v>
   <v>      -0.05901888       0.44133139       0.25587824 </v>
   <v>       0.11006690       0.18878478       0.21401102 </v>
   <v>      -0.30379194       0.03506412       0.43931539 </v>
   <v>       0.49284167       0.27059363      -0.08836297 </v>
  </varray>
  <varray name="stress" >
   <v>     -43.23006594       1.75000120       1.48671754 </v>
   <v>       1.75000117     -46.35637611      -1.70020945 </v>
   <v>       1.48671751      -1.70020935      -6.25334873 </v>
  </varray>
  <energy>
   <i name="e_fr_energy">   -230.22335646 </i>
   <i name="e_wo_entrp">   -230.22241585 </i>
   <i name="e_0_energy">     -0.00282184 </i>
  </energy>
  <time name="totalsc">  232.78  234.96</time>
 </calculation>
 <calculation>
  <scstep>
   <time name="dav">   12.65   12.84</time>
   <time name="total">   13.82   14.15</time>
   <energy>
    <i name="alphaZ">    975.10247152 </i>
    <i name="ewald">  91070.61996450 </i>
    <i name="hartreedc">-119774.40597063 </i>
    <i name="XCdc">    177.99832107 </i>
    <i name="pawpsdc">  30074.31732316 </i>
    <i name="pawaedc"> -29160.05747027 </i>
    <i name="eentropy">     -0.00464835 </i>
    <i name="bandstr">   -853.83028822 </i>
    <i name="atom">  27259.89416086 </i>
    <i name="e_fr_energy">   -230.36613635 </i>
    <i name="e_wo_entrp">   -230.36148800 </i>
    <i name="e_0_energy">   -230.36458690 </i>
   </energy>
  </scstep>
  <scstep>
   <time name="diag">    2.09    2.12</time>
   <time name="diis">    7.23    7.32</time>
   <time name="orth">    0.27    0.27</time>
   <time name="total">   10.63   10.76</time>
   <energy>
    <i name="e_fr_energy">   -230.40645430 </i>
    <i name="e_wo_entrp">   -230.40523596 </i>
    <i name="e_0_energy">   -230.40604819 </i>
   </energy>
  </scstep>
  <scstep>
   <time name="diag">    2.09    2.12</time>
   <time name="diis">    7.28    7.35</time>
   <time name="orth">    0.27    0.27</time>
   <time name="total">   10.63   10.74</time>
   <energy>
    <i name="e_fr_energy">   -230.40962861 </i>
    <i name="e_wo_entrp">   -230.39974919 </i>
    <i name="e_0_energy">   -230.40633547 </i>
   </energy>
  </scstep>
  <scstep>
   <time name="diag">    2.08    2.09</time>
   <time name="diis">    7.41    7.46</time>
   <time name="orth">    0.27    0.28</time>
   <time name="total">   10.73   10.81</time>
   <energy>
    <i name="e_fr_energy">   -230.39741784 </i>
    <i name="e_wo_entrp">   -230.39223231 </i>
    <i name="e_0_energy">   -230.39568933 </i>
   </energy>
  </scstep>
  <scstep>
   <time name="diag">    2.14    2.16</time>
   <time name="diis">    7.32    7.38</time>
   <time name="orth">    0.27    0.27</time>
   <time name="total">   10.69   10.78</time>
   <energy>
    <i name="e_fr_energy">   -230.39567595 </i>
    <i name="e_wo_entrp">   -230.39239714 </i>
    <i name="e_0_energy">   -230.39458301 </i>
   </energy>
  </scstep>
  <scstep>
   <time name="diag">    2.04    2.06</time>
   <time name="diis">    7.21    7.26</time>
   <time name="orth">    0.28    0.28</time>
   <time name="total">   10.52   10.59</time>
   <energy>
    <i name="e_fr_energy">   -230.39507265 </i>
    <i name="e_wo_entrp">   -230.38918343 </i>
    <i name="e_0_energy">   -230.39310958 </i>
   </energy>
  </scstep>
  <scstep>
   <time name="diag">    2.07    2.08</time>
   <time name="diis">    7.18    7.23</time>
   <time name="orth">    0.27    0.27</time>
   <time name="total">   10.50   10.57</time>
   <energy>
    <i name="e_fr_energy">   -230.39390869 </i>
    <i name="e_wo_entrp">   -230.38943614 </i>
    <i name="e_0_energy">   -230.39241784 </i>
   </energy>
  </scstep>
  <scstep>
   <time name="diag">    2.07    2.08</time>
   <time name="diis">    6.53    6.57</time>
   <time name="orth">    0.27    0.27</time>
   <time name="total">    9.96   10.03</time>
   <energy>
    <i name="e_fr_energy">   -230.39370214 </i>
    <i name="e_wo_entrp">   -230.38885565 </i>
    <i name="e_0_energy">   -230.39208665 </i>
   </energy>
  </scstep>
  <scstep>
   <time name="diag">    2.03    2.04</time>
   <time name="diis">    4.48    4.51</time>
   <time name="orth">    0.29    0.29</time>
   <time name="total">    6.98    7.02</time>
   <energy>
    <i name="alphaZ">    975.10247152 </i>
    <i name="ewald">  91070.61996450 </i>
    <i name="hartreedc">-119767.89722311 </i>
    <i name="XCdc">    177.93401017 </i>
    <i name="pawpsdc">  30068.04861607 </i>
    <i name="pawaedc"> -29153.80505355 </i>
    <i name="eentropy">     -0.00471878 </i>
    <i name="bandstr">   -860.28590797 </i>
    <i name="atom">  27259.89416086 </i>
    <i name="e_fr_energy">   -230.39368029 </i>
    <i name="e_wo_entrp">   -230.38896151 </i>
    <i name="e_0_energy">   -230.39210737 </i>
   </energy>
  </scstep>
  <structure>
   <crystal>
    <varray name="basis" >
     <v>       7.29695512      -4.21289900       0.00000000 </v>
     <v>       0.00000000       8.42579800       0.00000000 </v>
     <v>       0.00000000       0.00000000      21.87963500 </v>
    </varray>
    <i name="volume">   1345.21837528 </i>
    <varray name="rec_basis" >
     <v>       0.13704346       0.00000000       0.00000000 </v>
     <v>       0.06852173       0.11868312       0.00000000 </v>
     <v>       0.00000000       0.00000000       0.04570460 </v>
    </varray>
   </crystal>
   <varray name="positions" >
    <v>       0.70668816       0.43109371       0.47696424 </v>
    <v>       0.90522359       0.38828515       0.46862792 </v>
    <v>       0.67964234       0.46308023       0.52794456 </v>
    <v>       0.98675500       0.32859100       0.07437600 </v>
    <v>       0.32008800       0.32859100       0.07437600 </v>
    <v>       0.65342200       0.32859100       0.07437600 </v>
    <v>       0.98675500       0.66192500       0.07437600 </v>
    <v>       0.32008800       0.66192500       0.07437600 </v>
    <v>       0.65342200       0.66192500       0.07437600 </v>
    <v>       0.32008800       0.99525800       0.07437600 </v>
    <v>       0.65342200       0.99525800       0.07437600 </v>
    <v>       0.98675500       0.99525800       0.07437600 </v>
    <v>       0.20897700       0.10636900       0.17918600 </v>
    <v>       0.54231100       0.10636900       0.17918600 </v>
    <v>       0.87564400       0.10636900       0.17918600 </v>
    <v>       0.20897700       0.43970300       0.17918600 </v>
    <v>       0.54231100       0.43970300       0.17918600 </v>
    <v>       0.87564400       0.43970300       0.17918600 </v>
    <v>       0.20897700       0.77303600       0.17918600 </v>
    <v>       0.54231100       0.77303600       0.17918600 </v>
    <v>       0.87564400       0.77303600       0.17918600 </v>
    <v>       0.09813426       0.54460643       0.28061028 </v>
    <v>       0.43084333       0.88313898       0.28084513 </v>
    <v>       0.76557560       0.22051479       0.28617623 </v>
    <v>       0.09509348       0.21434351       0.28185412 </v>
    <v>       0.43436089       0.21653663       0.28084328 </v>
    <v>       0.09576194       0.88217345       0.28167711 </v>
    <v>       0.76511036       0.88118020       0.27982221 </v>
    <v>       0.43312880       0.54600634       0.28703371 </v>
    <v>       0.76757330       0.55010927       0.28661964 </v>
    <v>       0.32306814       0.66121893       0.38723507 </v>
    <v>       0.65293795       0.98832451       0.38496026 </v>
    <v>       0.31792550       0.32337427       0.38671068 </v>
    <v>       0.98894978       0.99289321       0.39112964 </v>
    <v>       0.32191589       0.99028134       0.38499081 </v>
    <v>       0.63862609       0.32486002       0.39627747 </v>
    <v>       0.99629085       0.66641048       0.38527444 </v>
    <v>       0.99437438       0.32470672       0.39321468 </v>
    <v>       0.65365442       0.66364270       0.38953395 </v>
   </varray>
  </structure>
  <varray name="forces" >
   <v>      -0.34555046      -0.69459664       1.89182408 </v>
   <v>       0.24267053       0.40089957      -0.02977781 </v>
   <v>       0.66524845      -0.59207767      -2.42975766 </v>
   <v>      -0.00898600      -0.07500118       0.08860749 </v>
   <v>      -0.07945141      -0.01392781       0.13720764 </v>
   <v>       0.00050491      -0.03644369       0.16813222 </v>
   <v>       0.01620848       0.06082826       0.14041806 </v>
   <v>      -0.00381168       0.00902298       0.18720464 </v>
   <v>       0.00817415      -0.00583998       0.20394934 </v>
   <v>      -0.01609097      -0.02279027       0.04243633 </v>
   <v>       0.02582249       0.07741705       0.11510574 </v>
   <v>       0.04115721       0.02416539       0.01548852 </v>
   <v>      -0.04152893      -0.04098726      -0.40250648 </v>
   <v>       0.20889137       0.00300540      -0.23420754 </v>
   <v>       0.00253450       0.12305022      -0.27090181 </v>
   <v>       0.21146836      -0.13138999      -0.16234488 </v>
   <v>       0.11504209       0.13372501       0.13825970 </v>
   <v>      -0.18586450       0.02790481       0.07129835 </v>
   <v>      -0.06800276       0.02148680      -0.39560069 </v>
   <v>      -0.13320539      -0.20495330      -0.15539677 </v>
   <v>      -0.00578657      -0.15203834      -0.34960520 </v>
   <v>       0.07358703       0.20639015       0.59962030 </v>
   <v>       0.08231378      -0.21955146       0.23055133 </v>
   <v>      -0.09159189      -0.16597682      -0.19003179 </v>
   <v>      -0.09763809       0.25047655       0.73314435 </v>
   <v>       0.02412958       0.05313443       0.63190948 </v>
   <v>       0.09627468      -0.06357898       0.24032647 </v>
   <v>      -0.04174552       0.14559302       0.82048514 </v>
   <v>      -0.00612684       0.26127863      -0.88714467 </v>
   <v>      -0.24430781      -0.08243375      -0.60808145 </v>
   <v>      -0.04162868       0.08706478      -0.12933004 </v>
   <v>       0.04242850       0.08069845       0.05529810 </v>
   <v>      -0.14101829      -0.25557069       0.04716029 </v>
   <v>      -0.14072735      -0.03918556      -0.58857272 </v>
   <v>      -0.08248384       0.18306968       0.13761383 </v>
   <v>      -0.18682541       0.30714000      -0.14249170 </v>
   <v>       0.02473969       0.14836764       0.17326105 </v>
   <v>      -0.26222504      -0.00576671       0.27738634 </v>
   <v>       0.34340164       0.19739127      -0.17093763 </v>
  </varray>
  <varray name="stress" >
   <v>     -43.76795092       2.04294562       2.38662134 </v>
   <v>       2.04294560     -47.09238059      -2.56276636 </v>
   <v>       2.38662125      -2.56276645      -9.10532313 </v>
  </varray>
  <energy>
   <i name="e_fr_energy">   -230.39368029 </i>
   <i name="e_wo_entrp">   -230.39210737 </i>
   <i name="e_0_energy">     -0.00471878 </i>
  </energy>
  <time name="totalsc">  111.47  113.38</time>
 </calculation>
 <calculation>
  <scstep>
   <time name="dav">   12.47   12.58</time>
   <time name="total">   13.57   13.76</time>
   <energy>
    <i name="alphaZ">    975.10247152 </i>
    <i name="ewald">  91088.31529934 </i>
    <i name="hartreedc">-119782.66556635 </i>
    <i name="XCdc">    178.04783393 </i>
    <i name="pawpsdc">  30068.05696574 </i>
    <i name="pawaedc"> -29153.81281607 </i>
    <i name="eentropy">     -0.00575519 </i>
    <i name="bandstr">   -863.39259702 </i>
    <i name="atom">  27259.89416086 </i>
    <i name="e_fr_energy">   -230.46000322 </i>
    <i name="e_wo_entrp">   -230.45424803 </i>
    <i name="e_0_energy">   -230.45808482 </i>
   </energy>
  </scstep>
  <scstep>
   <time name="diag">    2.05    2.06</time>
   <time name="diis">    7.12    7.17</time>
   <time name="orth">    0.28    0.28</time>
   <time name="total">   10.46   10.53</time>
   <energy>
    <i name="e_fr_energy">   -230.47746964 </i>
    <i name="e_wo_entrp">   -230.47314265 </i>
    <i name="e_0_energy">   -230.47602731 </i>
   </energy>
  </scstep>
  <scstep>
   <time name="diag">    2.05    2.06</time>
   <time name="diis">    7.22    7.27</time>
   <time name="orth">    0.27    0.27</time>
   <time name="total">   10.52   10.60</time>
   <energy>
    <i name="e_fr_energy">   -230.47676456 </i>
    <i name="e_wo_entrp">   -230.46926367 </i>
    <i name="e_0_energy">   -230.47426426 </i>
   </energy>
  </scstep>
  <scstep>
   <time name="diag">    1.98    1.99</time>
   <time name="diis">    7.01    7.06</time>
   <time name="orth">    0.28    0.28</time>
   <time name="total">   10.23   10.30</time>
   <energy>
    <i name="e_fr_energy">   -230.47409452 </i>
    <i name="e_wo_entrp">   -230.46912632 </i>
    <i name="e_0_energy">   -230.47243845 </i>
   </energy>
  </scstep>
  <scstep>
   <time name="diag">    1.99    2.00</time>
   <time name="diis">    7.22    7.27</time>
   <time name="orth">    0.29    0.29</time>
   <time name="total">   10.50   10.57</time>
   <energy>
    <i name="e_fr_energy">   -230.47395521 </i>
    <i name="e_wo_entrp">   -230.46935731 </i>
    <i name="e_0_energy">   -230.47242257 </i>
   </energy>
  </scstep>
  <scstep>
   <time name="diag">    2.05    2.06</time>
   <time name="diis">    6.96    7.01</time>
   <time name="orth">    0.27    0.27</time>
   <time name="total">   10.21   10.28</time>
   <energy>
    <i name="e_fr_energy">   -230.47285590 </i>
    <i name="e_wo_entrp">   -230.46682600 </i>
    <i name="e_0_energy">   -230.47084593 </i>
   </energy>
  </scstep>
  <scstep>
   <time name="diag">    2.06    2.07</time>
   <time name="diis">    6.78    6.83</time>
   <time name="orth">    0.27    0.27</time>
   <time name="total">   10.24   10.32</time>
   <energy>
    <i name="e_fr_energy">   -230.47246148 </i>
    <i name="e_wo_entrp">   -230.46745499 </i>
    <i name="e_0_energy">   -230.47079265 </i>
   </energy>
  </scstep>
  <scstep>
   <time name="diag">    2.06    2.08</time>
   <time name="diis">    4.37    4.40</time>
   <time name="orth">    0.27    0.27</time>
   <time name="total">    6.90    6.95</time>
   <energy>
    <i name="alphaZ">    975.10247152 </i>
    <i name="ewald">  91088.31529934 </i>
    <i name="hartreedc">-119788.75526483 </i>
    <i name="XCdc">    178.12891328 </i>
    <i name="pawpsdc">  30073.46657385 </i>
    <i name="pawaedc"> -29159.23048271 </i>
    <i name="eentropy">     -0.00518505 </i>
    <i name="bandstr">   -857.38884824 </i>
    <i name="atom">  27259.89416086 </i>
    <i name="e_fr_energy">   -230.47236197 </i>
    <i name="e_wo_entrp">   -230.46717692 </i>
    <i name="e_0_energy">   -230.47063362 </i>
   </energy>
  </scstep>
  <structure>
   <crystal>
    <varray name="basis" >
     <v>       7.29695512      -4.21289900       0.00000000 </v>
     <v>       0.00000000       8.42579800       0.00000000 </v>
     <v>       0.00000000       0.00000000      21.87963500 </v>
    </varray>
    <i name="volume">   1345.21837528 </i>
    <varray name="rec_basis" >
     <v>       0.13704346       0.00000000       0.00000000 </v>
     <v>       0.06852173       0.11868312       0.00000000 </v>
     <v>       0.00000000       0.00000000       0.04570460 </v>
    </varray>
   </crystal>
   <varray name="positions" >
    <v>       0.70631095       0.43024846       0.47765297 </v>
    <v>       0.90548850       0.38879659       0.46861708 </v>
    <v>       0.68036853       0.46288360       0.52705999 </v>
    <v>       0.98675500       0.32859100       0.07437600 </v>
    <v>       0.32008800       0.32859100       0.07437600 </v>
    <v>       0.65342200       0.32859100       0.07437600 </v>
    <v>       0.98675500       0.66192500       0.07437600 </v>
    <v>       0.32008800       0.66192500       0.07437600 </v>
    <v>       0.65342200       0.66192500       0.07437600 </v>
    <v>       0.32008800       0.99525800       0.07437600 </v>
    <v>       0.65342200       0.99525800       0.07437600 </v>
    <v>       0.98675500       0.99525800       0.07437600 </v>
    <v>       0.20897700       0.10636900       0.17918600 </v>
    <v>       0.54231100       0.10636900       0.17918600 </v>
    <v>       0.87564400       0.10636900       0.17918600 </v>
    <v>       0.20897700       0.43970300       0.17918600 </v>
    <v>       0.54231100       0.43970300       0.17918600 </v>
    <v>       0.87564400       0.43970300       0.17918600 </v>
    <v>       0.20897700       0.77303600       0.17918600 </v>
    <v>       0.54231100       0.77303600       0.17918600 </v>
    <v>       0.87564400       0.77303600       0.17918600 </v>
    <v>       0.09821459       0.54484171       0.28082857 </v>
    <v>       0.43093319       0.88297635       0.28092906 </v>
    <v>       0.76547562       0.22030789       0.28610705 </v>
    <v>       0.09498689       0.21452701       0.28212102 </v>
    <v>       0.43438723       0.21660004       0.28107334 </v>
    <v>       0.09586703       0.88216589       0.28176460 </v>
    <v>       0.76506479       0.88129506       0.28012091 </v>
    <v>       0.43312211       0.54625000       0.28671074 </v>
    <v>       0.76730661       0.54989799       0.28639827 </v>
    <v>       0.32302270       0.66127851       0.38718799 </v>
    <v>       0.65298426       0.98842396       0.38498039 </v>
    <v>       0.31777156       0.32305570       0.38672784 </v>
    <v>       0.98879616       0.99277935       0.39091537 </v>
    <v>       0.32182585       0.99040939       0.38504091 </v>
    <v>       0.63842215       0.32504841       0.39622559 </v>
    <v>       0.99631786       0.66656424       0.38533752 </v>
    <v>       0.99408813       0.32455815       0.39331567 </v>
    <v>       0.65402928       0.66401674       0.38947172 </v>
   </varray>
  </structure>
  <varray name="forces" >
   <v>      -0.00601894      -1.56455843      -0.88942783 </v>
   <v>       0.30500087       0.34880026      -0.03983913 </v>
   <v>       0.21329991       0.30980565       0.26857344 </v>
   <v>      -0.00659305      -0.07413860       0.09321942 </v>
   <v>      -0.07857160      -0.01721253       0.13991542 </v>
   <v>      -0.00235216      -0.03475269       0.16391015 </v>
   <v>       0.01732370       0.06142423       0.13743097 </v>
   <v>      -0.00613142       0.01047701       0.18078189 </v>
   <v>       0.01052618      -0.00505908       0.19953520 </v>
   <v>      -0.01707666      -0.02351531       0.04102100 </v>
   <v>       0.02513777       0.07422811       0.11433866 </v>
   <v>       0.03923405       0.02286463       0.02431314 </v>
   <v>      -0.04158350      -0.03401163      -0.36640957 </v>
   <v>       0.19554760       0.00726936      -0.21702349 </v>
   <v>       0.01041204       0.10956701      -0.24361447 </v>
   <v>       0.19209105      -0.12918327      -0.14525642 </v>
   <v>       0.10592434       0.12026053       0.13087893 </v>
   <v>      -0.17112844       0.02301300       0.07733983 </v>
   <v>      -0.06834395       0.02059582      -0.38074736 </v>
   <v>      -0.11565365      -0.19602156      -0.15341959 </v>
   <v>      -0.00385667      -0.13390103      -0.32953299 </v>
   <v>       0.05637849       0.18909926       0.55335407 </v>
   <v>       0.06984333      -0.19228415       0.21031636 </v>
   <v>      -0.08327494      -0.15090611      -0.18337561 </v>
   <v>      -0.08842890       0.24404254       0.66172384 </v>
   <v>       0.02096120       0.04704193       0.58167368 </v>
   <v>       0.08550300      -0.05757771       0.20781702 </v>
   <v>      -0.02792016       0.12533559       0.73390676 </v>
   <v>      -0.01239647       0.23843753      -0.80095026 </v>
   <v>      -0.21686811      -0.06721881      -0.55900675 </v>
   <v>      -0.03130684       0.06615738      -0.12495661 </v>
   <v>       0.03230003       0.09793369       0.07814113 </v>
   <v>      -0.11792936      -0.19876069       0.03546465 </v>
   <v>      -0.13757114      -0.03857942      -0.54178054 </v>
   <v>      -0.07581165       0.16506150       0.14980880 </v>
   <v>      -0.12094899       0.33818951      -0.03381917 </v>
   <v>       0.00162904       0.13508067       0.15127646 </v>
   <v>      -0.24948910      -0.00752274       0.27745738 </v>
   <v>       0.29814310       0.17051857      -0.20303840 </v>
  </varray>
  <varray name="stress" >
   <v>     -43.79279186       1.69111845       1.59781398 </v>
   <v>       1.69111849     -46.74306260      -1.47030745 </v>
   <v>       1.59781391      -1.47030738      -5.84839532 </v>
  </varray>
  <energy>
   <i name="e_fr_energy">   -230.47236197 </i>
   <i name="e_wo_entrp">   -230.47063362 </i>
   <i name="e_0_energy">     -0.00518505 </i>
  </energy>
  <time name="totalsc">   99.31  100.60</time>
 </calculation>
 <calculation>
  <scstep>
