metal                                   
           1
     7.296955   -4.212899    0.000000
     0.000000    8.425798    0.000000
     0.000000    0.000000   21.879635
   C    O    Pt
   1   2  36
Direct configuration=     1
   0.70711691  0.43512319  0.47790267
   0.90433981  0.38724542  0.46886456
   0.67898036  0.46197908  0.52779120
   0.98675500  0.32859100  0.07437600
   0.32008800  0.32859100  0.07437600
   0.65342200  0.32859100  0.07437600
   0.98675500  0.66192500  0.07437600
   0.32008800  0.66192500  0.07437600
   0.65342200  0.66192500  0.07437600
   0.32008800  0.99525800  0.07437600
   0.65342200  0.99525800  0.07437600
   0.98675500  0.99525800  0.07437600
   0.20897700  0.10636900  0.17918600
   0.54231100  0.10636900  0.17918600
   0.87564400  0.10636900  0.17918600
   0.20897700  0.43970300  0.17918600
   0.54231100  0.43970300  0.17918600
   0.87564400  0.43970300  0.17918600
   0.20897700  0.77303600  0.17918600
   0.54231100  0.77303600  0.17918600
   0.87564400  0.77303600  0.17918600
   0.09775588  0.54380743  0.27994866
   0.43053364  0.88372563  0.28056481
   0.76593645  0.22120613  0.28637084
   0.09542164  0.21387775  0.28103910
   0.43421676  0.21628670  0.28012526
   0.09540618  0.88219971  0.28136667
   0.76538629  0.88083031  0.27884056
   0.43306770  0.54516889  0.28808215
   0.76845306  0.55081181  0.28730402
   0.32330533  0.66093334  0.38735056
   0.65271308  0.98815535  0.38497906
   0.31854626  0.32470141  0.38662687
   0.98938017  0.99321966  0.39177393
   0.32226322  0.98993708  0.38490076
   0.63878217  0.32392731  0.39605179
   0.99599978  0.66583258  0.38508569
   0.99517776  0.32502811  0.39282722
   0.65235108  0.66237131  0.38961188
Direct configuration=     2
   0.70668816  0.43109371  0.47696424
   0.90522359  0.38828515  0.46862792
   0.67964234  0.46308023  0.52794456
   0.98675500  0.32859100  0.07437600
   0.32008800  0.32859100  0.07437600
   0.65342200  0.32859100  0.07437600
   0.98675500  0.66192500  0.07437600
   0.32008800  0.66192500  0.07437600
   0.65342200  0.66192500  0.07437600
   0.32008800  0.99525800  0.07437600
   0.65342200  0.99525800  0.07437600
   0.98675500  0.99525800  0.07437600
   0.20897700  0.10636900  0.17918600
   0.54231100  0.10636900  0.17918600
   0.87564400  0.10636900  0.17918600
   0.20897700  0.43970300  0.17918600
   0.54231100  0.43970300  0.17918600
   0.87564400  0.43970300  0.17918600
   0.20897700  0.77303600  0.17918600
   0.54231100  0.77303600  0.17918600
   0.87564400  0.77303600  0.17918600
   0.09813426  0.54460643  0.28061028
   0.43084333  0.88313898  0.28084513
   0.76557560  0.22051479  0.28617623
   0.09509348  0.21434351  0.28185412
   0.43436089  0.21653663  0.28084328
   0.09576194  0.88217345  0.28167711
   0.76511036  0.88118020  0.27982221
   0.43312880  0.54600634  0.28703371
   0.76757330  0.55010927  0.28661964
   0.32306814  0.66121893  0.38723507
   0.65293795  0.98832451  0.38496026
   0.31792550  0.32337427  0.38671068
   0.98894978  0.99289321  0.39112964
   0.32191589  0.99028134  0.38499081
   0.63862609  0.32486002  0.39627747
   0.99629085  0.66641048  0.38527444
   0.99437438  0.32470672  0.39321468
   0.65365442  0.66364270  0.38953395
Direct configuration=     3
   0.70631095  0.43024846  0.47765297
   0.90548850  0.38879659  0.46861708
   0.68036853  0.46288360  0.52705999
   0.98675500  0.32859100  0.07437600
   0.32008800  0.32859100  0.07437600
   0.65342200  0.32859100  0.07437600
   0.98675500  0.66192500  0.07437600
   0.32008800  0.66192500  0.07437600
   0.65342200  0.66192500  0.07437600
   0.32008800  0.99525800  0.07437600
   0.65342200  0.99525800  0.07437600
   0.98675500  0.99525800  0.07437600
   0.20897700  0.10636900  0.17918600
   0.54231100  0.10636900  0.17918600
   0.87564400  0.10636900  0.17918600
   0.20897700  0.43970300  0.17918600
   0.54231100  0.43970300  0.17918600
   0.87564400  0.43970300  0.17918600
   0.20897700  0.77303600  0.17918600
   0.54231100  0.77303600  0.17918600
   0.87564400  0.77303600  0.17918600
   0.09821459  0.54484171  0.28082857
   0.43093319  0.88297635  0.28092906
   0.76547562  0.22030789  0.28610705
   0.09498689  0.21452701  0.28212102
   0.43438723  0.21660004  0.28107334
   0.09586703  0.88216589  0.28176460
   0.76506479  0.88129506  0.28012091
   0.43312211  0.54625000  0.28671074
   0.76730661  0.54989799  0.28639827
   0.32302270  0.66127851  0.38718799
   0.65298426  0.98842396  0.38498039
   0.31777156  0.32305570  0.38672784
   0.98879616  0.99277935  0.39091537
   0.32182585  0.99040939  0.38504091
   0.63842215  0.32504841  0.39622559
   0.99631786  0.66656424  0.38533752
   0.99408813  0.32455815  0.39331567
   0.65402928  0.66401674  0.38947172
