       N       E                     dE             d eps       ncg     rms          rms(c)
DAV:   1     0.234906004311E+04    0.23491E+04   -0.15893E+05  1920   0.122E+03
DAV:   2    -0.879805267300E+02   -0.24370E+04   -0.22426E+04  2224   0.274E+02
DAV:   3    -0.244119366355E+03   -0.15614E+03   -0.14406E+03  2288   0.637E+01
DAV:   4    -0.248756543956E+03   -0.46372E+01   -0.45625E+01  2272   0.111E+01
DAV:   5    -0.248920449888E+03   -0.16391E+00   -0.16370E+00  2448   0.206E+00    0.273E+01
RMM:   6    -0.245567789955E+03    0.33527E+01   -0.50149E+01  1925   0.138E+01    0.286E+01
RMM:   7    -0.239247492874E+03    0.63203E+01   -0.29513E+01  1927   0.825E+00    0.187E+01
RMM:   8    -0.243125093637E+03   -0.38776E+01   -0.74343E+00  1924   0.440E+00    0.241E+01
RMM:   9    -0.232709929648E+03    0.10415E+02   -0.29251E+00  1928   0.262E+00    0.106E+01
RMM:  10    -0.231072094278E+03    0.16378E+01   -0.13733E+00  1927   0.183E+00    0.483E+00
RMM:  11    -0.230652048994E+03    0.42005E+00   -0.34247E-01  1927   0.915E-01    0.301E+00
RMM:  12    -0.230555595636E+03    0.96453E-01   -0.16558E-01  1928   0.626E-01    0.257E+00
RMM:  13    -0.230498842441E+03    0.56753E-01   -0.12136E-01  1927   0.573E-01    0.173E+00
RMM:  14    -0.230464203069E+03    0.34639E-01   -0.81610E-02  1927   0.485E-01    0.999E-01
RMM:  15    -0.230453236411E+03    0.10967E-01   -0.21662E-02  1928   0.241E-01    0.529E-01
RMM:  16    -0.230450230576E+03    0.30058E-02   -0.64488E-03  1927   0.133E-01    0.303E-01
RMM:  17    -0.230449745786E+03    0.48479E-03   -0.25153E-03  1926   0.828E-02    0.242E-01
RMM:  18    -0.230449644035E+03    0.10175E-03   -0.13225E-03  1927   0.593E-02    0.163E-01
RMM:  19    -0.230449484964E+03    0.15907E-03   -0.52804E-04  1926   0.382E-02    0.851E-02
RMM:  20    -0.230449624778E+03   -0.13981E-03   -0.15539E-04  1911   0.199E-02    0.500E-02
RMM:  21    -0.230449771393E+03   -0.14661E-03   -0.79977E-05  1806   0.144E-02    0.290E-02
RMM:  22    -0.230449892715E+03   -0.12132E-03   -0.27687E-05  1260   0.871E-03    0.235E-02
RMM:  23    -0.230450042829E+03   -0.15011E-03   -0.19964E-05  1192   0.709E-03    0.179E-02
RMM:  24    -0.230450218857E+03   -0.17603E-03   -0.21879E-05  1219   0.681E-03    0.148E-02
RMM:  25    -0.230450412729E+03   -0.19387E-03   -0.22556E-05  1246   0.600E-03    0.984E-03
RMM:  26    -0.230450519215E+03   -0.10649E-03   -0.89202E-06  1135   0.407E-03    0.962E-03
RMM:  27    -0.230450671114E+03   -0.15190E-03   -0.11785E-05  1170   0.425E-03    0.741E-03
RMM:  28    -0.230450742737E+03   -0.71622E-04   -0.50317E-06  1035   0.280E-03    0.402E-03
RMM:  29    -0.230450809832E+03   -0.67095E-04   -0.34947E-06   855   0.220E-03    0.342E-03
RMM:  30    -0.230450843554E+03   -0.33722E-04   -0.18061E-06   646   0.171E-03    0.180E-03
RMM:  31    -0.230450871036E+03   -0.27482E-04   -0.15985E-06   711   0.168E-03    0.209E-03
RMM:  32    -0.230450892071E+03   -0.21035E-04   -0.14768E-06   651   0.156E-03    0.103E-03
RMM:  33    -0.230450899867E+03   -0.77955E-05   -0.50550E-07   407   0.127E-03
    1 T=   300. E= -.22963656E+03 F= -.23045090E+03 E0= -.23044198E+03  EK= 0.81434E+00 SP= 0.00E+00 SK= 0.00E+00
       N       E                     dE             d eps       ncg     rms          rms(c)
DAV:   1    -0.230446614691E+03    0.42774E-02   -0.25173E-01  2016   0.932E-01    0.789E-02
RMM:   2    -0.230447359063E+03   -0.74437E-03   -0.68114E-03  1933   0.139E-01    0.121E-01
RMM:   3    -0.230447278466E+03    0.80597E-04   -0.28664E-04  1935   0.284E-02    0.111E-01
RMM:   4    -0.230447139053E+03    0.13941E-03   -0.93183E-05  1865   0.161E-02    0.614E-02
RMM:   5    -0.230447106771E+03    0.32283E-04   -0.48809E-05  1453   0.116E-02    0.487E-02
RMM:   6    -0.230447088407E+03    0.18364E-04   -0.78686E-05  1685   0.147E-02    0.331E-02
RMM:   7    -0.230447074778E+03    0.13629E-04   -0.34434E-05  1325   0.103E-02    0.214E-02
RMM:   8    -0.230447068457E+03    0.63209E-05   -0.10777E-05  1052   0.618E-03
    2 T=   299. E= -.22963652E+03 F= -.23044707E+03 E0= -.23043804E+03  EK= 0.81057E+00 SP= -.19E-04 SK= 0.36E-07
       N       E                     dE             d eps       ncg     rms          rms(c)
DAV:   1    -0.230442137971E+03    0.49368E-02   -0.24526E-01  2048   0.921E-01    0.763E-02
RMM:   2    -0.230442851443E+03   -0.71347E-03   -0.63930E-03  1934   0.136E-01    0.122E-01
RMM:   3    -0.230442752623E+03    0.98820E-04   -0.28061E-04  1935   0.282E-02    0.108E-01
RMM:   4    -0.230442628627E+03    0.12400E-03   -0.91570E-05  1866   0.160E-02    0.611E-02
RMM:   5    -0.230442590061E+03    0.38566E-04   -0.42959E-05  1381   0.110E-02    0.442E-02
RMM:   6    -0.230442574027E+03    0.16033E-04   -0.65809E-05  1564   0.136E-02    0.308E-02
RMM:   7    -0.230442567388E+03    0.66392E-05   -0.32737E-05  1294   0.101E-02    0.266E-02
RMM:   8    -0.230442557511E+03    0.98771E-05   -0.11852E-05  1048   0.652E-03
    3 T=   297. E= -.22963643E+03 F= -.23044256E+03 E0= -.23043342E+03  EK= 0.80625E+00 SP= -.13E-03 SK= 0.81E-06
       N       E                     dE             d eps       ncg     rms          rms(c)
DAV:   1    -0.230437790864E+03    0.47765E-02   -0.23839E-01  1920   0.910E-01    0.722E-02
RMM:   2    -0.230438462401E+03   -0.67154E-03   -0.59298E-03  1935   0.132E-01    0.116E-01
RMM:   3    -0.230438370065E+03    0.92336E-04   -0.26465E-04  1933   0.274E-02    0.102E-01
RMM:   4    -0.230438261634E+03    0.10843E-03   -0.84873E-05  1850   0.155E-02    0.585E-02
RMM:   5    -0.230438226115E+03    0.35520E-04   -0.35648E-05  1291   0.101E-02    0.410E-02
RMM:   6    -0.230438214612E+03    0.11503E-04   -0.52098E-05  1422   0.122E-02    0.275E-02
RMM:   7    -0.230438211237E+03    0.33745E-05   -0.29898E-05  1227   0.991E-03    0.241E-02
RMM:   8    -0.230438203664E+03    0.75731E-05   -0.10522E-05  1040   0.625E-03
    4 T=   296. E= -.22963635E+03 F= -.23043820E+03 E0= -.23042896E+03  EK= 0.80228E+00 SP= -.43E-03 SK= 0.46E-05
       N       E                     dE             d eps       ncg     rms          rms(c)
DAV:   1    -0.230434403077E+03    0.38082E-02   -0.23228E-01  1984   0.900E-01    0.691E-02
RMM:   2    -0.230435042351E+03   -0.63927E-03   -0.55026E-03  1935   0.129E-01    0.113E-01
RMM:   3    -0.230434953388E+03    0.88963E-04   -0.25387E-04  1934   0.269E-02    0.983E-02
RMM:   4    -0.230434856389E+03    0.96999E-04   -0.80188E-05  1842   0.151E-02    0.569E-02
RMM:   5    -0.230434822361E+03    0.34028E-04   -0.30504E-05  1245   0.940E-03    0.376E-02
RMM:   6    -0.230434815513E+03    0.68484E-05   -0.40107E-05  1320   0.109E-02    0.253E-02
RMM:   7    -0.230434816673E+03   -0.11603E-05   -0.28358E-05  1192   0.976E-03    0.243E-02
RMM:   8    -0.230434809031E+03    0.76423E-05   -0.10189E-05  1032   0.623E-03
    5 T=   295. E= -.22963630E+03 F= -.23043481E+03 E0= -.23042547E+03  EK= 0.79953E+00 SP= -.10E-02 SK= 0.15E-04
       N       E                     dE             d eps       ncg     rms          rms(c)
DAV:   1    -0.230432645670E+03    0.21710E-02   -0.22814E-01  1920   0.893E-01    0.673E-02
RMM:   2    -0.230433261365E+03   -0.61569E-03   -0.52025E-03  1937   0.126E-01    0.110E-01
RMM:   3    -0.230433178301E+03    0.83064E-04   -0.24663E-04  1934   0.266E-02    0.961E-02
RMM:   4    -0.230433088453E+03    0.89849E-04   -0.77582E-05  1839   0.148E-02    0.561E-02
RMM:   5    -0.230433055118E+03    0.33335E-04   -0.27601E-05  1221   0.899E-03    0.352E-02
RMM:   6    -0.230433051064E+03    0.40539E-05   -0.31994E-05  1239   0.980E-03    0.233E-02
RMM:   7    -0.230433055441E+03   -0.43770E-05   -0.27214E-05  1177   0.964E-03    0.238E-02
RMM:   8    -0.230433047972E+03    0.74683E-05   -0.96929E-06  1033   0.613E-03
    6 T=   294. E= -.22963626E+03 F= -.23043305E+03 E0= -.23042360E+03  EK= 0.79874E+00 SP= -.20E-02 SK= 0.33E-04
       N       E                     dE             d eps       ncg     rms          rms(c)
DAV:   1    -0.230432953011E+03    0.10243E-03   -0.22693E-01  1920   0.892E-01    0.673E-02
RMM:   2    -0.230433553010E+03   -0.60000E-03   -0.50327E-03  1936   0.124E-01    0.108E-01
RMM:   3    -0.230433479073E+03    0.73937E-04   -0.24348E-04  1936   0.264E-02    0.960E-02
RMM:   4    -0.230433392380E+03    0.86693E-04   -0.77623E-05  1836   0.148E-02    0.568E-02
RMM:   5    -0.230433358012E+03    0.34368E-04   -0.27584E-05  1229   0.896E-03    0.343E-02
RMM:   6    -0.230433355413E+03    0.25982E-05   -0.29153E-05  1224   0.937E-03    0.224E-02
RMM:   7    -0.230433361495E+03   -0.60816E-05   -0.26352E-05  1162   0.953E-03    0.236E-02
RMM:   8    -0.230433353896E+03    0.75986E-05   -0.92201E-06  1033   0.603E-03
    7 T=   295. E= -.22963625E+03 F= -.23043335E+03 E0= -.23042380E+03  EK= 0.80037E+00 SP= -.33E-02 SK= 0.57E-04
       N       E                     dE             d eps       ncg     rms          rms(c)
DAV:   1    -0.230435426590E+03   -0.20651E-02   -0.22917E-01  1920   0.897E-01    0.691E-02
RMM:   2    -0.230436019836E+03   -0.59325E-03   -0.50133E-03  1933   0.124E-01    0.107E-01
RMM:   3    -0.230435958169E+03    0.61667E-04   -0.24384E-04  1932   0.265E-02    0.979E-02
RMM:   4    -0.230435869888E+03    0.88281E-04   -0.80661E-05  1834   0.150E-02    0.587E-02
RMM:   5    -0.230435833864E+03    0.36025E-04   -0.30328E-05  1250   0.934E-03    0.351E-02
RMM:   6    -0.230435831760E+03    0.21034E-05   -0.31694E-05  1259   0.972E-03    0.230E-02
RMM:   7    -0.230435836980E+03   -0.52197E-05   -0.25779E-05  1159   0.945E-03    0.231E-02
RMM:   8    -0.230435829457E+03    0.75231E-05   -0.88455E-06  1032   0.592E-03
    8 T=   296. E= -.22963626E+03 F= -.23043583E+03 E0= -.23042617E+03  EK= 0.80447E+00 SP= -.50E-02 SK= 0.83E-04
       N       E                     dE             d eps       ncg     rms          rms(c)
DAV:   1    -0.230439804601E+03   -0.39676E-02   -0.23474E-01  1920   0.908E-01    0.726E-02
RMM:   2    -0.230440403825E+03   -0.59922E-03   -0.51690E-03  1933   0.126E-01    0.107E-01
RMM:   3    -0.230440353586E+03    0.50240E-04   -0.24873E-04  1930   0.267E-02    0.102E-01
RMM:   4    -0.230440258082E+03    0.95504E-04   -0.86577E-05  1852   0.155E-02    0.616E-02
RMM:   5    -0.230440220023E+03    0.38059E-04   -0.36693E-05  1343   0.101E-02    0.377E-02
RMM:   6    -0.230440217205E+03    0.28177E-05   -0.39240E-05  1359   0.107E-02    0.249E-02
RMM:   7    -0.230440219612E+03   -0.24063E-05   -0.25819E-05  1165   0.940E-03    0.230E-02
RMM:   8    -0.230440211975E+03    0.76367E-05   -0.88558E-06  1033   0.588E-03
    9 T=   299. E= -.22963629E+03 F= -.23044021E+03 E0= -.23043044E+03  EK= 0.81072E+00 SP= -.69E-02 SK= 0.99E-04
       N       E                     dE             d eps       ncg     rms          rms(c)
DAV:   1    -0.230445559320E+03   -0.53397E-02   -0.24306E-01  1920   0.924E-01    0.773E-02
RMM:   2    -0.230446174062E+03   -0.61474E-03   -0.54604E-03  1932   0.129E-01    0.109E-01
RMM:   3    -0.230446135426E+03    0.38636E-04   -0.25633E-04  1928   0.272E-02    0.107E-01
RMM:   4    -0.230446027672E+03    0.10775E-03   -0.95658E-05  1874   0.163E-02    0.651E-02
RMM:   5    -0.230445987057E+03    0.40615E-04   -0.46618E-05  1479   0.113E-02    0.416E-02
RMM:   6    -0.230445981620E+03    0.54362E-05   -0.49955E-05  1500   0.119E-02    0.274E-02
RMM:   7    -0.230445980532E+03    0.10882E-05   -0.27124E-05  1189   0.943E-03    0.237E-02
RMM:   8    -0.230445972510E+03    0.80218E-05   -0.93158E-06  1035   0.594E-03
   10 T=   302. E= -.22963633E+03 F= -.23044597E+03 E0= -.23043609E+03  EK= 0.81843E+00 SP= -.89E-02 SK= 0.98E-04
       N       E                     dE             d eps       ncg     rms          rms(c)
DAV:   1    -0.230451905962E+03   -0.59254E-02   -0.25310E-01  1952   0.943E-01    0.823E-02
RMM:   2    -0.230452543088E+03   -0.63713E-03   -0.58574E-03  1931   0.132E-01    0.111E-01
RMM:   3    -0.230452517356E+03    0.25732E-04   -0.26884E-04  1930   0.277E-02    0.113E-01
RMM:   4    -0.230452392424E+03    0.12493E-03   -0.10471E-04  1891   0.170E-02    0.684E-02
RMM:   5    -0.230452349749E+03    0.42675E-04   -0.58966E-05  1611   0.125E-02    0.462E-02
RMM:   6    -0.230452339838E+03    0.99108E-05   -0.61359E-05  1615   0.131E-02    0.297E-02
RMM:   7    -0.230452335577E+03    0.42607E-05   -0.29656E-05  1255   0.962E-03    0.243E-02
RMM:   8    -0.230452327417E+03    0.81600E-05   -0.10060E-05  1038   0.606E-03
   11 T=   305. E= -.22963636E+03 F= -.23045233E+03 E0= -.23044233E+03  EK= 0.82666E+00 SP= -.11E-01 SK= 0.79E-04
       N       E                     dE             d eps       ncg     rms          rms(c)
DAV:   1    -0.230457977172E+03   -0.56416E-02   -0.26354E-01  1984   0.963E-01    0.870E-02
RMM:   2    -0.230458644144E+03   -0.66697E-03   -0.63167E-03  1931   0.136E-01    0.113E-01
RMM:   3    -0.230458630534E+03    0.13609E-04   -0.28055E-04  1931   0.282E-02    0.119E-01
RMM:   4    -0.230458486186E+03    0.14435E-03   -0.11366E-04  1901   0.177E-02    0.710E-02
RMM:   5    -0.230458443723E+03    0.42464E-04   -0.71860E-05  1733   0.138E-02    0.511E-02
RMM:   6    -0.230458428146E+03    0.15577E-04   -0.71457E-05  1695   0.140E-02    0.317E-02
RMM:   7    -0.230458422014E+03    0.61322E-05   -0.32846E-05  1337   0.991E-03    0.250E-02
RMM:   8    -0.230458414004E+03    0.80100E-05   -0.10905E-05  1041   0.619E-03
   12 T=   307. E= -.22963639E+03 F= -.23045841E+03 E0= -.23044831E+03  EK= 0.83433E+00 SP= -.12E-01 SK= 0.47E-04
       N       E                     dE             d eps       ncg     rms          rms(c)
DAV:   1    -0.230462973617E+03   -0.45516E-02   -0.27302E-01  1920   0.982E-01    0.909E-02
RMM:   2    -0.230463676561E+03   -0.70294E-03   -0.68027E-03  1930   0.140E-01    0.115E-01
RMM:   3    -0.230463671592E+03    0.49684E-05   -0.29219E-04  1935   0.287E-02    0.125E-01
RMM:   4    -0.230463507959E+03    0.16363E-03   -0.11957E-04  1907   0.181E-02    0.724E-02
RMM:   5    -0.230463468644E+03    0.39315E-04   -0.82821E-05  1804   0.147E-02    0.558E-02
RMM:   6    -0.230463447388E+03    0.21256E-04   -0.79758E-05  1739   0.147E-02    0.333E-02
RMM:   7    -0.230463440284E+03    0.71038E-05   -0.36163E-05  1403   0.103E-02    0.256E-02
RMM:   8    -0.230463432521E+03    0.77628E-05   -0.11792E-05  1046   0.635E-03
   13 T=   310. E= -.22963640E+03 F= -.23046343E+03 E0= -.23045322E+03  EK= 0.84044E+00 SP= -.13E-01 SK= 0.15E-04
       N       E                     dE             d eps       ncg     rms          rms(c)
DAV:   1    -0.230466269855E+03   -0.28296E-02   -0.28049E-01  1920   0.998E-01    0.936E-02
RMM:   2    -0.230467000407E+03   -0.73055E-03   -0.71763E-03  1930   0.144E-01    0.116E-01
RMM:   3    -0.230467004960E+03   -0.45533E-05   -0.30250E-04  1933   0.291E-02    0.130E-01
RMM:   4    -0.230466824369E+03    0.18059E-03   -0.12383E-04  1905   0.184E-02    0.731E-02
RMM:   5    -0.230466789378E+03    0.34992E-04   -0.90896E-05  1842   0.154E-02    0.595E-02
RMM:   6    -0.230466763110E+03    0.26268E-04   -0.85495E-05  1770   0.152E-02    0.344E-02
RMM:   7    -0.230466755786E+03    0.73241E-05   -0.38750E-05  1440   0.105E-02    0.263E-02
RMM:   8    -0.230466748221E+03    0.75651E-05   -0.12516E-05  1051   0.649E-03
   14 T=   311. E= -.22963641E+03 F= -.23046675E+03 E0= -.23045643E+03  EK= 0.84420E+00 SP= -.14E-01 SK= 0.16E-06
       N       E                     dE             d eps       ncg     rms          rms(c)
DAV:   1    -0.230467492627E+03   -0.73684E-03   -0.28517E-01  1920   0.101E+00    0.951E-02
RMM:   2    -0.230468244533E+03   -0.75191E-03   -0.74439E-03  1930   0.146E-01    0.116E-01
RMM:   3    -0.230468256617E+03   -0.12084E-04   -0.30968E-04  1932   0.295E-02    0.133E-01
RMM:   4    -0.230468062787E+03    0.19383E-03   -0.12598E-04  1907   0.185E-02    0.729E-02
RMM:   5    -0.230468032015E+03    0.30772E-04   -0.94671E-05  1859   0.157E-02    0.617E-02
RMM:   6    -0.230468002762E+03    0.29254E-04   -0.88327E-05  1788   0.154E-02    0.351E-02
RMM:   7    -0.230467995550E+03    0.72118E-05   -0.40540E-05  1472   0.107E-02    0.268E-02
RMM:   8    -0.230467988133E+03    0.74167E-05   -0.13023E-05  1057   0.658E-03
   15 T=   311. E= -.22963640E+03 F= -.23046799E+03 E0= -.23045756E+03  EK= 0.84513E+00 SP= -.14E-01 SK= 0.12E-04
       N       E                     dE             d eps       ncg     rms          rms(c)
DAV:   1    -0.230466554489E+03    0.14411E-02   -0.28674E-01  1920   0.102E+00    0.953E-02
RMM:   2    -0.230467320146E+03   -0.76566E-03   -0.75879E-03  1930   0.147E-01    0.116E-01
RMM:   3    -0.230467338511E+03   -0.18364E-04   -0.31341E-04  1932   0.296E-02    0.135E-01
RMM:   4    -0.230467134884E+03    0.20363E-03   -0.12445E-04  1909   0.184E-02    0.718E-02
RMM:   5    -0.230467108317E+03    0.26567E-04   -0.93239E-05  1854   0.157E-02    0.625E-02
RMM:   6    -0.230467078592E+03    0.29725E-04   -0.88153E-05  1782   0.155E-02    0.355E-02
RMM:   7    -0.230467071730E+03    0.68619E-05   -0.41848E-05  1495   0.109E-02    0.271E-02
RMM:   8    -0.230467064426E+03    0.73038E-05   -0.13438E-05  1062   0.667E-03
   16 T=   311. E= -.22963637E+03 F= -.23046706E+03 E0= -.23045654E+03  EK= 0.84313E+00 SP= -.12E-01 SK= 0.52E-04
       N       E                     dE             d eps       ncg     rms          rms(c)
DAV:   1    -0.230463641570E+03    0.34302E-02   -0.28538E-01  1920   0.102E+00    0.946E-02
RMM:   2    -0.230464410852E+03   -0.76928E-03   -0.75947E-03  1930   0.147E-01    0.115E-01
RMM:   3    -0.230464436837E+03   -0.25985E-04   -0.31632E-04  1933   0.297E-02    0.136E-01
RMM:   4    -0.230464226181E+03    0.21066E-03   -0.12139E-04  1906   0.182E-02    0.704E-02
RMM:   5    -0.230464202225E+03    0.23956E-04   -0.88255E-05  1837   0.153E-02    0.616E-02
RMM:   6    -0.230464174689E+03    0.27536E-04   -0.84535E-05  1762   0.152E-02    0.354E-02
RMM:   7    -0.230464168440E+03    0.62492E-05   -0.42009E-05  1500   0.109E-02    0.272E-02
RMM:   8    -0.230464161221E+03    0.72193E-05   -0.13590E-05  1064   0.671E-03
   17 T=   309. E= -.22963632E+03 F= -.23046416E+03 E0= -.23045354E+03  EK= 0.83844E+00 SP= -.11E-01 SK= 0.11E-03
       N       E                     dE             d eps       ncg     rms          rms(c)
DAV:   1    -0.230459199672E+03    0.49688E-02   -0.28173E-01  1920   0.102E+00    0.930E-02
RMM:   2    -0.230459959699E+03   -0.76003E-03   -0.74452E-03  1929   0.146E-01    0.113E-01
RMM:   3    -0.230459994578E+03   -0.34879E-04   -0.31588E-04  1933   0.298E-02    0.136E-01
RMM:   4    -0.230459780030E+03    0.21455E-03   -0.11795E-04  1904   0.180E-02    0.687E-02
RMM:   5    -0.230459756864E+03    0.23167E-04   -0.80841E-05  1808   0.147E-02    0.593E-02
RMM:   6    -0.230459733682E+03    0.23182E-04   -0.77946E-05  1737   0.147E-02    0.350E-02
RMM:   7    -0.230459728271E+03    0.54112E-05   -0.40840E-05  1472   0.108E-02    0.271E-02
RMM:   8    -0.230459721133E+03    0.71381E-05   -0.13504E-05  1061   0.672E-03
   18 T=   306. E= -.22963627E+03 F= -.23045972E+03 E0= -.23044902E+03  EK= 0.83162E+00 SP= -.83E-02 SK= 0.17E-03
       N       E                     dE             d eps       ncg     rms          rms(c)
DAV:   1    -0.230453817993E+03    0.59103E-02   -0.27669E-01  1920   0.102E+00    0.910E-02
RMM:   2    -0.230454557710E+03   -0.73972E-03   -0.71679E-03  1930   0.144E-01    0.110E-01
RMM:   3    -0.230454602980E+03   -0.45270E-04   -0.31346E-04  1934   0.296E-02    0.136E-01
RMM:   4    -0.230454387857E+03    0.21512E-03   -0.11365E-04  1901   0.177E-02    0.670E-02
RMM:   5    -0.230454363509E+03    0.24348E-04   -0.72009E-05  1757   0.139E-02    0.557E-02
RMM:   6    -0.230454346147E+03    0.17362E-04   -0.69312E-05  1688   0.139E-02    0.342E-02
RMM:   7    -0.230454341801E+03    0.43461E-05   -0.38716E-05  1439   0.107E-02    0.267E-02
RMM:   8    -0.230454334702E+03    0.70985E-05   -0.13150E-05  1056   0.668E-03
   19 T=   303. E= -.22963622E+03 F= -.23045433E+03 E0= -.23044355E+03  EK= 0.82344E+00 SP= -.55E-02 SK= 0.22E-03
       N       E                     dE             d eps       ncg     rms          rms(c)
DAV:   1    -0.230448160298E+03    0.61815E-02   -0.27135E-01  1920   0.102E+00    0.885E-02
RMM:   2    -0.230448871946E+03   -0.71165E-03   -0.68082E-03  1930   0.141E-01    0.107E-01
RMM:   3    -0.230448926867E+03   -0.54922E-04   -0.30837E-04  1934   0.295E-02    0.135E-01
RMM:   4    -0.230448714668E+03    0.21220E-03   -0.10986E-04  1903   0.174E-02    0.654E-02
RMM:   5    -0.230448688057E+03    0.26612E-04   -0.62990E-05  1690   0.131E-02    0.514E-02
RMM:   6    -0.230448676688E+03    0.11368E-04   -0.60010E-05  1598   0.130E-02    0.330E-02
RMM:   7    -0.230448673737E+03    0.29515E-05   -0.35800E-05  1397   0.104E-02    0.262E-02
RMM:   8    -0.230448666607E+03    0.71303E-05   -0.12556E-05  1050   0.659E-03
   20 T=   300. E= -.22963616E+03 F= -.23044867E+03 E0= -.23043780E+03  EK= 0.81479E+00 SP= -.25E-02 SK= 0.24E-03
       N       E                     dE             d eps       ncg     rms          rms(c)
DAV:   1    -0.230442896947E+03    0.57768E-02   -0.26675E-01  1920   0.102E+00    0.859E-02
RMM:   2    -0.230443579862E+03   -0.68291E-03   -0.64490E-03  1932   0.138E-01    0.103E-01
RMM:   3    -0.230443643731E+03   -0.63869E-04   -0.30221E-04  1935   0.292E-02    0.134E-01
RMM:   4    -0.230443436060E+03    0.20767E-03   -0.10519E-04  1898   0.171E-02    0.640E-02
RMM:   5    -0.230443406683E+03    0.29377E-04   -0.54501E-05  1604   0.122E-02    0.470E-02
RMM:   6    -0.230443400727E+03    0.59555E-05   -0.51481E-05  1513   0.121E-02    0.317E-02
RMM:   7    -0.230443399464E+03    0.12632E-05   -0.32487E-05  1314   0.101E-02    0.257E-02
RMM:   8    -0.230443392157E+03    0.73070E-05   -0.11892E-05  1043   0.652E-03
   21 T=   297. E= -.22963611E+03 F= -.23044339E+03 E0= -.23043246E+03  EK= 0.80653E+00 SP= 0.53E-03 SK= 0.22E-03
       N       E                     dE             d eps       ncg     rms          rms(c)
DAV:   1    -0.230438633821E+03    0.47656E-02   -0.26390E-01  1920   0.102E+00    0.835E-02
RMM:   2    -0.230439292801E+03   -0.65898E-03   -0.61561E-03  1932   0.136E-01    0.996E-02
RMM:   3    -0.230439364254E+03   -0.71453E-04   -0.29700E-04  1934   0.290E-02    0.133E-01
RMM:   4    -0.230439161191E+03    0.20306E-03   -0.10070E-04  1898   0.168E-02    0.627E-02
RMM:   5    -0.230439129613E+03    0.31579E-04   -0.47455E-05  1533   0.115E-02    0.430E-02
RMM:   6    -0.230439127646E+03    0.19670E-05   -0.44227E-05  1428   0.112E-02    0.303E-02
RMM:   7    -0.230439128341E+03   -0.69499E-06   -0.29803E-05  1249   0.987E-03    0.254E-02
RMM:   8    -0.230439120565E+03    0.77755E-05   -0.11152E-05  1039   0.641E-03
   22 T=   295. E= -.22963607E+03 F= -.23043912E+03 E0= -.23042812E+03  EK= 0.79948E+00 SP= 0.34E-02 SK= 0.18E-03
       N       E                     dE             d eps       ncg     rms          rms(c)
DAV:   1    -0.230435837840E+03    0.32905E-02   -0.26359E-01  1920   0.102E+00    0.816E-02
RMM:   2    -0.230436481386E+03   -0.64355E-03   -0.59777E-03  1932   0.135E-01    0.966E-02
RMM:   3    -0.230436559414E+03   -0.78028E-04   -0.29371E-04  1939   0.289E-02    0.132E-01
RMM:   4    -0.230436358794E+03    0.20062E-03   -0.95768E-05  1894   0.164E-02    0.615E-02
RMM:   5    -0.230436326186E+03    0.32608E-04   -0.42093E-05  1458   0.108E-02    0.400E-02
RMM:   6    -0.230436326641E+03   -0.45479E-06   -0.39006E-05  1366   0.105E-02    0.292E-02
RMM:   7    -0.230436329042E+03   -0.24011E-05   -0.28206E-05  1203   0.972E-03    0.253E-02
RMM:   8    -0.230436320644E+03    0.83980E-05   -0.10481E-05  1036   0.630E-03
   23 T=   293. E= -.22963605E+03 F= -.23043632E+03 E0= -.23042527E+03  EK= 0.79426E+00 SP= 0.59E-02 SK= 0.13E-03
       N       E                     dE             d eps       ncg     rms          rms(c)
DAV:   1    -0.230434796974E+03    0.15321E-02   -0.26637E-01  1920   0.103E+00    0.805E-02
RMM:   2    -0.230435436985E+03   -0.64001E-03   -0.59563E-03  1929   0.135E-01    0.940E-02
RMM:   3    -0.230435521089E+03   -0.84104E-04   -0.29107E-04  1938   0.289E-02    0.132E-01
RMM:   4    -0.230435318657E+03    0.20243E-03   -0.93044E-05  1891   0.161E-02    0.600E-02
RMM:   5    -0.230435286396E+03    0.32262E-04   -0.38664E-05  1402   0.105E-02    0.384E-02
RMM:   6    -0.230435288300E+03   -0.19042E-05   -0.36138E-05  1323   0.101E-02    0.288E-02
RMM:   7    -0.230435291297E+03   -0.29965E-05   -0.27929E-05  1196   0.973E-03    0.252E-02
RMM:   8    -0.230435282407E+03    0.88898E-05   -0.99978E-06  1035   0.621E-03
   24 T=   292. E= -.22963603E+03 F= -.23043528E+03 E0= -.23042418E+03  EK= 0.79128E+00 SP= 0.79E-02 SK= 0.75E-04
       N       E                     dE             d eps       ncg     rms          rms(c)
DAV:   1    -0.230435606192E+03   -0.31490E-03   -0.27252E-01  1920   0.104E+00    0.803E-02
RMM:   2    -0.230436253966E+03   -0.64777E-03   -0.60891E-03  1929   0.136E-01    0.920E-02
RMM:   3    -0.230436346188E+03   -0.92222E-04   -0.29268E-04  1938   0.290E-02    0.134E-01
RMM:   4    -0.230436136473E+03    0.20971E-03   -0.91458E-05  1885   0.160E-02    0.584E-02
RMM:   5    -0.230436105976E+03    0.30497E-04   -0.37791E-05  1394   0.104E-02    0.385E-02
RMM:   6    -0.230436108116E+03   -0.21397E-05   -0.35946E-05  1320   0.101E-02    0.295E-02
RMM:   7    -0.230436109886E+03   -0.17703E-05   -0.28319E-05  1206   0.980E-03    0.250E-02
RMM:   8    -0.230436100880E+03    0.90065E-05   -0.98377E-06  1037   0.617E-03
   25 T=   291. E= -.22963603E+03 F= -.23043610E+03 E0= -.23042495E+03  EK= 0.79069E+00 SP= 0.93E-02 SK= 0.33E-04
       N       E                     dE             d eps       ncg     rms          rms(c)
DAV:   1    -0.230438133261E+03   -0.20234E-02   -0.28190E-01  1952   0.106E+00    0.813E-02
RMM:   2    -0.230438801624E+03   -0.66836E-03   -0.63773E-03  1928   0.139E-01    0.913E-02
RMM:   3    -0.230438900905E+03   -0.99281E-04   -0.29816E-04  1936   0.293E-02    0.137E-01
RMM:   4    -0.230438679867E+03    0.22104E-03   -0.92340E-05  1884   0.161E-02    0.573E-02
RMM:   5    -0.230438651987E+03    0.27880E-04   -0.39630E-05  1428   0.106E-02    0.401E-02
RMM:   6    -0.230438653349E+03   -0.13616E-05   -0.38624E-05  1350   0.104E-02    0.313E-02
RMM:   7    -0.230438652660E+03    0.68913E-06   -0.29199E-05  1224   0.989E-03    0.251E-02
RMM:   8    -0.230438643657E+03    0.90031E-05   -0.10144E-05  1037   0.622E-03
   26 T=   292. E= -.22963604E+03 F= -.23043864E+03 E0= -.23042745E+03  EK= 0.79238E+00 SP= 0.10E-01 SK= 0.85E-05
       N       E                     dE             d eps       ncg     rms          rms(c)
DAV:   1    -0.230442086559E+03   -0.34339E-02   -0.29412E-01  1920   0.108E+00    0.833E-02
RMM:   2    -0.230442788177E+03   -0.70162E-03   -0.68129E-03  1929   0.143E-01    0.918E-02
RMM:   3    -0.230442893385E+03   -0.10521E-03   -0.30760E-04  1937   0.297E-02    0.141E-01
RMM:   4    -0.230442657359E+03    0.23603E-03   -0.95146E-05  1887   0.164E-02    0.568E-02
RMM:   5    -0.230442633001E+03    0.24358E-04   -0.44396E-05  1510   0.112E-02    0.431E-02
RMM:   6    -0.230442632115E+03    0.88575E-06   -0.43726E-05  1404   0.110E-02    0.337E-02
RMM:   7    -0.230442629009E+03    0.31063E-05   -0.30751E-05  1250   0.100E-02    0.258E-02
RMM:   8    -0.230442619811E+03    0.91974E-05   -0.10886E-05  1039   0.636E-03
   27 T=   293. E= -.22963605E+03 F= -.23044262E+03 E0= -.23043139E+03  EK= 0.79602E+00 SP= 0.11E-01 SK= 0.18E-06
       N       E                     dE             d eps       ncg     rms          rms(c)
DAV:   1    -0.230447008290E+03   -0.43793E-02   -0.30851E-01  1952   0.110E+00    0.861E-02
RMM:   2    -0.230447751625E+03   -0.74333E-03   -0.73649E-03  1930   0.147E-01    0.928E-02
RMM:   3    -0.230447865241E+03   -0.11362E-03   -0.32003E-04  1936   0.302E-02    0.145E-01
RMM:   4    -0.230447609783E+03    0.25546E-03   -0.98991E-05  1888   0.166E-02    0.567E-02
RMM:   5    -0.230447590067E+03    0.19716E-04   -0.51513E-05  1612   0.120E-02    0.472E-02
RMM:   6    -0.230447585666E+03    0.44008E-05   -0.50732E-05  1470   0.118E-02    0.363E-02
RMM:   7    -0.230447580238E+03    0.54282E-05   -0.33104E-05  1292   0.102E-02    0.267E-02
RMM:   8    -0.230447570935E+03    0.93029E-05   -0.11716E-05  1046   0.651E-03
   28 T=   295. E= -.22963606E+03 F= -.23044757E+03 E0= -.23043631E+03  EK= 0.80107E+00 SP= 0.10E-01 SK= 0.23E-05
       N       E                     dE             d eps       ncg     rms          rms(c)
DAV:   1    -0.230452293338E+03   -0.47131E-02   -0.32411E-01  1952   0.113E+00    0.893E-02
RMM:   2    -0.230453082906E+03   -0.78957E-03   -0.79925E-03  1929   0.151E-01    0.936E-02
RMM:   3    -0.230453208979E+03   -0.12607E-03   -0.33516E-04  1934   0.308E-02    0.150E-01
RMM:   4    -0.230452931226E+03    0.27775E-03   -0.10279E-04  1890   0.169E-02    0.570E-02
RMM:   5    -0.230452916670E+03    0.14556E-04   -0.61172E-05  1746   0.130E-02    0.519E-02
RMM:   6    -0.230452907488E+03    0.91821E-05   -0.58913E-05  1549   0.126E-02    0.391E-02
RMM:   7    -0.230452899704E+03    0.77835E-05   -0.35908E-05  1353   0.105E-02    0.277E-02
RMM:   8    -0.230452890355E+03    0.93496E-05   -0.12470E-05  1051   0.663E-03
   29 T=   297. E= -.22963607E+03 F= -.23045289E+03 E0= -.23044160E+03  EK= 0.80681E+00 SP= 0.10E-01 SK= 0.78E-05
       N       E                     dE             d eps       ncg     rms          rms(c)
DAV:   1    -0.230457248777E+03   -0.43491E-02   -0.33979E-01  1920   0.115E+00    0.926E-02
RMM:   2    -0.230458084339E+03   -0.83556E-03   -0.86249E-03  1928   0.155E-01    0.943E-02
RMM:   3    -0.230458224759E+03   -0.14042E-03   -0.35008E-04  1930   0.314E-02    0.155E-01
RMM:   4    -0.230457925382E+03    0.29938E-03   -0.10733E-04  1897   0.172E-02    0.576E-02
RMM:   5    -0.230457915670E+03    0.97115E-05   -0.72439E-05  1830   0.141E-02    0.561E-02
RMM:   6    -0.230457901057E+03    0.14613E-04   -0.67588E-05  1643   0.133E-02    0.419E-02
RMM:   7    -0.230457890923E+03    0.10134E-04   -0.38204E-05  1388   0.106E-02    0.287E-02
RMM:   8    -0.230457881607E+03    0.93163E-05   -0.13124E-05  1062   0.672E-03
   30 T=   299. E= -.22963608E+03 F= -.23045788E+03 E0= -.23044657E+03  EK= 0.81241E+00 SP= 0.94E-02 SK= 0.11E-04
       N       E                     dE             d eps       ncg     rms          rms(c)
DAV:   1    -0.230461237179E+03   -0.33463E-02   -0.35439E-01  1984   0.117E+00    0.958E-02
RMM:   2    -0.230462103521E+03   -0.86634E-03   -0.91030E-03  1928   0.158E-01    0.940E-02
RMM:   3    -0.230462264026E+03   -0.16051E-03   -0.36275E-04  1929   0.319E-02    0.160E-01
RMM:   4    -0.230461943231E+03    0.32079E-03   -0.11141E-04  1896   0.174E-02    0.584E-02
RMM:   5    -0.230461936528E+03    0.67037E-05   -0.85352E-05  1885   0.153E-02    0.589E-02
RMM:   6    -0.230461916943E+03    0.19585E-04   -0.75647E-05  1750   0.141E-02    0.440E-02
RMM:   7    -0.230461904879E+03    0.12064E-04   -0.38696E-05  1381   0.106E-02    0.294E-02
RMM:   8    -0.230461895947E+03    0.89328E-05   -0.13300E-05  1068   0.670E-03
   31 T=   301. E= -.22963607E+03 F= -.23046190E+03 E0= -.23045056E+03  EK= 0.81709E+00 SP= 0.87E-02 SK= 0.11E-04
       N       E                     dE             d eps       ncg     rms          rms(c)
DAV:   1    -0.230463695765E+03   -0.17909E-02   -0.36680E-01  1920   0.118E+00    0.987E-02
RMM:   2    -0.230464574699E+03   -0.87893E-03   -0.93906E-03  1928   0.160E-01    0.930E-02
RMM:   3    -0.230464759150E+03   -0.18445E-03   -0.37166E-04  1931   0.323E-02    0.164E-01
RMM:   4    -0.230464418701E+03    0.34045E-03   -0.11424E-04  1898   0.176E-02    0.593E-02
RMM:   5    -0.230464412005E+03    0.66957E-05   -0.98089E-05  1907   0.164E-02    0.596E-02
RMM:   6    -0.230464389129E+03    0.22876E-04   -0.82003E-05  1832   0.148E-02    0.447E-02
RMM:   7    -0.230464375165E+03    0.13964E-04   -0.37412E-05  1368   0.103E-02    0.290E-02
RMM:   8    -0.230464367580E+03    0.75852E-05   -0.12635E-05  1065   0.644E-03
   32 T=   302. E= -.22963607E+03 F= -.23046437E+03 E0= -.23045302E+03  EK= 0.82016E+00 SP= 0.81E-02 SK= 0.70E-05
       N       E                     dE             d eps       ncg     rms          rms(c)
DAV:   1    -0.230464189695E+03    0.18547E-03   -0.37606E-01  1952   0.119E+00    0.101E-01
RMM:   2    -0.230465058068E+03   -0.86837E-03   -0.94245E-03  1928   0.161E-01    0.910E-02
RMM:   3    -0.230465270954E+03   -0.21289E-03   -0.37817E-04  1931   0.326E-02    0.167E-01
RMM:   4    -0.230464911773E+03    0.35918E-03   -0.11675E-04  1903   0.177E-02    0.602E-02
RMM:   5    -0.230464902645E+03    0.91279E-05   -0.10902E-04  1908   0.172E-02    0.581E-02
RMM:   6    -0.230464879108E+03    0.23538E-04   -0.86125E-05  1891   0.153E-02    0.423E-02
RMM:   7    -0.230464862787E+03    0.16321E-04   -0.34585E-05  1334   0.994E-03    0.249E-02
RMM:   8    -0.230464858782E+03    0.40047E-05   -0.10445E-05  1053   0.578E-03
   33 T=   302. E= -.22963605E+03 F= -.23046486E+03 E0= -.23045349E+03  EK= 0.82112E+00 SP= 0.77E-02 SK= 0.33E-05
       N       E                     dE             d eps       ncg     rms          rms(c)
DAV:   1    -0.230462554896E+03    0.23079E-02   -0.38139E-01  1920   0.120E+00    0.103E-01
RMM:   2    -0.230463401818E+03   -0.84692E-03   -0.92931E-03  1928   0.161E-01    0.886E-02
RMM:   3    -0.230463639843E+03   -0.23802E-03   -0.37960E-04  1932   0.328E-02    0.168E-01
RMM:   4    -0.230463267466E+03    0.37238E-03   -0.11706E-04  1904   0.177E-02    0.618E-02
RMM:   5    -0.230463255763E+03    0.11703E-04   -0.11469E-04  1911   0.176E-02    0.567E-02
RMM:   6    -0.230463234364E+03    0.21399E-04   -0.87067E-05  1904   0.155E-02    0.391E-02
RMM:   7    -0.230463214981E+03    0.19383E-04   -0.36060E-05  1385   0.103E-02    0.181E-02
RMM:   8    -0.230463214395E+03    0.58626E-06   -0.80500E-06  1036   0.531E-03
   34 T=   302. E= -.22963601E+03 F= -.23046321E+03 E0= -.23045190E+03  EK= 0.81979E+00 SP= 0.74E-02 SK= 0.96E-06
       N       E                     dE             d eps       ncg     rms          rms(c)
DAV:   1    -0.230458897458E+03    0.43175E-02   -0.38278E-01  1920   0.120E+00    0.103E-01
RMM:   2    -0.230459715493E+03   -0.81804E-03   -0.90343E-03  1926   0.159E-01    0.883E-02
RMM:   3    -0.230459897557E+03   -0.18206E-03   -0.39135E-04  1925   0.332E-02    0.164E-01
RMM:   4    -0.230459620134E+03    0.27742E-03   -0.10999E-04  1890   0.172E-02    0.730E-02
RMM:   5    -0.230459586724E+03    0.33410E-04   -0.95485E-05  1881   0.160E-02    0.639E-02
RMM:   6    -0.230459562770E+03    0.23954E-04   -0.80997E-05  1723   0.143E-02    0.443E-02
RMM:   7    -0.230459550846E+03    0.11924E-04   -0.43278E-05  1479   0.112E-02    0.287E-02
RMM:   8    -0.230459542750E+03    0.80959E-05   -0.14271E-05  1070   0.695E-03
   35 T=   301. E= -.22963597E+03 F= -.23045954E+03 E0= -.23044820E+03  EK= 0.81631E+00 SP= 0.73E-02 SK= 0.21E-06
       N       E                     dE             d eps       ncg     rms          rms(c)
DAV:   1    -0.230453608798E+03    0.59420E-02   -0.38028E-01  1952   0.120E+00    0.103E-01
RMM:   2    -0.230454383828E+03   -0.77503E-03   -0.86415E-03  1929   0.156E-01    0.812E-02
RMM:   3    -0.230454622109E+03   -0.23828E-03   -0.37681E-04  1929   0.328E-02    0.162E-01
RMM:   4    -0.230454294980E+03    0.32713E-03   -0.10638E-04  1897   0.169E-02    0.667E-02
RMM:   5    -0.230454268061E+03    0.26920E-04   -0.10775E-04  1908   0.170E-02    0.532E-02
RMM:   6    -0.230454252064E+03    0.15997E-04   -0.78665E-05  1885   0.148E-02    0.363E-02
RMM:   7    -0.230454236752E+03    0.15312E-04   -0.32178E-05  1309   0.982E-03    0.151E-02
RMM:   8    -0.230454236990E+03   -0.23750E-06   -0.72364E-06  1032   0.515E-03
   36 T=   299. E= -.22963592E+03 F= -.23045424E+03 E0= -.23044292E+03  EK= 0.81115E+00 SP= 0.72E-02 SK= 0.23E-06
       N       E                     dE             d eps       ncg     rms          rms(c)
DAV:   1    -0.230447293790E+03    0.69430E-02   -0.37508E-01  1920   0.119E+00    0.102E-01
RMM:   2    -0.230448026680E+03   -0.73289E-03   -0.81680E-03  1928   0.153E-01    0.773E-02
RMM:   3    -0.230448202472E+03   -0.17579E-03   -0.37160E-04  1924   0.327E-02    0.153E-01
RMM:   4    -0.230447972926E+03    0.22955E-03   -0.94281E-05  1858   0.159E-02    0.723E-02
RMM:   5    -0.230447929874E+03    0.43052E-04   -0.87628E-05  1877   0.153E-02    0.548E-02
RMM:   6    -0.230447923935E+03    0.59383E-05   -0.68057E-05  1668   0.132E-02    0.478E-02
RMM:   7    -0.230447909486E+03    0.14450E-04   -0.38003E-05  1393   0.105E-02    0.271E-02
RMM:   8    -0.230447902838E+03    0.66475E-05   -0.12585E-05  1051   0.656E-03
   37 T=   297. E= -.22963585E+03 F= -.23044790E+03 E0= -.23043658E+03  EK= 0.80505E+00 SP= 0.70E-02 SK= 0.15E-05
       N       E                     dE             d eps       ncg     rms          rms(c)
DAV:   1    -0.230440744495E+03    0.71650E-02   -0.36806E-01  1920   0.118E+00    0.101E-01
RMM:   2    -0.230441440342E+03   -0.69585E-03   -0.77240E-03  1927   0.150E-01    0.722E-02
RMM:   3    -0.230441647999E+03   -0.20766E-03   -0.35481E-04  1929   0.322E-02    0.145E-01
RMM:   4    -0.230441399691E+03    0.24831E-03   -0.90048E-05  1861   0.155E-02    0.723E-02
RMM:   5    -0.230441354467E+03    0.45224E-04   -0.86595E-05  1869   0.151E-02    0.489E-02
RMM:   6    -0.230441360621E+03   -0.61541E-05   -0.66869E-05  1787   0.136E-02    0.432E-02
RMM:   7    -0.230441346512E+03    0.14109E-04   -0.32940E-05  1322   0.979E-03    0.285E-02
RMM:   8    -0.230441339951E+03    0.65615E-05   -0.95134E-06  1041   0.555E-03
   38 T=   294. E= -.22963579E+03 F= -.23044134E+03 E0= -.23043006E+03  EK= 0.79894E+00 SP= 0.66E-02 SK= 0.74E-05
       N       E                     dE             d eps       ncg     rms          rms(c)
DAV:   1    -0.230434797737E+03    0.65488E-02   -0.36103E-01  1920   0.117E+00    0.997E-02
RMM:   2    -0.230435459791E+03   -0.66205E-03   -0.73345E-03  1925   0.147E-01    0.660E-02
RMM:   3    -0.230435637201E+03   -0.17741E-03   -0.33218E-04  1931   0.313E-02    0.133E-01
RMM:   4    -0.230435435459E+03    0.20174E-03   -0.78292E-05  1826   0.146E-02    0.694E-02
RMM:   5    -0.230435392766E+03    0.42693E-04   -0.76770E-05  1844   0.142E-02    0.442E-02
RMM:   6    -0.230435404522E+03   -0.11756E-04   -0.61992E-05  1772   0.132E-02    0.405E-02
RMM:   7    -0.230435389300E+03    0.15222E-04   -0.29144E-05  1248   0.940E-03    0.231E-02
RMM:   8    -0.230435385555E+03    0.37456E-05   -0.70253E-06  1037   0.477E-03
   39 T=   292. E= -.22963574E+03 F= -.23043539E+03 E0= -.23042412E+03  EK= 0.79379E+00 SP= 0.58E-02 SK= 0.25E-04
       N       E                     dE             d eps       ncg     rms          rms(c)
DAV:   1    -0.230430204186E+03    0.51851E-02   -0.35534E-01  1920   0.117E+00    0.994E-02
RMM:   2    -0.230430844402E+03   -0.64022E-03   -0.70544E-03  1927   0.145E-01    0.629E-02
RMM:   3    -0.230430969306E+03   -0.12490E-03   -0.32148E-04  1934   0.310E-02    0.116E-01
RMM:   4    -0.230430845399E+03    0.12391E-03   -0.70762E-05  1801   0.139E-02    0.753E-02
RMM:   5    -0.230430788604E+03    0.56796E-04   -0.66903E-05  1773   0.132E-02    0.431E-02
RMM:   6    -0.230430808239E+03   -0.19636E-04   -0.60753E-05  1755   0.130E-02    0.440E-02
RMM:   7    -0.230430790736E+03    0.17504E-04   -0.28562E-05  1239   0.927E-03    0.240E-02
RMM:   8    -0.230430785868E+03    0.48678E-05   -0.73757E-06  1038   0.487E-03
   40 T=   291. E= -.22963570E+03 F= -.23043079E+03 E0= -.23041954E+03  EK= 0.79046E+00 SP= 0.46E-02 SK= 0.60E-04
       N       E                     dE             d eps       ncg     rms          rms(c)
DAV:   1    -0.230427484220E+03    0.33065E-02   -0.35224E-01  1920   0.117E+00    0.100E-01
RMM:   2    -0.230428115298E+03   -0.63108E-03   -0.69248E-03  1929   0.143E-01    0.630E-02
RMM:   3    -0.230428203521E+03   -0.88223E-04   -0.32305E-04  1933   0.310E-02    0.103E-01
RMM:   4    -0.230428141922E+03    0.61599E-04   -0.72699E-05  1820   0.141E-02    0.837E-02
RMM:   5    -0.230428066635E+03    0.75287E-04   -0.55681E-05  1662   0.119E-02    0.469E-02
RMM:   6    -0.230428090188E+03   -0.23553E-04   -0.60950E-05  1703   0.129E-02    0.485E-02
RMM:   7    -0.230428069539E+03    0.20649E-04   -0.30169E-05  1268   0.953E-03    0.235E-02
RMM:   8    -0.230428063724E+03    0.58144E-05   -0.83863E-06  1035   0.530E-03
   41 T=   291. E= -.22963570E+03 F= -.23042806E+03 E0= -.23041684E+03  EK= 0.78954E+00 SP= 0.27E-02 SK= 0.12E-03
       N       E                     dE             d eps       ncg     rms          rms(c)
DAV:   1    -0.230426803527E+03    0.12660E-02   -0.35258E-01  1920   0.117E+00    0.103E-01
RMM:   2    -0.230427438492E+03   -0.63497E-03   -0.69630E-03  1930   0.144E-01    0.660E-02
RMM:   3    -0.230427506191E+03   -0.67699E-04   -0.33991E-04  1936   0.317E-02    0.100E-01
RMM:   4    -0.230427466317E+03    0.39874E-04   -0.85559E-05  1887   0.154E-02    0.835E-02
RMM:   5    -0.230427395763E+03    0.70554E-04   -0.44797E-05  1517   0.106E-02    0.543E-02
RMM:   6    -0.230427412720E+03   -0.16957E-04   -0.63053E-05  1696   0.129E-02    0.490E-02
RMM:   7    -0.230427390423E+03    0.22297E-04   -0.31663E-05  1294   0.982E-03    0.229E-02
RMM:   8    -0.230427384429E+03    0.59938E-05   -0.91253E-06  1036   0.556E-03
   42 T=   291. E= -.22963571E+03 F= -.23042738E+03 E0= -.23041619E+03  EK= 0.79123E+00 SP= 0.25E-03 SK= 0.19E-03
       N       E                     dE             d eps       ncg     rms          rms(c)
DAV:   1    -0.230427977137E+03   -0.58671E-03   -0.35653E-01  1920   0.119E+00    0.107E-01
RMM:   2    -0.230428625523E+03   -0.64839E-03   -0.71473E-03  1930   0.145E-01    0.706E-02
RMM:   3    -0.230428687303E+03   -0.61780E-04   -0.36395E-04  1931   0.327E-02    0.104E-01
RMM:   4    -0.230428623578E+03    0.63725E-04   -0.10276E-04  1911   0.170E-02    0.740E-02
RMM:   5    -0.230428597061E+03    0.26516E-04   -0.41847E-05  1467   0.103E-02    0.670E-02
RMM:   6    -0.230428592857E+03    0.42044E-05   -0.65550E-05  1721   0.131E-02    0.500E-02
RMM:   7    -0.230428567691E+03    0.25166E-04   -0.33839E-05  1348   0.101E-02    0.231E-02
RMM:   8    -0.230428561697E+03    0.59942E-05   -0.10410E-05  1037   0.592E-03
   43 T=   293. E= -.22963574E+03 F= -.23042856E+03 E0= -.23041741E+03  EK= 0.79532E+00 SP= -.28E-02 SK= 0.27E-03
       N       E                     dE             d eps       ncg     rms          rms(c)
DAV:   1    -0.230430466493E+03   -0.18988E-02   -0.36376E-01  1952   0.120E+00    0.111E-01
RMM:   2    -0.230431138069E+03   -0.67158E-03   -0.74764E-03  1930   0.148E-01    0.763E-02
RMM:   3    -0.230431196489E+03   -0.58420E-04   -0.39538E-04  1934   0.339E-02    0.111E-01
RMM:   4    -0.230431095890E+03    0.10060E-03   -0.12084E-04  1918   0.185E-02    0.635E-02
RMM:   5    -0.230431145529E+03   -0.49639E-04   -0.50690E-05  1604   0.113E-02    0.865E-02
RMM:   6    -0.230431092224E+03    0.53306E-04   -0.65156E-05  1719   0.129E-02    0.527E-02
RMM:   7    -0.230431062898E+03    0.29326E-04   -0.37593E-05  1416   0.105E-02    0.237E-02
RMM:   8    -0.230431056956E+03    0.59419E-05   -0.12033E-05  1045   0.631E-03
   44 T=   295. E= -.22963578E+03 F= -.23043106E+03 E0= -.23041994E+03  EK= 0.80119E+00 SP= -.63E-02 SK= 0.34E-03
       N       E                     dE             d eps       ncg     rms          rms(c)
DAV:   1    -0.230433514401E+03   -0.24515E-02   -0.37334E-01  1952   0.122E+00    0.116E-01
RMM:   2    -0.230434213820E+03   -0.69942E-03   -0.78746E-03  1928   0.151E-01    0.823E-02
RMM:   3    -0.230434270116E+03   -0.56296E-04   -0.43023E-04  1931   0.352E-02    0.118E-01
RMM:   4    -0.230434138028E+03    0.13209E-03   -0.13933E-04  1921   0.198E-02    0.577E-02
RMM:   5    -0.230434256008E+03   -0.11798E-03   -0.76281E-05  1801   0.140E-02    0.982E-02
RMM:   6    -0.230434159205E+03    0.96802E-04   -0.55448E-05  1655   0.117E-02    0.602E-02
RMM:   7    -0.230434118800E+03    0.40405E-04   -0.42178E-05  1480   0.110E-02    0.248E-02
RMM:   8    -0.230434112941E+03    0.58591E-05   -0.13644E-05  1055   0.668E-03
   45 T=   298. E= -.22963582E+03 F= -.23043411E+03 E0= -.23042304E+03  EK= 0.80797E+00 SP= -.10E-01 SK= 0.38E-03
       N       E                     dE             d eps       ncg     rms          rms(c)
DAV:   1    -0.230436273607E+03   -0.21548E-02   -0.38407E-01  1952   0.124E+00    0.121E-01
RMM:   2    -0.230437005707E+03   -0.73210E-03   -0.83182E-03  1929   0.155E-01    0.881E-02
RMM:   3    -0.230437058575E+03   -0.52869E-04   -0.46303E-04  1932   0.363E-02    0.125E-01
RMM:   4    -0.230436905795E+03    0.15278E-03   -0.15586E-04  1920   0.208E-02    0.583E-02
RMM:   5    -0.230436931849E+03   -0.26055E-04   -0.10939E-04  1885   0.172E-02    0.558E-02
RMM:   6    -0.230436947341E+03   -0.15492E-04   -0.52888E-05  1678   0.119E-02    0.655E-02
RMM:   7    -0.230436899297E+03    0.48044E-04   -0.19671E-05  1143   0.737E-03    0.344E-02
RMM:   8    -0.230436885477E+03    0.13821E-04   -0.14781E-05  1079   0.678E-03    0.131E-02
RMM:   9    -0.230436884801E+03    0.67561E-06   -0.35314E-06  1026   0.369E-03
   46 T=   300. E= -.22963586E+03 F= -.23043688E+03 E0= -.23042584E+03  EK= 0.81464E+00 SP= -.14E-01 SK= 0.40E-03
       N       E                     dE             d eps       ncg     rms          rms(c)
DAV:   1    -0.230437918186E+03   -0.10327E-02   -0.39466E-01  1984   0.126E+00    0.124E-01
RMM:   2    -0.230438689097E+03   -0.77091E-03   -0.87651E-03  1929   0.159E-01    0.942E-02
RMM:   3    -0.230438731434E+03   -0.42337E-04   -0.49247E-04  1931   0.373E-02    0.130E-01
RMM:   4    -0.230438577538E+03    0.15390E-03   -0.16539E-04  1913   0.211E-02    0.668E-02
RMM:   5    -0.230438645561E+03   -0.68023E-04   -0.11650E-04  1875   0.175E-02    0.854E-02
RMM:   6    -0.230438653778E+03   -0.82170E-05   -0.53052E-05  1643   0.116E-02    0.795E-02
RMM:   7    -0.230438549633E+03    0.10414E-03   -0.47967E-05  1564   0.114E-02    0.208E-02
RMM:   8    -0.230438547778E+03    0.18556E-05   -0.14231E-05  1075   0.672E-03
   47 T=   302. E= -.22963589E+03 F= -.23043855E+03 E0= -.23042758E+03  EK= 0.82024E+00 SP= -.18E-01 SK= 0.38E-03
       N       E                     dE             d eps       ncg     rms          rms(c)
DAV:   1    -0.230437804137E+03    0.74550E-03   -0.40379E-01  1952   0.128E+00    0.128E-01
RMM:   2    -0.230438609738E+03   -0.80560E-03   -0.91805E-03  1931   0.162E-01    0.982E-02
RMM:   3    -0.230438646259E+03   -0.36521E-04   -0.52033E-04  1932   0.384E-02    0.132E-01
RMM:   4    -0.230438484868E+03    0.16139E-03   -0.17949E-04  1924   0.222E-02    0.687E-02
RMM:   5    -0.230438582899E+03   -0.98031E-04   -0.12027E-04  1879   0.177E-02    0.991E-02
RMM:   6    -0.230438538570E+03    0.44328E-04   -0.58415E-05  1685   0.122E-02    0.725E-02
RMM:   7    -0.230438457952E+03    0.80618E-04   -0.51802E-05  1614   0.118E-02    0.282E-02
RMM:   8    -0.230438451131E+03    0.68215E-05   -0.18372E-05  1107   0.758E-03
   48 T=   304. E= -.22963589E+03 F= -.23043845E+03 E0= -.23042754E+03  EK= 0.82398E+00 SP= -.22E-01 SK= 0.34E-03
       N       E                     dE             d eps       ncg     rms          rms(c)
DAV:   1    -0.230435557088E+03    0.29009E-02   -0.41084E-01  1920   0.130E+00    0.129E-01
RMM:   2    -0.230436388292E+03   -0.83120E-03   -0.95057E-03  1931   0.165E-01    0.988E-02
RMM:   3    -0.230436428219E+03   -0.39927E-04   -0.52114E-04  1932   0.384E-02    0.135E-01
RMM:   4    -0.230436270050E+03    0.15817E-03   -0.18048E-04  1923   0.221E-02    0.739E-02
RMM:   5    -0.230436434975E+03   -0.16493E-03   -0.10861E-04  1871   0.166E-02    0.120E-01
RMM:   6    -0.230436281460E+03    0.15351E-03   -0.74976E-05  1806   0.139E-02    0.581E-02
RMM:   7    -0.230436233296E+03    0.48165E-04   -0.54813E-05  1649   0.121E-02    0.285E-02
RMM:   8    -0.230436227490E+03    0.58052E-05   -0.18287E-05  1109   0.759E-03
   49 T=   304. E= -.22963588E+03 F= -.23043623E+03 E0= -.23042538E+03  EK= 0.82538E+00 SP= -.25E-01 SK= 0.29E-03
       N       E                     dE             d eps       ncg     rms          rms(c)
DAV:   1    -0.230431096673E+03    0.51366E-02   -0.41546E-01  1952   0.131E+00    0.129E-01
RMM:   2    -0.230431951136E+03   -0.85446E-03   -0.97159E-03  1931   0.166E-01    0.997E-02
RMM:   3    -0.230431993295E+03   -0.42158E-04   -0.52811E-04  1932   0.386E-02    0.137E-01
RMM:   4    -0.230431838967E+03    0.15433E-03   -0.17898E-04  1924   0.220E-02    0.778E-02
RMM:   5    -0.230431993781E+03   -0.15481E-03   -0.98116E-05  1861   0.157E-02    0.119E-01
RMM:   6    -0.230431833735E+03    0.16005E-03   -0.84336E-05  1852   0.149E-02    0.547E-02
RMM:   7    -0.230431793475E+03    0.40260E-04   -0.55174E-05  1663   0.122E-02    0.288E-02
RMM:   8    -0.230431788194E+03    0.52807E-05   -0.18580E-05  1111   0.766E-03
   50 T=   304. E= -.22963584E+03 F= -.23043179E+03 E0= -.23042100E+03  EK= 0.82432E+00 SP= -.29E-01 SK= 0.25E-03
       N       E                     dE             d eps       ncg     rms          rms(c)
DAV:   1    -0.230424627992E+03    0.71655E-02   -0.41770E-01  1920   0.132E+00    0.128E-01
RMM:   2    -0.230425498566E+03   -0.87057E-03   -0.98169E-03  1931   0.167E-01    0.991E-02
RMM:   3    -0.230425541498E+03   -0.42932E-04   -0.52693E-04  1932   0.386E-02    0.137E-01
RMM:   4    -0.230425384814E+03    0.15668E-03   -0.17416E-04  1923   0.218E-02    0.761E-02
RMM:   5    -0.230425534077E+03   -0.14926E-03   -0.93944E-05  1846   0.154E-02    0.117E-01
RMM:   6    -0.230425382210E+03    0.15187E-03   -0.81472E-05  1849   0.146E-02    0.541E-02
RMM:   7    -0.230425343645E+03    0.38565E-04   -0.54785E-05  1662   0.122E-02    0.288E-02
RMM:   8    -0.230425338721E+03    0.49245E-05   -0.18721E-05  1114   0.770E-03
   51 T=   302. E= -.22963579E+03 F= -.23042534E+03 E0= -.23041461E+03  EK= 0.82099E+00 SP= -.32E-01 SK= 0.21E-03
       N       E                     dE             d eps       ncg     rms          rms(c)
DAV:   1    -0.230416576300E+03    0.87673E-02   -0.41806E-01  1920   0.133E+00    0.127E-01
RMM:   2    -0.230417456950E+03   -0.88065E-03   -0.98274E-03  1931   0.167E-01    0.974E-02
RMM:   3    -0.230417502246E+03   -0.45296E-04   -0.52086E-04  1931   0.384E-02    0.136E-01
RMM:   4    -0.230417339740E+03    0.16251E-03   -0.16711E-04  1925   0.214E-02    0.712E-02
RMM:   5    -0.230417485593E+03   -0.14585E-03   -0.91050E-05  1839   0.152E-02    0.113E-01
RMM:   6    -0.230417349151E+03    0.13644E-03   -0.72712E-05  1805   0.138E-02    0.547E-02
RMM:   7    -0.230417309763E+03    0.39387E-04   -0.53615E-05  1634   0.121E-02    0.284E-02
RMM:   8    -0.230417305138E+03    0.46251E-05   -0.18619E-05  1110   0.770E-03
   52 T=   301. E= -.22963574E+03 F= -.23041731E+03 E0= -.23040665E+03  EK= 0.81590E+00 SP= -.35E-01 SK= 0.20E-03
       N       E                     dE             d eps       ncg     rms          rms(c)
DAV:   1    -0.230407557880E+03    0.97519E-02   -0.41737E-01  1920   0.133E+00    0.125E-01
RMM:   2    -0.230408442615E+03   -0.88474E-03   -0.97655E-03  1930   0.167E-01    0.948E-02
RMM:   3    -0.230408491805E+03   -0.49190E-04   -0.51411E-04  1935   0.382E-02    0.134E-01
RMM:   4    -0.230408321898E+03    0.16991E-03   -0.15711E-04  1921   0.209E-02    0.645E-02
RMM:   5    -0.230408445944E+03   -0.12405E-03   -0.89733E-05  1834   0.152E-02    0.104E-01
RMM:   6    -0.230408351775E+03    0.94169E-04   -0.58511E-05  1688   0.123E-02    0.582E-02
RMM:   7    -0.230408305691E+03    0.46084E-04   -0.51157E-05  1597   0.119E-02    0.277E-02
RMM:   8    -0.230408301196E+03    0.44946E-05   -0.18178E-05  1106   0.763E-03
   53 T=   298. E= -.22963568E+03 F= -.23040830E+03 E0= -.23039771E+03  EK= 0.80978E+00 SP= -.37E-01 SK= 0.20E-03
       N       E                     dE             d eps       ncg     rms          rms(c)
DAV:   1    -0.230398306052E+03    0.99996E-02   -0.41668E-01  1920   0.134E+00    0.123E-01
RMM:   2    -0.230399184675E+03   -0.87862E-03   -0.96047E-03  1929   0.166E-01    0.912E-02
RMM:   3    -0.230399245486E+03   -0.60811E-04   -0.50660E-04  1935   0.380E-02    0.132E-01
RMM:   4    -0.230399067746E+03    0.17774E-03   -0.14949E-04  1922   0.204E-02    0.571E-02
RMM:   5    -0.230399114000E+03   -0.46254E-04   -0.90250E-05  1831   0.155E-02    0.701E-02
RMM:   6    -0.230399155065E+03   -0.41066E-04   -0.44289E-05  1537   0.108E-02    0.778E-02
RMM:   7    -0.230399065607E+03    0.89458E-04   -0.41605E-05  1483   0.107E-02    0.276E-02
RMM:   8    -0.230399059876E+03    0.57313E-05   -0.17545E-05  1105   0.751E-03
   54 T=   296. E= -.22963562E+03 F= -.23039906E+03 E0= -.23038853E+03  EK= 0.80352E+00 SP= -.40E-01 SK= 0.23E-03
       N       E                     dE             d eps       ncg     rms          rms(c)
DAV:   1    -0.230389558974E+03    0.95066E-02   -0.41709E-01  1920   0.135E+00    0.121E-01
RMM:   2    -0.230390431894E+03   -0.87292E-03   -0.94342E-03  1929   0.165E-01    0.870E-02
RMM:   3    -0.230390505455E+03   -0.73561E-04   -0.49919E-04  1935   0.377E-02    0.131E-01
RMM:   4    -0.230390324998E+03    0.18046E-03   -0.13990E-04  1918   0.199E-02    0.523E-02
RMM:   5    -0.230390398733E+03   -0.73735E-04   -0.74556E-05  1805   0.142E-02    0.741E-02
RMM:   6    -0.230390377825E+03    0.20908E-04   -0.39225E-05  1417   0.100E-02    0.691E-02
RMM:   7    -0.230390324957E+03    0.52868E-04   -0.42403E-05  1491   0.110E-02    0.265E-02
RMM:   8    -0.230390320287E+03    0.46702E-05   -0.16295E-05  1090   0.736E-03
   55 T=   294. E= -.22963558E+03 F= -.23039032E+03 E0= -.23037986E+03  EK= 0.79797E+00 SP= -.44E-01 SK= 0.28E-03
       N       E                     dE             d eps       ncg     rms          rms(c)
DAV:   1    -0.230381919735E+03    0.84052E-02   -0.41955E-01  1920   0.136E+00    0.119E-01
RMM:   2    -0.230382794905E+03   -0.87517E-03   -0.93359E-03  1929   0.164E-01    0.835E-02
RMM:   3    -0.230382880131E+03   -0.85226E-04   -0.49639E-04  1936   0.376E-02    0.132E-01
RMM:   4    -0.230382695750E+03    0.18438E-03   -0.13286E-04  1916   0.194E-02    0.499E-02
RMM:   5    -0.230382762060E+03   -0.66311E-04   -0.62165E-05  1726   0.129E-02    0.717E-02
RMM:   6    -0.230382739041E+03    0.23019E-04   -0.36983E-05  1380   0.977E-03    0.642E-02
RMM:   7    -0.230382695379E+03    0.43662E-04   -0.39612E-05  1444   0.109E-02    0.249E-02
RMM:   8    -0.230382690358E+03    0.50204E-05   -0.14539E-05  1067   0.701E-03
   56 T=   292. E= -.22963555E+03 F= -.23038269E+03 E0= -.23037230E+03  EK= 0.79390E+00 SP= -.47E-01 SK= 0.37E-03
       N       E                     dE             d eps       ncg     rms          rms(c)
DAV:   1    -0.230375848113E+03    0.68473E-02   -0.42474E-01  1920   0.137E+00    0.118E-01
RMM:   2    -0.230376732020E+03   -0.88391E-03   -0.93483E-03  1930   0.164E-01    0.803E-02
RMM:   3    -0.230376828068E+03   -0.96049E-04   -0.48953E-04  1937   0.374E-02    0.132E-01
RMM:   4    -0.230376645768E+03    0.18230E-03   -0.12724E-04  1917   0.190E-02    0.515E-02
RMM:   5    -0.230376703493E+03   -0.57725E-04   -0.41925E-05  1480   0.106E-02    0.764E-02
RMM:   6    -0.230376659181E+03    0.44313E-04   -0.44701E-05  1485   0.108E-02    0.501E-02
RMM:   7    -0.230376638230E+03    0.20950E-04   -0.37553E-05  1405   0.108E-02    0.238E-02
RMM:   8    -0.230376632134E+03    0.60960E-05   -0.12578E-05  1047   0.659E-03
   57 T=   292. E= -.22963551E+03 F= -.23037663E+03 E0= -.23036630E+03  EK= 0.79186E+00 SP= -.51E-01 SK= 0.48E-03
       N       E                     dE             d eps       ncg     rms          rms(c)
DAV:   1    -0.230371644640E+03    0.49936E-02   -0.43311E-01  1920   0.138E+00    0.118E-01
RMM:   2    -0.230372549281E+03   -0.90464E-03   -0.95353E-03  1929   0.166E-01    0.780E-02
RMM:   3    -0.230372651539E+03   -0.10226E-03   -0.48833E-04  1937   0.375E-02    0.131E-01
RMM:   4    -0.230372478514E+03    0.17303E-03   -0.12397E-04  1917   0.187E-02    0.578E-02
RMM:   5    -0.230372495089E+03   -0.16575E-04   -0.32159E-05  1333   0.929E-03    0.675E-02
RMM:   6    -0.230372471958E+03    0.23131E-04   -0.49931E-05  1533   0.113E-02    0.451E-02
RMM:   7    -0.230372457819E+03    0.14139E-04   -0.36592E-05  1374   0.108E-02    0.237E-02
RMM:   8    -0.230372450267E+03    0.75525E-05   -0.11003E-05  1038   0.624E-03
   58 T=   292. E= -.22963550E+03 F= -.23037245E+03 E0= -.23036219E+03  EK= 0.79222E+00 SP= -.56E-01 SK= 0.60E-03
       N       E                     dE             d eps       ncg     rms          rms(c)
DAV:   1    -0.230369387067E+03    0.30708E-02   -0.44483E-01  1920   0.140E+00    0.119E-01
RMM:   2    -0.230370326488E+03   -0.93942E-03   -0.99079E-03  1930   0.169E-01    0.768E-02
RMM:   3    -0.230370427425E+03   -0.10094E-03   -0.48765E-04  1934   0.376E-02    0.131E-01
RMM:   4    -0.230370263803E+03    0.16362E-03   -0.12460E-04  1922   0.188E-02    0.631E-02
RMM:   5    -0.230370255997E+03    0.78064E-05   -0.30990E-05  1314   0.909E-03    0.628E-02
RMM:   6    -0.230370243335E+03    0.12661E-04   -0.51720E-05  1549   0.115E-02    0.440E-02
RMM:   7    -0.230370230201E+03    0.13134E-04   -0.37591E-05  1389   0.109E-02    0.240E-02
RMM:   8    -0.230370221906E+03    0.82946E-05   -0.10231E-05  1036   0.604E-03
   59 T=   293. E= -.22963549E+03 F= -.23037022E+03 E0= -.23036002E+03  EK= 0.79505E+00 SP= -.61E-01 SK= 0.74E-03
       N       E                     dE             d eps       ncg     rms          rms(c)
DAV:   1    -0.230368918478E+03    0.13117E-02   -0.45963E-01  1920   0.142E+00    0.120E-01
RMM:   2    -0.230369904551E+03   -0.98607E-03   -0.10443E-02  1930   0.172E-01    0.768E-02
RMM:   3    -0.230370001391E+03   -0.96840E-04   -0.49546E-04  1932   0.380E-02    0.131E-01
RMM:   4    -0.230369851395E+03    0.15000E-03   -0.12659E-04  1926   0.190E-02    0.705E-02
RMM:   5    -0.230369819585E+03    0.31810E-04   -0.33858E-05  1349   0.941E-03    0.610E-02
RMM:   6    -0.230369812640E+03    0.69446E-05   -0.54958E-05  1577   0.119E-02    0.443E-02
RMM:   7    -0.230369797601E+03    0.15040E-04   -0.39465E-05  1414   0.111E-02    0.242E-02
RMM:   8    -0.230369789546E+03    0.80548E-05   -0.10533E-05  1037   0.612E-03
   60 T=   295. E= -.22963550E+03 F= -.23036979E+03 E0= -.23035966E+03  EK= 0.80015E+00 SP= -.67E-01 SK= 0.86E-03
       N       E                     dE             d eps       ncg     rms          rms(c)
DAV:   1    -0.230369866878E+03   -0.69277E-04   -0.47685E-01  1952   0.145E+00    0.123E-01
RMM:   2    -0.230370909777E+03   -0.10429E-02   -0.11114E-02  1929   0.177E-01    0.780E-02
RMM:   3    -0.230371000540E+03   -0.90763E-04   -0.50929E-04  1931   0.384E-02    0.130E-01
RMM:   4    -0.230370867951E+03    0.13259E-03   -0.12961E-04  1925   0.192E-02    0.795E-02
RMM:   5    -0.230370810974E+03    0.56977E-04   -0.40426E-05  1451   0.102E-02    0.615E-02
RMM:   6    -0.230370806045E+03    0.49292E-05   -0.59773E-05  1631   0.125E-02    0.458E-02
RMM:   7    -0.230370787829E+03    0.18216E-04   -0.42061E-05  1454   0.113E-02    0.244E-02
RMM:   8    -0.230370780351E+03    0.74781E-05   -0.11600E-05  1049   0.638E-03
   61 T=   297. E= -.22963552E+03 F= -.23037078E+03 E0= -.23036072E+03  EK= 0.80704E+00 SP= -.73E-01 SK= 0.94E-03
       N       E                     dE             d eps       ncg     rms          rms(c)
DAV:   1    -0.230371648385E+03   -0.86056E-03   -0.49559E-01  1920   0.147E+00    0.126E-01
RMM:   2    -0.230372756124E+03   -0.11077E-02   -0.11881E-02  1929   0.182E-01    0.804E-02
RMM:   3    -0.230372838564E+03   -0.82441E-04   -0.52886E-04  1930   0.391E-02    0.130E-01
RMM:   4    -0.230372721919E+03    0.11665E-03   -0.13429E-04  1925   0.195E-02    0.877E-02
RMM:   5    -0.230372643865E+03    0.78053E-04   -0.49535E-05  1580   0.111E-02    0.642E-02
RMM:   6    -0.230372637359E+03    0.65062E-05   -0.65637E-05  1672   0.131E-02    0.479E-02
RMM:   7    -0.230372615835E+03    0.21524E-04   -0.45733E-05  1523   0.116E-02    0.255E-02
RMM:   8    -0.230372608539E+03    0.72961E-05   -0.13150E-05  1056   0.672E-03
   62 T=   300. E= -.22963554E+03 F= -.23037261E+03 E0= -.23036261E+03  EK= 0.81499E+00 SP= -.79E-01 SK= 0.96E-03
       N       E                     dE             d eps       ncg     rms          rms(c)
DAV:   1    -0.230373569989E+03   -0.95415E-03   -0.51468E-01  1952   0.150E+00    0.129E-01
RMM:   2    -0.230374740131E+03   -0.11701E-02   -0.12642E-02  1929   0.186E-01    0.831E-02
RMM:   3    -0.230374816915E+03   -0.76784E-04   -0.54909E-04  1931   0.397E-02    0.131E-01
RMM:   4    -0.230374713587E+03    0.10333E-03   -0.13881E-04  1926   0.198E-02    0.956E-02
RMM:   5    -0.230374614331E+03    0.99256E-04   -0.60656E-05  1696   0.122E-02    0.672E-02
RMM:   6    -0.230374605943E+03    0.83877E-05   -0.72172E-05  1717   0.137E-02    0.502E-02
RMM:   7    -0.230374581837E+03    0.24106E-04   -0.49871E-05  1571   0.119E-02    0.270E-02
RMM:   8    -0.230374574250E+03    0.75864E-05   -0.14774E-05  1076   0.706E-03
   63 T=   303. E= -.22963556E+03 F= -.23037457E+03 E0= -.23036464E+03  EK= 0.82313E+00 SP= -.85E-01 SK= 0.92E-03
       N       E                     dE             d eps       ncg     rms          rms(c)
DAV:   1    -0.230374858811E+03   -0.27697E-03   -0.53274E-01  1920   0.152E+00    0.132E-01
RMM:   2    -0.230376076541E+03   -0.12177E-02   -0.13269E-02  1930   0.190E-01    0.856E-02
RMM:   3    -0.230376154132E+03   -0.77592E-04   -0.56774E-04  1930   0.403E-02    0.134E-01
RMM:   4    -0.230376056574E+03    0.97558E-04   -0.14313E-04  1927   0.200E-02    0.102E-01
RMM:   5    -0.230375939293E+03    0.11728E-03   -0.72781E-05  1777   0.134E-02    0.699E-02
RMM:   6    -0.230375928602E+03    0.10691E-04   -0.78393E-05  1738   0.143E-02    0.521E-02
RMM:   7    -0.230375902682E+03    0.25920E-04   -0.53522E-05  1617   0.123E-02    0.285E-02
RMM:   8    -0.230375894644E+03    0.80379E-05   -0.16044E-05  1091   0.731E-03
   64 T=   306. E= -.22963557E+03 F= -.23037589E+03 E0= -.23036603E+03  EK= 0.83047E+00 SP= -.91E-01 SK= 0.83E-03
       N       E                     dE             d eps       ncg     rms          rms(c)
DAV:   1    -0.230374800634E+03    0.11020E-02   -0.54829E-01  1920   0.153E+00    0.135E-01
RMM:   2    -0.230376041122E+03   -0.12405E-02   -0.13653E-02  1930   0.193E-01    0.873E-02
RMM:   3    -0.230376134474E+03   -0.93352E-04   -0.58386E-04  1929   0.408E-02    0.139E-01
RMM:   4    -0.230376029262E+03    0.10521E-03   -0.14606E-04  1928   0.201E-02    0.108E-01
RMM:   5    -0.230375895898E+03    0.13336E-03   -0.86299E-05  1829   0.146E-02    0.711E-02
RMM:   6    -0.230375884677E+03    0.11221E-04   -0.83647E-05  1772   0.148E-02    0.537E-02
RMM:   7    -0.230375857629E+03    0.27048E-04   -0.55688E-05  1630   0.124E-02    0.296E-02
RMM:   8    -0.230375849265E+03    0.83642E-05   -0.16746E-05  1097   0.745E-03
   65 T=   308. E= -.22963558E+03 F= -.23037585E+03 E0= -.23036605E+03  EK= 0.83608E+00 SP= -.97E-01 SK= 0.70E-03
       N       E                     dE             d eps       ncg     rms          rms(c)
DAV:   1    -0.230372819186E+03    0.30384E-02   -0.55994E-01  1952   0.154E+00    0.138E-01
RMM:   2    -0.230374057716E+03   -0.12385E-02   -0.13774E-02  1929   0.194E-01    0.881E-02
RMM:   3    -0.230374183288E+03   -0.12557E-03   -0.59764E-04  1930   0.413E-02    0.145E-01
RMM:   4    -0.230374052759E+03    0.13053E-03   -0.14862E-04  1929   0.202E-02    0.111E-01
RMM:   5    -0.230373909180E+03    0.14358E-03   -0.98940E-05  1857   0.156E-02    0.708E-02
RMM:   6    -0.230373899331E+03    0.98485E-05   -0.86943E-05  1790   0.151E-02    0.547E-02
RMM:   7    -0.230373871588E+03    0.27743E-04   -0.56387E-05  1634   0.125E-02    0.302E-02
RMM:   8    -0.230373863178E+03    0.84104E-05   -0.16865E-05  1100   0.747E-03
   66 T=   309. E= -.22963557E+03 F= -.23037386E+03 E0= -.23036412E+03  EK= 0.83924E+00 SP= -.10E+00 SK= 0.55E-03
       N       E                     dE             d eps       ncg     rms          rms(c)
DAV:   1    -0.230368528649E+03    0.53429E-02   -0.56666E-01  1952   0.155E+00    0.140E-01
RMM:   2    -0.230369750718E+03   -0.12221E-02   -0.13709E-02  1931   0.193E-01    0.881E-02
RMM:   3    -0.230369923272E+03   -0.17255E-03   -0.60276E-04  1930   0.414E-02    0.154E-01
RMM:   4    -0.230369747396E+03    0.17588E-03   -0.14856E-04  1925   0.201E-02    0.112E-01
RMM:   5    -0.230369601433E+03    0.14596E-03   -0.10932E-04  1885   0.165E-02    0.691E-02
RMM:   6    -0.230369595165E+03    0.62685E-05   -0.88098E-05  1800   0.152E-02    0.553E-02
RMM:   7    -0.230369566987E+03    0.28177E-04   -0.55876E-05  1629   0.124E-02    0.303E-02
RMM:   8    -0.230369558839E+03    0.81478E-05   -0.16609E-05  1098   0.742E-03
   67 T=   309. E= -.22963554E+03 F= -.23036956E+03 E0= -.23035988E+03  EK= 0.83948E+00 SP= -.11E+00 SK= 0.41E-03
       N       E                     dE             d eps       ncg     rms          rms(c)
DAV:   1    -0.230361875375E+03    0.76916E-02   -0.56780E-01  1952   0.155E+00    0.141E-01
RMM:   2    -0.230363075100E+03   -0.11997E-02   -0.13509E-02  1930   0.192E-01    0.873E-02
RMM:   3    -0.230363311620E+03   -0.23652E-03   -0.60364E-04  1930   0.415E-02    0.165E-01
RMM:   4    -0.230363067049E+03    0.24457E-03   -0.14867E-04  1927   0.200E-02    0.109E-01
RMM:   5    -0.230362928148E+03    0.13890E-03   -0.11641E-04  1894   0.171E-02    0.661E-02
RMM:   6    -0.230362926878E+03    0.12699E-05   -0.87070E-05  1796   0.151E-02    0.555E-02
RMM:   7    -0.230362898794E+03    0.28084E-04   -0.54427E-05  1606   0.122E-02    0.300E-02
RMM:   8    -0.230362891107E+03    0.76868E-05   -0.16055E-05  1089   0.730E-03
   68 T=   308. E= -.22963550E+03 F= -.23036289E+03 E0= -.23035327E+03  EK= 0.83673E+00 SP= -.11E+00 SK= 0.30E-03
       N       E                     dE             d eps       ncg     rms          rms(c)
DAV:   1    -0.230353187647E+03    0.97111E-02   -0.56349E-01  1952   0.154E+00    0.140E-01
RMM:   2    -0.230354356903E+03   -0.11693E-02   -0.13149E-02  1930   0.190E-01    0.859E-02
RMM:   3    -0.230354672322E+03   -0.31542E-03   -0.59559E-04  1930   0.412E-02    0.178E-01
RMM:   4    -0.230354341253E+03    0.33107E-03   -0.14846E-04  1928   0.199E-02    0.104E-01
RMM:   5    -0.230354214407E+03    0.12685E-03   -0.11872E-04  1895   0.174E-02    0.621E-02
RMM:   6    -0.230354219276E+03   -0.48693E-05   -0.83882E-05  1791   0.148E-02    0.553E-02
RMM:   7    -0.230354191931E+03    0.27346E-04   -0.51872E-05  1583   0.119E-02    0.293E-02
RMM:   8    -0.230354184884E+03    0.70464E-05   -0.15091E-05  1079   0.709E-03
   69 T=   306. E= -.22963542E+03 F= -.23035418E+03 E0= -.23034462E+03  EK= 0.83138E+00 SP= -.11E+00 SK= 0.22E-03
       N       E                     dE             d eps       ncg     rms          rms(c)
DAV:   1    -0.230343137218E+03    0.11055E-01   -0.55474E-01  1952   0.153E+00    0.139E-01
RMM:   2    -0.230344268480E+03   -0.11313E-02   -0.12651E-02  1930   0.186E-01    0.838E-02
RMM:   3    -0.230344678687E+03   -0.41021E-03   -0.58219E-04  1930   0.407E-02    0.192E-01
RMM:   4    -0.230344245895E+03    0.43279E-03   -0.14962E-04  1923   0.199E-02    0.985E-02
RMM:   5    -0.230344132345E+03    0.11355E-03   -0.11648E-04  1896   0.173E-02    0.571E-02
RMM:   6    -0.230344144152E+03   -0.11807E-04   -0.78922E-05  1781   0.144E-02    0.546E-02
RMM:   7    -0.230344118153E+03    0.25999E-04   -0.48245E-05  1516   0.116E-02    0.283E-02
RMM:   8    -0.230344111769E+03    0.63839E-05   -0.13900E-05  1069   0.684E-03
   70 T=   304. E= -.22963534E+03 F= -.23034411E+03 E0= -.23033460E+03  EK= 0.82422E+00 SP= -.12E+00 SK= 0.17E-03
       N       E                     dE             d eps       ncg     rms          rms(c)
DAV:   1    -0.230332624526E+03    0.11494E-01   -0.54279E-01  1952   0.152E+00    0.137E-01
RMM:   2    -0.230333722915E+03   -0.10984E-02   -0.12137E-02  1932   0.183E-01    0.819E-02
RMM:   3    -0.230334235129E+03   -0.51221E-03   -0.56468E-04  1931   0.400E-02    0.207E-01
RMM:   4    -0.230333693062E+03    0.54207E-03   -0.15137E-04  1918   0.199E-02    0.919E-02
RMM:   5    -0.230333593138E+03    0.99924E-04   -0.11075E-04  1889   0.170E-02    0.520E-02
RMM:   6    -0.230333611625E+03   -0.18487E-04   -0.73064E-05  1758   0.139E-02    0.537E-02
RMM:   7    -0.230333587409E+03    0.24216E-04   -0.44423E-05  1473   0.112E-02    0.271E-02
RMM:   8    -0.230333581467E+03    0.59427E-05   -0.12475E-05  1056   0.650E-03
   71 T=   301. E= -.22963527E+03 F= -.23033358E+03 E0= -.23032413E+03  EK= 0.81631E+00 SP= -.12E+00 SK= 0.15E-03
       N       E                     dE             d eps       ncg     rms          rms(c)
DAV:   1    -0.230322669887E+03    0.10918E-01   -0.52961E-01  1952   0.150E+00    0.135E-01
RMM:   2    -0.230323739742E+03   -0.10699E-02   -0.11632E-02  1932   0.179E-01    0.804E-02
RMM:   3    -0.230324353582E+03   -0.61384E-03   -0.54999E-04  1932   0.394E-02    0.221E-01
RMM:   4    -0.230323703456E+03    0.65013E-03   -0.15550E-04  1917   0.201E-02    0.859E-02
RMM:   5    -0.230323615736E+03    0.87720E-04   -0.10331E-04  1885   0.165E-02    0.470E-02
RMM:   6    -0.230323639654E+03   -0.23919E-04   -0.67433E-05  1734   0.134E-02    0.524E-02
RMM:   7    -0.230323617611E+03    0.22044E-04   -0.40408E-05  1402   0.108E-02    0.258E-02
RMM:   8    -0.230323611843E+03    0.57684E-05   -0.10974E-05  1044   0.611E-03
   72 T=   298. E= -.22963519E+03 F= -.23032361E+03 E0= -.23031421E+03  EK= 0.80889E+00 SP= -.12E+00 SK= 0.16E-03
       N       E                     dE             d eps       ncg     rms          rms(c)
DAV:   1    -0.230314329820E+03    0.92878E-02   -0.51726E-01  1952   0.149E+00    0.133E-01
RMM:   2    -0.230315376891E+03   -0.10471E-02   -0.11191E-02  1931   0.175E-01    0.800E-02
RMM:   3    -0.230316085201E+03   -0.70831E-03   -0.54214E-04  1933   0.388E-02    0.234E-01
RMM:   4    -0.230315334388E+03    0.75081E-03   -0.16201E-04  1925   0.204E-02    0.810E-02
RMM:   5    -0.230315255984E+03    0.78404E-04   -0.96422E-05  1868   0.160E-02    0.428E-02
RMM:   6    -0.230315284458E+03   -0.28474E-04   -0.63388E-05  1714   0.130E-02    0.511E-02
RMM:   7    -0.230315264107E+03    0.20351E-04   -0.36854E-05  1338   0.104E-02    0.247E-02
RMM:   8    -0.230315258259E+03    0.58482E-05   -0.94303E-06  1038   0.568E-03
   73 T=   296. E= -.22963514E+03 F= -.23031526E+03 E0= -.23030591E+03  EK= 0.80316E+00 SP= -.12E+00 SK= 0.18E-03
       N       E                     dE             d eps       ncg     rms          rms(c)
DAV:   1    -0.230308391722E+03    0.68724E-02   -0.50768E-01  1920   0.148E+00    0.133E-01
RMM:   2    -0.230309421722E+03   -0.10300E-02   -0.10851E-02  1933   0.172E-01    0.813E-02
RMM:   3    -0.230310210742E+03   -0.78902E-03   -0.53334E-04  1934   0.384E-02    0.246E-01
RMM:   4    -0.230309372620E+03    0.83812E-03   -0.16865E-04  1916   0.208E-02    0.774E-02
RMM:   5    -0.230309301051E+03    0.71568E-04   -0.92566E-05  1856   0.158E-02    0.399E-02
RMM:   6    -0.230309332569E+03   -0.31517E-04   -0.62246E-05  1731   0.130E-02    0.497E-02
RMM:   7    -0.230309311784E+03    0.20785E-04   -0.34208E-05  1300   0.102E-02    0.231E-02
RMM:   8    -0.230309306444E+03    0.53397E-05   -0.81416E-06  1034   0.527E-03
   74 T=   295. E= -.22963510E+03 F= -.23030931E+03 E0= -.23030001E+03  EK= 0.80007E+00 SP= -.13E+00 SK= 0.23E-03
       N       E                     dE             d eps       ncg     rms          rms(c)
DAV:   1    -0.230305334016E+03    0.39778E-02   -0.50224E-01  1920   0.147E+00    0.134E-01
RMM:   2    -0.230306357509E+03   -0.10235E-02   -0.10671E-02  1933   0.171E-01    0.847E-02
RMM:   3    -0.230307209391E+03   -0.85188E-03   -0.53338E-04  1935   0.382E-02    0.256E-01
RMM:   4    -0.230306298430E+03    0.91096E-03   -0.17880E-04  1918   0.215E-02    0.754E-02
RMM:   5    -0.230306231839E+03    0.66590E-04   -0.93703E-05  1858   0.159E-02    0.388E-02
RMM:   6    -0.230306263927E+03   -0.32087E-04   -0.64032E-05  1768   0.133E-02    0.473E-02
RMM:   7    -0.230306240556E+03    0.23371E-04   -0.33189E-05  1304   0.101E-02    0.198E-02
RMM:   8    -0.230306237125E+03    0.34305E-05   -0.71647E-06  1033   0.491E-03
   75 T=   295. E= -.22963511E+03 F= -.23030624E+03 E0= -.23029700E+03  EK= 0.80015E+00 SP= -.13E+00 SK= 0.29E-03
       N       E                     dE             d eps       ncg     rms          rms(c)
DAV:   1    -0.230305117741E+03    0.11228E-02   -0.50166E-01  1920   0.147E+00    0.136E-01
RMM:   2    -0.230306144290E+03   -0.10265E-02   -0.10661E-02  1933   0.171E-01    0.901E-02
RMM:   3    -0.230307040826E+03   -0.89654E-03   -0.54165E-04  1934   0.383E-02    0.264E-01
RMM:   4    -0.230306071108E+03    0.96972E-03   -0.19223E-04  1923   0.223E-02    0.751E-02
RMM:   5    -0.230306009092E+03    0.62016E-04   -0.99722E-05  1878   0.165E-02    0.394E-02
RMM:   6    -0.230306037116E+03   -0.28024E-04   -0.66699E-05  1829   0.136E-02    0.438E-02
RMM:   7    -0.230306011583E+03    0.25534E-04   -0.35148E-05  1385   0.104E-02    0.133E-02
RMM:   8    -0.230306009933E+03    0.16498E-05   -0.64456E-06  1032   0.476E-03
   76 T=   296. E= -.22963513E+03 F= -.23030601E+03 E0= -.23029681E+03  EK= 0.80340E+00 SP= -.13E+00 SK= 0.34E-03
       N       E                     dE             d eps       ncg     rms          rms(c)
DAV:   1    -0.230307287025E+03   -0.12754E-02   -0.50567E-01  1920   0.148E+00    0.139E-01
RMM:   2    -0.230308333668E+03   -0.10466E-02   -0.10808E-02  1932   0.172E-01    0.990E-02
RMM:   3    -0.230309254569E+03   -0.92090E-03   -0.56095E-04  1936   0.389E-02    0.270E-01
RMM:   4    -0.230308244060E+03    0.10105E-02   -0.21226E-04  1921   0.235E-02    0.790E-02
RMM:   5    -0.230308171760E+03    0.72300E-04   -0.11500E-04  1899   0.177E-02    0.407E-02
RMM:   6    -0.230308195548E+03   -0.23789E-04   -0.68789E-05  1837   0.140E-02    0.435E-02
RMM:   7    -0.230308169209E+03    0.26339E-04   -0.36561E-05  1422   0.105E-02    0.143E-02
RMM:   8    -0.230308167600E+03    0.16095E-05   -0.75128E-06  1038   0.508E-03
   77 T=   298. E= -.22963517E+03 F= -.23030817E+03 E0= -.23029903E+03  EK= 0.80930E+00 SP= -.14E+00 SK= 0.38E-03
       N       E                     dE             d eps       ncg     rms          rms(c)
DAV:   1    -0.230311062856E+03   -0.28936E-02   -0.51374E-01  1984   0.149E+00    0.143E-01
RMM:   2    -0.230312123168E+03   -0.10603E-02   -0.11043E-02  1931   0.174E-01    0.108E-01
RMM:   3    -0.230313040395E+03   -0.91723E-03   -0.57706E-04  1939   0.390E-02    0.277E-01
RMM:   4    -0.230312026978E+03    0.10134E-02   -0.23091E-04  1921   0.247E-02    0.876E-02
RMM:   5    -0.230311950617E+03    0.76361E-04   -0.12028E-04  1897   0.179E-02    0.504E-02
RMM:   6    -0.230311972098E+03   -0.21481E-04   -0.74784E-05  1779   0.141E-02    0.560E-02
RMM:   7    -0.230311942416E+03    0.29682E-04   -0.46600E-05  1530   0.115E-02    0.267E-02
RMM:   8    -0.230311935519E+03    0.68964E-05   -0.13582E-05  1063   0.667E-03
   78 T=   301. E= -.22963521E+03 F= -.23031194E+03 E0= -.23030282E+03  EK= 0.81694E+00 SP= -.14E+00 SK= 0.39E-03
       N       E                     dE             d eps       ncg     rms          rms(c)
DAV:   1    -0.230315430631E+03   -0.34882E-02   -0.52413E-01  1936   0.150E+00    0.148E-01
RMM:   2    -0.230316519804E+03   -0.10892E-02   -0.11327E-02  1931   0.177E-01    0.114E-01
RMM:   3    -0.230317502697E+03   -0.98289E-03   -0.59706E-04  1939   0.399E-02    0.281E-01
RMM:   4    -0.230316394330E+03    0.11084E-02   -0.25641E-04  1922   0.259E-02    0.861E-02
RMM:   5    -0.230316317269E+03    0.77061E-04   -0.14977E-04  1914   0.202E-02    0.509E-02
RMM:   6    -0.230316326288E+03   -0.90188E-05   -0.85455E-05  1893   0.154E-02    0.457E-02
RMM:   7    -0.230316299271E+03    0.27017E-04   -0.42697E-05  1509   0.111E-02    0.194E-02
RMM:   8    -0.230316297692E+03    0.15790E-05   -0.10280E-05  1043   0.581E-03
   79 T=   304. E= -.22963524E+03 F= -.23031630E+03 E0= -.23030726E+03  EK= 0.82516E+00 SP= -.14E+00 SK= 0.35E-03
       N       E                     dE             d eps       ncg     rms          rms(c)
DAV:   1    -0.230319328730E+03   -0.30295E-02   -0.53548E-01  1984   0.152E+00    0.151E-01
RMM:   2    -0.230320450215E+03   -0.11215E-02   -0.11689E-02  1931   0.180E-01    0.124E-01
RMM:   3    -0.230321390964E+03   -0.94075E-03   -0.61064E-04  1938   0.399E-02    0.285E-01
RMM:   4    -0.230320316216E+03    0.10747E-02   -0.27442E-04  1923   0.270E-02    0.967E-02
RMM:   5    -0.230320229108E+03    0.87108E-04   -0.15009E-04  1910   0.200E-02    0.592E-02
RMM:   6    -0.230320236827E+03   -0.77191E-05   -0.89828E-05  1827   0.155E-02    0.559E-02
RMM:   7    -0.230320207968E+03    0.28859E-04   -0.54351E-05  1636   0.123E-02    0.298E-02
RMM:   8    -0.230320200347E+03    0.76204E-05   -0.16097E-05  1092   0.720E-03
   80 T=   307. E= -.22963527E+03 F= -.23032020E+03 E0= -.23031118E+03  EK= 0.83269E+00 SP= -.15E+00 SK= 0.29E-03
       N       E                     dE             d eps       ncg     rms          rms(c)
DAV:   1    -0.230321840921E+03   -0.16330E-02   -0.54557E-01  1920   0.153E+00    0.154E-01
RMM:   2    -0.230323004293E+03   -0.11634E-02   -0.12062E-02  1932   0.183E-01    0.128E-01
RMM:   3    -0.230323974434E+03   -0.97014E-03   -0.61890E-04  1940   0.404E-02    0.286E-01
RMM:   4    -0.230322825925E+03    0.11485E-02   -0.29122E-04  1922   0.278E-02    0.883E-02
RMM:   5    -0.230322755168E+03    0.70756E-04   -0.17378E-04  1917   0.218E-02    0.576E-02
RMM:   6    -0.230322749883E+03    0.52850E-05   -0.94420E-05  1907   0.162E-02    0.456E-02
RMM:   7    -0.230322724778E+03    0.25105E-04   -0.49168E-05  1601   0.118E-02    0.222E-02
RMM:   8    -0.230322721988E+03    0.27900E-05   -0.10977E-05  1044   0.599E-03
   81 T=   309. E= -.22963528E+03 F= -.23032272E+03 E0= -.23031372E+03  EK= 0.83842E+00 SP= -.15E+00 SK= 0.20E-03
       N       E                     dE             d eps       ncg     rms          rms(c)
DAV:   1    -0.230322410428E+03    0.31435E-03   -0.55352E-01  1920   0.154E+00    0.155E-01
RMM:   2    -0.230323624692E+03   -0.12143E-02   -0.12398E-02  1932   0.185E-01    0.134E-01
RMM:   3    -0.230324549834E+03   -0.92514E-03   -0.62182E-04  1939   0.405E-02    0.283E-01
RMM:   4    -0.230323409049E+03    0.11408E-02   -0.29955E-04  1922   0.282E-02    0.858E-02
RMM:   5    -0.230323344808E+03    0.64241E-04   -0.18076E-04  1916   0.223E-02    0.597E-02
RMM:   6    -0.230323337892E+03    0.69162E-05   -0.98582E-05  1908   0.166E-02    0.486E-02
RMM:   7    -0.230323312213E+03    0.25678E-04   -0.48194E-05  1586   0.117E-02    0.251E-02
RMM:   8    -0.230323310871E+03    0.13424E-05   -0.13176E-05  1074   0.644E-03
   82 T=   310. E= -.22963528E+03 F= -.23032331E+03 E0= -.23031439E+03  EK= 0.84163E+00 SP= -.15E+00 SK= 0.12E-03
       N       E                     dE             d eps       ncg     rms          rms(c)
DAV:   1    -0.230320796448E+03    0.25158E-02   -0.55892E-01  1920   0.155E+00    0.156E-01
RMM:   2    -0.230322051615E+03   -0.12552E-02   -0.12655E-02  1933   0.187E-01    0.144E-01
RMM:   3    -0.230322874422E+03   -0.82281E-03   -0.62963E-04  1945   0.404E-02    0.279E-01
RMM:   4    -0.230321852278E+03    0.10221E-02   -0.30626E-04  1921   0.286E-02    0.105E-01
RMM:   5    -0.230321752826E+03    0.99452E-04   -0.17026E-04  1913   0.212E-02    0.650E-02
RMM:   6    -0.230321749197E+03    0.36288E-05   -0.99272E-05  1847   0.164E-02    0.549E-02
RMM:   7    -0.230321723774E+03    0.25423E-04   -0.60545E-05  1711   0.129E-02    0.322E-02
[...]
RMM:   2    -0.231205650350E+03   -0.87375E-03   -0.62335E-03  1927   0.134E-01    0.183E-01
RMM:   3    -0.231205394810E+03    0.25554E-03   -0.34867E-04  1929   0.316E-02    0.107E-01
RMM:   4    -0.231205355720E+03    0.39090E-04   -0.14447E-04  1919   0.202E-02    0.905E-02
RMM:   5    -0.231205253526E+03    0.10219E-03   -0.73147E-05  1818   0.138E-02    0.399E-02
RMM:   6    -0.231205267016E+03   -0.13491E-04   -0.75201E-05  1873   0.146E-02    0.377E-02
RMM:   7    -0.231205252632E+03    0.14384E-04   -0.34920E-05  1368   0.102E-02    0.229E-02
RMM:   8    -0.231205244697E+03    0.79346E-05   -0.96496E-06  1039   0.580E-03
  372 T=   279. E= -.22963183E+03 F= -.23120524E+03 E0= -.23119806E+03  EK= 0.75616E+00 SP= 0.79E+00 SK= 0.31E-01
       N       E                     dE             d eps       ncg     rms          rms(c)
DAV:   1    -0.231211583538E+03   -0.63309E-02   -0.31118E-01  1920   0.967E-01    0.962E-02
RMM:   2    -0.231212470885E+03   -0.88735E-03   -0.61721E-03  1928   0.133E-01    0.186E-01
RMM:   3    -0.231212196940E+03    0.27395E-03   -0.34876E-04  1930   0.316E-02    0.105E-01
RMM:   4    -0.231212156742E+03    0.40197E-04   -0.13876E-04  1917   0.199E-02    0.875E-02
RMM:   5    -0.231212061889E+03    0.94853E-04   -0.65196E-05  1767   0.131E-02    0.396E-02
RMM:   6    -0.231212073619E+03   -0.11730E-04   -0.68728E-05  1840   0.140E-02    0.360E-02
RMM:   7    -0.231212062195E+03    0.11423E-04   -0.34436E-05  1351   0.102E-02    0.231E-02
RMM:   8    -0.231212053947E+03    0.82482E-05   -0.97673E-06  1039   0.587E-03
  373 T=   270. E= -.22963181E+03 F= -.23121205E+03 E0= -.23120490E+03  EK= 0.73179E+00 SP= 0.82E+00 SK= 0.28E-01
       N       E                     dE             d eps       ncg     rms          rms(c)
DAV:   1    -0.231219517844E+03   -0.74556E-02   -0.30205E-01  1920   0.959E-01    0.952E-02
RMM:   2    -0.231220421342E+03   -0.90350E-03   -0.61993E-03  1928   0.132E-01    0.188E-01
RMM:   3    -0.231220129220E+03    0.29212E-03   -0.35244E-04  1930   0.317E-02    0.105E-01
RMM:   4    -0.231220087043E+03    0.42178E-04   -0.13655E-04  1908   0.197E-02    0.858E-02
RMM:   5    -0.231219994750E+03    0.92292E-04   -0.61270E-05  1739   0.128E-02    0.396E-02
RMM:   6    -0.231220004034E+03   -0.92833E-05   -0.64303E-05  1810   0.136E-02    0.349E-02
RMM:   7    -0.231219994559E+03    0.94743E-05   -0.34641E-05  1348   0.103E-02    0.235E-02
RMM:   8    -0.231219986109E+03    0.84507E-05   -0.10044E-05  1041   0.597E-03
  374 T=   262. E= -.22963181E+03 F= -.23121999E+03 E0= -.23121288E+03  EK= 0.71126E+00 SP= 0.85E+00 SK= 0.24E-01
       N       E                     dE             d eps       ncg     rms          rms(c)
DAV:   1    -0.231228649413E+03   -0.86549E-02   -0.29687E-01  1920   0.955E-01    0.952E-02
RMM:   2    -0.231229557517E+03   -0.90810E-03   -0.61743E-03  1927   0.132E-01    0.191E-01
RMM:   3    -0.231229254818E+03    0.30270E-03   -0.35652E-04  1926   0.319E-02    0.106E-01
RMM:   4    -0.231229211107E+03    0.43712E-04   -0.13815E-04  1915   0.198E-02    0.855E-02
RMM:   5    -0.231229117741E+03    0.93365E-04   -0.61175E-05  1737   0.127E-02    0.401E-02
RMM:   6    -0.231229123638E+03   -0.58966E-05   -0.62473E-05  1795   0.134E-02    0.341E-02
RMM:   7    -0.231229115019E+03    0.86185E-05   -0.35001E-05  1356   0.103E-02    0.238E-02
RMM:   8    -0.231229106555E+03    0.84647E-05   -0.10372E-05  1045   0.607E-03
  375 T=   256. E= -.22963182E+03 F= -.23122911E+03 E0= -.23122205E+03  EK= 0.69483E+00 SP= 0.88E+00 SK= 0.20E-01
       N       E                     dE             d eps       ncg     rms          rms(c)
DAV:   1    -0.231238734367E+03   -0.96193E-02   -0.29538E-01  1920   0.957E-01    0.964E-02
RMM:   2    -0.231239658218E+03   -0.92385E-03   -0.63131E-03  1929   0.133E-01    0.194E-01
RMM:   3    -0.231239342150E+03    0.31607E-03   -0.36519E-04  1931   0.322E-02    0.108E-01
RMM:   4    -0.231239295585E+03    0.46565E-04   -0.14060E-04  1915   0.200E-02    0.864E-02
RMM:   5    -0.231239197564E+03    0.98021E-04   -0.64602E-05  1761   0.131E-02    0.410E-02
RMM:   6    -0.231239199912E+03   -0.23482E-05   -0.63950E-05  1808   0.136E-02    0.340E-02
RMM:   7    -0.231239191072E+03    0.88397E-05   -0.36084E-05  1379   0.105E-02    0.241E-02
RMM:   8    -0.231239182732E+03    0.83404E-05   -0.10828E-05  1046   0.618E-03
  376 T=   251. E= -.22963184E+03 F= -.23123918E+03 E0= -.23123217E+03  EK= 0.68236E+00 SP= 0.91E+00 SK= 0.16E-01
       N       E                     dE             d eps       ncg     rms          rms(c)
DAV:   1    -0.231249325231E+03   -0.10134E-01   -0.29711E-01  1952   0.963E-01    0.982E-02
RMM:   2    -0.231250248261E+03   -0.92303E-03   -0.63329E-03  1927   0.134E-01    0.197E-01
RMM:   3    -0.231249925838E+03    0.32242E-03   -0.37290E-04  1930   0.326E-02    0.110E-01
RMM:   4    -0.231249877150E+03    0.48688E-04   -0.14549E-04  1915   0.204E-02    0.882E-02
RMM:   5    -0.231249772996E+03    0.10415E-03   -0.70947E-05  1805   0.137E-02    0.423E-02
RMM:   6    -0.231249772285E+03    0.71060E-06   -0.67856E-05  1827   0.140E-02    0.341E-02
RMM:   7    -0.231249763399E+03    0.88866E-05   -0.37121E-05  1411   0.105E-02    0.244E-02
RMM:   8    -0.231249755629E+03    0.77698E-05   -0.11115E-05  1048   0.622E-03
  377 T=   248. E= -.22963186E+03 F= -.23124976E+03 E0= -.23124280E+03  EK= 0.67343E+00 SP= 0.93E+00 SK= 0.12E-01
       N       E                     dE             d eps       ncg     rms          rms(c)
DAV:   1    -0.231259823496E+03   -0.10060E-01   -0.30092E-01  1920   0.973E-01    0.100E-01
RMM:   2    -0.231260763706E+03   -0.94021E-03   -0.65680E-03  1928   0.136E-01    0.199E-01
RMM:   3    -0.231260436043E+03    0.32766E-03   -0.38380E-04  1929   0.331E-02    0.113E-01
RMM:   4    -0.231260381678E+03    0.54366E-04   -0.15148E-04  1919   0.208E-02    0.901E-02
RMM:   5    -0.231260271112E+03    0.11057E-03   -0.77914E-05  1836   0.143E-02    0.439E-02
RMM:   6    -0.231260268491E+03    0.26210E-05   -0.73620E-05  1852   0.145E-02    0.349E-02
RMM:   7    -0.231260258725E+03    0.97665E-05   -0.39200E-05  1453   0.108E-02    0.247E-02
RMM:   8    -0.231260251496E+03    0.72287E-05   -0.11648E-05  1053   0.632E-03
  378 T=   246. E= -.22963187E+03 F= -.23126025E+03 E0= -.23125335E+03  EK= 0.66751E+00 SP= 0.95E+00 SK= 0.82E-02
       N       E                     dE             d eps       ncg     rms          rms(c)
DAV:   1    -0.231269638844E+03   -0.93801E-02   -0.30597E-01  1920   0.981E-01    0.103E-01
RMM:   2    -0.231270592082E+03   -0.95324E-03   -0.67844E-03  1930   0.138E-01    0.201E-01
RMM:   3    -0.231270263954E+03    0.32813E-03   -0.39481E-04  1931   0.335E-02    0.116E-01
RMM:   4    -0.231270205255E+03    0.58699E-04   -0.15829E-04  1921   0.212E-02    0.929E-02
RMM:   5    -0.231270085795E+03    0.11946E-03   -0.85732E-05  1868   0.149E-02    0.452E-02
RMM:   6    -0.231270080931E+03    0.48645E-05   -0.79007E-05  1869   0.150E-02    0.355E-02
RMM:   7    -0.231270070958E+03    0.99724E-05   -0.40808E-05  1485   0.109E-02    0.252E-02
RMM:   8    -0.231270064211E+03    0.67468E-05   -0.12075E-05  1060   0.640E-03
  379 T=   245. E= -.22963188E+03 F= -.23127006E+03 E0= -.23126322E+03  EK= 0.66397E+00 SP= 0.97E+00 SK= 0.52E-02
       N       E                     dE             d eps       ncg     rms          rms(c)
DAV:   1    -0.231278199893E+03   -0.81289E-02   -0.31131E-01  1920   0.992E-01    0.105E-01
RMM:   2    -0.231279157025E+03   -0.95713E-03   -0.68959E-03  1930   0.140E-01    0.203E-01
RMM:   3    -0.231278830173E+03    0.32685E-03   -0.40378E-04  1933   0.339E-02    0.119E-01
RMM:   4    -0.231278768734E+03    0.61439E-04   -0.16427E-04  1918   0.216E-02    0.951E-02
RMM:   5    -0.231278641885E+03    0.12685E-03   -0.92172E-05  1879   0.154E-02    0.463E-02
RMM:   6    -0.231278635124E+03    0.67609E-05   -0.83136E-05  1878   0.154E-02    0.357E-02
RMM:   7    -0.231278625415E+03    0.97089E-05   -0.41705E-05  1504   0.110E-02    0.255E-02
RMM:   8    -0.231278619150E+03    0.62653E-05   -0.12334E-05  1065   0.644E-03
  380 T=   244. E= -.22963187E+03 F= -.23127862E+03 E0= -.23127183E+03  EK= 0.66226E+00 SP= 0.98E+00 SK= 0.29E-02
       N       E                     dE             d eps       ncg     rms          rms(c)
DAV:   1    -0.231285103677E+03   -0.64783E-02   -0.31596E-01  1952   0.100E+00    0.106E-01
RMM:   2    -0.231286075214E+03   -0.97154E-03   -0.70761E-03  1930   0.142E-01    0.204E-01
RMM:   3    -0.231285748798E+03    0.32642E-03   -0.41182E-04  1933   0.343E-02    0.121E-01
RMM:   4    -0.231285683528E+03    0.65271E-04   -0.16814E-04  1918   0.219E-02    0.963E-02
RMM:   5    -0.231285552236E+03    0.13129E-03   -0.95538E-05  1885   0.157E-02    0.470E-02
RMM:   6    -0.231285544672E+03    0.75641E-05   -0.85664E-05  1880   0.156E-02    0.359E-02
RMM:   7    -0.231285535308E+03    0.93640E-05   -0.42640E-05  1520   0.111E-02    0.259E-02
RMM:   8    -0.231285529302E+03    0.60056E-05   -0.12656E-05  1069   0.651E-03
  381 T=   244. E= -.22963186E+03 F= -.23128553E+03 E0= -.23127879E+03  EK= 0.66197E+00 SP= 0.99E+00 SK= 0.12E-02
       N       E                     dE             d eps       ncg     rms          rms(c)
DAV:   1    -0.231290152363E+03   -0.46171E-02   -0.31952E-01  1920   0.101E+00    0.107E-01
RMM:   2    -0.231291139675E+03   -0.98731E-03   -0.72314E-03  1931   0.143E-01    0.204E-01
RMM:   3    -0.231290812819E+03    0.32686E-03   -0.41908E-04  1935   0.345E-02    0.122E-01
RMM:   4    -0.231290744629E+03    0.68190E-04   -0.17016E-04  1918   0.220E-02    0.968E-02
RMM:   5    -0.231290611288E+03    0.13334E-03   -0.96091E-05  1885   0.157E-02    0.471E-02
RMM:   6    -0.231290603569E+03    0.77185E-05   -0.85753E-05  1877   0.156E-02    0.357E-02
RMM:   7    -0.231290595219E+03    0.83505E-05   -0.42987E-05  1526   0.111E-02    0.262E-02
RMM:   8    -0.231290589172E+03    0.60471E-05   -0.12860E-05  1069   0.655E-03
  382 T=   244. E= -.22963182E+03 F= -.23129059E+03 E0= -.23128390E+03  EK= 0.66291E+00 SP= 0.10E+01 SK= 0.26E-03
       N       E                     dE             d eps       ncg     rms          rms(c)
DAV:   1    -0.231293434166E+03   -0.28389E-02   -0.32193E-01  1920   0.102E+00    0.107E-01
RMM:   2    -0.231294427720E+03   -0.99355E-03   -0.72580E-03  1931   0.143E-01    0.203E-01
RMM:   3    -0.231294104186E+03    0.32353E-03   -0.42060E-04  1935   0.346E-02    0.123E-01
RMM:   4    -0.231294032663E+03    0.71524E-04   -0.16965E-04  1918   0.220E-02    0.963E-02
RMM:   5    -0.231293901181E+03    0.13148E-03   -0.93702E-05  1884   0.156E-02    0.469E-02
RMM:   6    -0.231293894014E+03    0.71672E-05   -0.83652E-05  1873   0.154E-02    0.352E-02
RMM:   7    -0.231293886865E+03    0.71490E-05   -0.42705E-05  1520   0.111E-02    0.264E-02
RMM:   8    -0.231293880680E+03    0.61855E-05   -0.13005E-05  1070   0.660E-03
  383 T=   245. E= -.22963178E+03 F= -.23129388E+03 E0= -.23128724E+03  EK= 0.66512E+00 SP= 0.10E+01 SK= 0.58E-05
       N       E                     dE             d eps       ncg     rms          rms(c)
DAV:   1    -0.231295176599E+03   -0.12897E-02   -0.32329E-01  1984   0.103E+00    0.106E-01
RMM:   2    -0.231296175109E+03   -0.99851E-03   -0.72419E-03  1932   0.144E-01    0.202E-01
RMM:   3    -0.231295853518E+03    0.32159E-03   -0.42021E-04  1936   0.346E-02    0.122E-01
RMM:   4    -0.231295780584E+03    0.72935E-04   -0.16804E-04  1920   0.218E-02    0.952E-02
RMM:   5    -0.231295652682E+03    0.12790E-03   -0.89030E-05  1875   0.152E-02    0.462E-02
RMM:   6    -0.231295646202E+03    0.64795E-05   -0.79257E-05  1863   0.150E-02    0.342E-02
RMM:   7    -0.231295641157E+03    0.50453E-05   -0.41637E-05  1498   0.110E-02    0.267E-02
RMM:   8    -0.231295634461E+03    0.66958E-05   -0.12976E-05  1069   0.662E-03
  384 T=   246. E= -.22963173E+03 F= -.23129563E+03 E0= -.23128903E+03  EK= 0.66881E+00 SP= 0.99E+00 SK= 0.42E-03
       N       E                     dE             d eps       ncg     rms          rms(c)
DAV:   1    -0.231295826810E+03   -0.18565E-03   -0.32400E-01  1920   0.104E+00    0.104E-01
RMM:   2    -0.231296835746E+03   -0.10089E-02   -0.72578E-03  1931   0.144E-01    0.200E-01
RMM:   3    -0.231296520767E+03    0.31498E-03   -0.42127E-04  1937   0.346E-02    0.122E-01
RMM:   4    -0.231296443006E+03    0.77762E-04   -0.16502E-04  1918   0.216E-02    0.934E-02
RMM:   5    -0.231296320979E+03    0.12203E-03   -0.82962E-05  1856   0.147E-02    0.453E-02
RMM:   6    -0.231296315736E+03    0.52433E-05   -0.73813E-05  1838   0.146E-02    0.334E-02
RMM:   7    -0.231296312365E+03    0.33710E-05   -0.40750E-05  1473   0.110E-02    0.268E-02
RMM:   8    -0.231296305091E+03    0.72734E-05   -0.13071E-05  1066   0.668E-03
  385 T=   248. E= -.22963168E+03 F= -.23129631E+03 E0= -.23128974E+03  EK= 0.67439E+00 SP= 0.99E+00 SK= 0.15E-02
       N       E                     dE             d eps       ncg     rms          rms(c)
DAV:   1    -0.231295912620E+03    0.39974E-03   -0.32484E-01  1920   0.105E+00    0.103E-01
RMM:   2    -0.231296932035E+03   -0.10194E-02   -0.72701E-03  1931   0.144E-01    0.198E-01
RMM:   3    -0.231296624902E+03    0.30713E-03   -0.41994E-04  1935   0.346E-02    0.122E-01
RMM:   4    -0.231296543005E+03    0.81897E-04   -0.16286E-04  1919   0.215E-02    0.918E-02
RMM:   5    -0.231296426531E+03    0.11647E-03   -0.76952E-05  1824   0.142E-02    0.444E-02
RMM:   6    -0.231296422157E+03    0.43742E-05   -0.67558E-05  1805   0.140E-02    0.322E-02
RMM:   7    -0.231296421096E+03    0.10608E-05   -0.39521E-05  1447   0.109E-02    0.271E-02
RMM:   8    -0.231296413001E+03    0.80952E-05   -0.13047E-05  1066   0.671E-03
  386 T=   251. E= -.22963161E+03 F= -.23129641E+03 E0= -.23128988E+03  EK= 0.68234E+00 SP= 0.98E+00 SK= 0.30E-02
       N       E                     dE             d eps       ncg     rms          rms(c)
DAV:   1    -0.231296019022E+03    0.40207E-03   -0.32654E-01  1920   0.106E+00    0.102E-01
RMM:   2    -0.231297049175E+03   -0.10302E-02   -0.72992E-03  1930   0.144E-01    0.196E-01
RMM:   3    -0.231296753067E+03    0.29611E-03   -0.42169E-04  1935   0.347E-02    0.122E-01
RMM:   4    -0.231296665733E+03    0.87334E-04   -0.16161E-04  1920   0.214E-02    0.905E-02
RMM:   5    -0.231296554148E+03    0.11159E-03   -0.71732E-05  1798   0.137E-02    0.436E-02
RMM:   6    -0.231296550413E+03    0.37344E-05   -0.61416E-05  1752   0.134E-02    0.309E-02
RMM:   7    -0.231296551739E+03   -0.13252E-05   -0.38365E-05  1426   0.108E-02    0.273E-02
RMM:   8    -0.231296542710E+03    0.90283E-05   -0.12948E-05  1063   0.672E-03
  387 T=   255. E= -.22963156E+03 F= -.23129654E+03 E0= -.23129003E+03  EK= 0.69315E+00 SP= 0.97E+00 SK= 0.50E-02
       N       E                     dE             d eps       ncg     rms          rms(c)
DAV:   1    -0.231296695591E+03   -0.14385E-03   -0.32992E-01  1920   0.108E+00    0.102E-01
RMM:   2    -0.231297736664E+03   -0.10411E-02   -0.73569E-03  1930   0.145E-01    0.194E-01
RMM:   3    -0.231297454837E+03    0.28183E-03   -0.42430E-04  1934   0.348E-02    0.123E-01
RMM:   4    -0.231297360639E+03    0.94199E-04   -0.16180E-04  1920   0.214E-02    0.900E-02
RMM:   5    -0.231297252291E+03    0.10835E-03   -0.68533E-05  1780   0.134E-02    0.431E-02
RMM:   6    -0.231297248590E+03    0.37008E-05   -0.56607E-05  1695   0.129E-02    0.298E-02
RMM:   7    -0.231297252032E+03   -0.34417E-05   -0.37400E-05  1397   0.108E-02    0.276E-02
RMM:   8    -0.231297242030E+03    0.10002E-04   -0.12831E-05  1056   0.673E-03    0.876E-03
RMM:   9    -0.231297242400E+03   -0.36998E-06   -0.22159E-06  1024   0.283E-03
  388 T=   261. E= -.22963152E+03 F= -.23129724E+03 E0= -.23129073E+03  EK= 0.70727E+00 SP= 0.95E+00 SK= 0.72E-02
       N       E                     dE             d eps       ncg     rms          rms(c)
DAV:   1    -0.231298416631E+03   -0.11746E-02   -0.33578E-01  1952   0.109E+00    0.103E-01
RMM:   2    -0.231299471398E+03   -0.10548E-02   -0.74876E-03  1930   0.146E-01    0.191E-01
RMM:   3    -0.231299205212E+03    0.26619E-03   -0.43216E-04  1934   0.351E-02    0.126E-01
RMM:   4    -0.231299100923E+03    0.10429E-03   -0.16336E-04  1915   0.215E-02    0.902E-02
RMM:   5    -0.231298994758E+03    0.10617E-03   -0.67728E-05  1777   0.133E-02    0.434E-02
RMM:   6    -0.231298990394E+03    0.43634E-05   -0.54193E-05  1681   0.126E-02    0.295E-02
RMM:   7    -0.231298992810E+03   -0.24154E-05   -0.36883E-05  1384   0.107E-02    0.259E-02
RMM:   8    -0.231298983159E+03    0.96503E-05   -0.12275E-05  1046   0.663E-03
  389 T=   267. E= -.22963150E+03 F= -.23129898E+03 E0= -.23129250E+03  EK= 0.72503E+00 SP= 0.93E+00 SK= 0.94E-02
       N       E                     dE             d eps       ncg     rms          rms(c)
DAV:   1    -0.231301430366E+03   -0.24376E-02   -0.34424E-01  1920   0.111E+00    0.105E-01
RMM:   2    -0.231302504813E+03   -0.10744E-02   -0.77004E-03  1930   0.148E-01    0.189E-01
RMM:   3    -0.231302262070E+03    0.24274E-03   -0.44491E-04  1933   0.356E-02    0.130E-01
RMM:   4    -0.231302142439E+03    0.11963E-03   -0.16981E-04  1916   0.219E-02    0.916E-02
RMM:   5    -0.231302034414E+03    0.10802E-03   -0.69795E-05  1785   0.134E-02    0.440E-02
RMM:   6    -0.231302029306E+03    0.51080E-05   -0.54173E-05  1669   0.126E-02    0.291E-02
RMM:   7    -0.231302034681E+03   -0.53750E-05   -0.37339E-05  1400   0.108E-02    0.282E-02
RMM:   8    -0.231302022780E+03    0.11902E-04   -0.13082E-05  1049   0.681E-03    0.830E-03
RMM:   9    -0.231302022246E+03    0.53412E-06   -0.20921E-06  1022   0.275E-03
  390 T=   275. E= -.22963150E+03 F= -.23130202E+03 E0= -.23129552E+03  EK= 0.74650E+00 SP= 0.91E+00 SK= 0.11E-01
       N       E                     dE             d eps       ncg     rms          rms(c)
DAV:   1    -0.231305840107E+03   -0.38173E-02   -0.35603E-01  1920   0.113E+00    0.108E-01
RMM:   2    -0.231306938850E+03   -0.10987E-02   -0.80142E-03  1932   0.151E-01    0.188E-01
RMM:   3    -0.231306716684E+03    0.22217E-03   -0.46226E-04  1933   0.362E-02    0.136E-01
RMM:   4    -0.231306578641E+03    0.13804E-03   -0.17674E-04  1918   0.223E-02    0.939E-02
RMM:   5    -0.231306468228E+03    0.11041E-03   -0.75217E-05  1826   0.139E-02    0.456E-02
RMM:   6    -0.231306461862E+03    0.63652E-05   -0.57780E-05  1706   0.130E-02    0.298E-02
RMM:   7    -0.231306464642E+03   -0.27794E-05   -0.37992E-05  1409   0.108E-02    0.266E-02
RMM:   8    -0.231306453575E+03    0.11067E-04   -0.12864E-05  1044   0.675E-03    0.843E-03
RMM:   9    -0.231306452722E+03    0.85308E-06   -0.21262E-06  1020   0.278E-03
  391 T=   284. E= -.22963149E+03 F= -.23130645E+03 E0= -.23129995E+03  EK= 0.77150E+00 SP= 0.89E+00 SK= 0.13E-01
       N       E                     dE             d eps       ncg     rms          rms(c)
DAV:   1    -0.231311534858E+03   -0.50813E-02   -0.37069E-01  1920   0.116E+00    0.112E-01
RMM:   2    -0.231312656109E+03   -0.11213E-02   -0.84095E-03  1933   0.154E-01    0.186E-01
RMM:   3    -0.231312468002E+03    0.18811E-03   -0.48341E-04  1934   0.369E-02    0.143E-01
RMM:   4    -0.231312304448E+03    0.16355E-03   -0.18712E-04  1927   0.229E-02    0.969E-02
RMM:   5    -0.231312189936E+03    0.11451E-03   -0.83382E-05  1853   0.146E-02    0.478E-02
RMM:   6    -0.231312182028E+03    0.79076E-05   -0.64099E-05  1765   0.136E-02    0.308E-02
RMM:   7    -0.231312182318E+03   -0.28980E-06   -0.38946E-05  1438   0.109E-02    0.264E-02
RMM:   8    -0.231312171240E+03    0.11078E-04   -0.13182E-05  1048   0.678E-03    0.877E-03
RMM:   9    -0.231312170304E+03    0.93604E-06   -0.23030E-06  1021   0.290E-03
  392 T=   295. E= -.22963151E+03 F= -.23131217E+03 E0= -.23130565E+03  EK= 0.79949E+00 SP= 0.87E+00 SK= 0.14E-01
       N       E                     dE             d eps       ncg     rms          rms(c)
