<?xml version="1.0" encoding="ISO-8859-1"?>
<modeling>
 <generator>
  <i name="program" type="string"> vasp </i>
  <i name="version" type="string">5.4.4  </i>
  <i name="subversion" type="string">16052018 (build Apr 24 2014 20:13:14) complex standard parallel Constrained Minimization Technique (TS), Periodic NBO, VASPsol, libbeef, VASP2WANNIER90, Constrained Cell Relaxation </i>
  <i name="platform" type="string">Center for Computational Chemistry </i>
  <i name="user" type="string">phu </i>
  <i name="host" type="string">node11 </i>
  <i name="date" type="string">2025 09 27 </i>
  <i name="time" type="string">23:11:25 </i>
 </generator>
 <incar>
  <i type="string" name="SYSTEM"> metal</i>
  <i type="int" name="ISTART">     0</i>
  <i type="string" name="PREC">normal</i>
  <i type="string" name="ALGO">Fast</i>
  <i type="int" name="NSIM">     4</i>
  <i type="int" name="ISPIN">     1</i>
  <i type="int" name="NELMIN">     8</i>
  <i type="int" name="IBRION">     0</i>
  <i name="EDIFF">      0.00001000</i>
  <i type="int" name="NSW">   500</i>
  <i type="int" name="ISIF">     2</i>
  <i type="int" name="IWAVPR">    11</i>
  <i type="int" name="ISYM">     0</i>
  <i name="ENCUT">    450.00000000</i>
  <i name="POTIM">      0.50000000</i>
  <i name="TEBEG">    300.00000000</i>
  <i name="TEEND">    300.00000000</i>
  <i name="SMASS">      0.00000000</i>
  <i type="string" name="LREAL">A</i>
  <i type="int" name="ISMEAR">     1</i>
  <i name="SIGMA">      0.20000000</i>
  <i type="logical" name="LWAVE"> F  </i>
  <i type="logical" name="LCHARG"> F  </i>
  <i type="int" name="MDALGO">     2</i>
  <v type="int" name="KPOINT_BSE">    -1     0     0     0</v>
  <i type="int" name="VOSKOWN">     0</i>
 </incar>
 <structure name="primitive_cell" >
  <crystal>
   <varray name="basis" >
    <v>       7.29695512      -4.21289900       0.00000000 </v>
    <v>       0.00000000       8.42579800       0.00000000 </v>
    <v>       0.00000000       0.00000000      21.87963500 </v>
   </varray>
   <i name="volume">   1345.21837528 </i>
   <varray name="rec_basis" >
    <v>       0.13704346       0.00000000       0.00000000 </v>
    <v>       0.06852173       0.11868312       0.00000000 </v>
    <v>       0.00000000       0.00000000       0.04570460 </v>
   </varray>
  </crystal>
  <varray name="positions" >
   <v>      -0.30031444       0.42791878       0.47573283 </v>
   <v>      -0.32541746       0.45928769      -0.47483835 </v>
   <v>      -0.35648689       0.32390904       0.39457351 </v>
   <v>      -0.09052597       0.38590997       0.46743887 </v>
   <v>      -0.33987676      -0.33634362       0.39112611 </v>
   <v>      -0.00720767      -0.33390568       0.38670405 </v>
   <v>       0.32076661       0.32720670       0.38625690 </v>
   <v>      -0.00955459       0.32164728       0.39244235 </v>
   <v>       0.31823572      -0.00850631       0.38819553 </v>
   <v>      -0.34854558      -0.01302966       0.38993539 </v>
   <v>      -0.23757584      -0.45127067       0.28056168 </v>
   <v>      -0.01270237      -0.00536097       0.38986062 </v>
   <v>       0.43685948       0.22003933       0.28633488 </v>
   <v>      -0.23812289       0.21389473       0.28109738 </v>
   <v>       0.32814853      -0.34182678       0.38638260 </v>
   <v>       0.09614919      -0.45182605       0.28570250 </v>
   <v>       0.43114423      -0.45025091       0.28274163 </v>
   <v>      -0.23545990      -0.11752734       0.28615499 </v>
   <v>       0.09904569      -0.11692095       0.28332477 </v>
   <v>       0.43317202      -0.11586756       0.28282524 </v>
   <v>       0.09330810       0.21730543       0.28323167 </v>
   <v>      -0.45768900       0.43970300       0.17918600 </v>
   <v>      -0.12435600       0.43970300       0.17918600 </v>
   <v>      -0.45768900       0.10636900       0.17918600 </v>
   <v>      -0.12435600      -0.22696400       0.17918600 </v>
   <v>       0.20897700       0.10636900       0.17918600 </v>
   <v>      -0.12435600       0.10636900       0.17918600 </v>
   <v>      -0.45768900      -0.22696400       0.17918600 </v>
   <v>       0.20897700      -0.22696400       0.17918600 </v>
   <v>       0.20897700       0.43970300       0.17918600 </v>
   <v>      -0.34657800       0.32859100       0.07437600 </v>
   <v>      -0.34657800      -0.33807500       0.07437600 </v>
   <v>      -0.01324500      -0.33807500       0.07437600 </v>
   <v>       0.32008800       0.32859100       0.07437600 </v>
   <v>      -0.01324500       0.32859100       0.07437600 </v>
   <v>       0.32008800      -0.00474200       0.07437600 </v>
   <v>      -0.34657800      -0.00474200       0.07437600 </v>
   <v>      -0.01324500      -0.00474200       0.07437600 </v>
   <v>       0.32008800      -0.33807500       0.07437600 </v>
  </varray>
 </structure>
 <varray name="primitive_index" >
  <v type="int" >        1 </v>
  <v type="int" >        3 </v>
  <v type="int" >       36 </v>
  <v type="int" >        2 </v>
  <v type="int" >       39 </v>
  <v type="int" >       37 </v>
  <v type="int" >       33 </v>
  <v type="int" >       38 </v>
  <v type="int" >       35 </v>
  <v type="int" >       32 </v>
  <v type="int" >       30 </v>
  <v type="int" >       34 </v>
  <v type="int" >       26 </v>
  <v type="int" >       24 </v>
  <v type="int" >       31 </v>
  <v type="int" >       22 </v>
  <v type="int" >       29 </v>
  <v type="int" >       28 </v>
  <v type="int" >       27 </v>
  <v type="int" >       23 </v>
  <v type="int" >       25 </v>
  <v type="int" >       17 </v>
  <v type="int" >       18 </v>
  <v type="int" >       14 </v>
  <v type="int" >       21 </v>
  <v type="int" >       13 </v>
  <v type="int" >       15 </v>
  <v type="int" >       20 </v>
  <v type="int" >       19 </v>
  <v type="int" >       16 </v>
  <v type="int" >        6 </v>
  <v type="int" >        9 </v>
  <v type="int" >        7 </v>
  <v type="int" >        5 </v>
  <v type="int" >        4 </v>
  <v type="int" >       10 </v>
  <v type="int" >       11 </v>
  <v type="int" >       12 </v>
  <v type="int" >        8 </v>
 </varray>
 <kpoints>
  <generation param="Gamma">
   <v type="int" name="divisions">       2        2        1 </v>
   <v name="usershift">      0.00000000       0.00000000       0.00000000 </v>
   <v name="genvec1">      0.50000000       0.00000000       0.00000000 </v>
   <v name="genvec2">     -0.00000000       0.50000000       0.00000000 </v>
   <v name="genvec3">      0.00000000       0.00000000       1.00000000 </v>
   <v name="shift">      0.00000000       0.00000000       0.00000000 </v>
  </generation>
  <varray name="kpointlist" >
   <v>       0.00000000       0.00000000       0.00000000 </v>
   <v>       0.50000000       0.00000000       0.00000000 </v>
   <v>      -0.00000000       0.50000000       0.00000000 </v>
   <v>       0.50000000       0.50000000       0.00000000 </v>
  </varray>
  <varray name="weights" >
   <v>       0.25000000 </v>
   <v>       0.25000000 </v>
   <v>       0.25000000 </v>
   <v>       0.25000000 </v>
  </varray>
 </kpoints>
 <parameters>
  <separator name="general" >
   <i type="string" name="SYSTEM">metal</i>
   <i type="logical" name="LCOMPAT"> F  </i>
  </separator>
  <separator name="electronic" >
   <i type="string" name="PREC">normal</i>
   <i name="ENMAX">    450.00000000</i>
   <i name="ENAUG">    644.87300000</i>
   <i name="EDIFF">      0.00001000</i>
   <i type="int" name="IALGO">    68</i>
   <i type="int" name="IWAVPR">    11</i>
   <i type="int" name="NBANDS">   240</i>
   <i name="NELECT">    376.00000000</i>
   <i type="int" name="TURBO">     0</i>
   <i type="int" name="IRESTART">     0</i>
   <i type="int" name="NREBOOT">     0</i>
   <i type="int" name="NMIN">     0</i>
   <i name="EREF">      0.00000000</i>
   <separator name="electronic smearing" >
    <i type="int" name="ISMEAR">     1</i>
    <i name="SIGMA">      0.20000000</i>
    <i name="KSPACING">      0.50000000</i>
    <i type="logical" name="KGAMMA"> T  </i>
   </separator>
   <separator name="electronic projectors" >
    <i type="logical" name="LREAL"> T  </i>
    <v name="ROPT">     -0.00050000     -0.00050000     -0.00050000</v>
    <i type="int" name="LMAXPAW">  -100</i>
    <i type="int" name="LMAXMIX">     2</i>
    <i type="logical" name="NLSPLINE"> F  </i>
   </separator>
   <separator name="electronic startup" >
    <i type="int" name="ISTART">     0</i>
    <i type="int" name="ICHARG">     2</i>
    <i type="int" name="INIWAV">     1</i>
   </separator>
   <separator name="electronic spin" >
    <i type="int" name="ISPIN">     1</i>
    <i type="logical" name="LNONCOLLINEAR"> F  </i>
    <v name="MAGMOM">      1.00000000      1.00000000      1.00000000      1.00000000      1.00000000      1.00000000      1.00000000      1.00000000      1.00000000      1.00000000      1.00000000      1.00000000      1.00000000      1.00000000      1.00000000      1.00000000      1.00000000      1.00000000      1.00000000      1.00000000
      1.00000000      1.00000000      1.00000000      1.00000000      1.00000000      1.00000000      1.00000000      1.00000000      1.00000000      1.00000000      1.00000000      1.00000000      1.00000000      1.00000000      1.00000000      1.00000000      1.00000000      1.00000000      1.00000000</v>
    <i name="NUPDOWN">     -1.00000000</i>
    <i type="logical" name="LSORBIT"> F  </i>
    <v name="SAXIS">      0.00000000      0.00000000      1.00000000</v>
    <i type="logical" name="LSPIRAL"> F  </i>
    <v name="QSPIRAL">      0.00000000      0.00000000      0.00000000</v>
    <i type="logical" name="LZEROZ"> F  </i>
   </separator>
   <separator name="electronic exchange-correlation" >
    <i type="logical" name="LASPH"> F  </i>
    <i type="logical" name="LMETAGGA"> F  </i>
   </separator>
   <separator name="electronic convergence" >
    <i type="int" name="NELM">    60</i>
    <i type="int" name="NELMDL">    -5</i>
    <i type="int" name="NELMIN">     8</i>
    <i name="ENINI">    450.00000000</i>
    <separator name="electronic convergence detail" >
     <i type="logical" name="LDIAG"> T  </i>
     <i type="logical" name="LSUBROT"> F  </i>
     <i name="WEIMIN">      0.00100000</i>
     <i name="EBREAK">      0.00000001</i>
     <i name="DEPER">      0.30000000</i>
     <i type="int" name="NRMM">     4</i>
     <i name="TIME">      0.40000000</i>
    </separator>
   </separator>
   <separator name="electronic mixer" >
    <i name="AMIX">      0.40000000</i>
    <i name="BMIX">      1.00000000</i>
    <i name="AMIN">      0.10000000</i>
    <i name="AMIX_MAG">      1.60000000</i>
    <i name="BMIX_MAG">      1.00000000</i>
    <separator name="electronic mixer details" >
     <i type="int" name="IMIX">     4</i>
     <i type="logical" name="MIXFIRST"> F  </i>
     <i type="int" name="MAXMIX">   -45</i>
     <i name="WC">    100.00000000</i>
     <i type="int" name="INIMIX">     1</i>
     <i type="int" name="MIXPRE">     1</i>
     <i type="int" name="MREMOVE">     5</i>
    </separator>
   </separator>
   <separator name="electronic dipolcorrection" >
    <i type="logical" name="LDIPOL"> F  </i>
    <i type="logical" name="LMONO"> F  </i>
    <i type="int" name="IDIPOL">     0</i>
    <i name="EPSILON">      1.00000000</i>
    <v name="DIPOL">   -100.00000000   -100.00000000   -100.00000000</v>
    <i name="EFIELD">      0.00000000</i>
   </separator>
  </separator>
  <separator name="grids" >
   <i type="int" name="NGX">    48</i>
   <i type="int" name="NGY">    48</i>
   <i type="int" name="NGZ">   120</i>
   <i type="int" name="NGXF">    96</i>
   <i type="int" name="NGYF">    96</i>
   <i type="int" name="NGZF">   240</i>
   <i type="logical" name="ADDGRID"> F  </i>
  </separator>
  <separator name="ionic" >
   <i type="int" name="NSW">   500</i>
   <i type="int" name="IBRION">     0</i>
   <i type="int" name="MDALGO">     2</i>
   <i type="int" name="ISIF">     2</i>
   <i name="PSTRESS">      0.00000000</i>
   <i name="EDIFFG">      0.00010000</i>
   <i type="int" name="NFREE">     0</i>
   <i name="POTIM">      0.50000000</i>
   <i name="SMASS">      0.00448546</i>
   <i name="SCALEE">      1.00000000</i>
  </separator>
  <separator name="ionic md" >
   <i name="TEBEG">    300.00000000</i>
   <i name="TEEND">    300.00000000</i>
   <i type="int" name="NBLOCK">     1</i>
   <i type="int" name="KBLOCK">   500</i>
   <i type="int" name="NPACO">   256</i>
   <i name="APACO">     16.00000000</i>
  </separator>
  <separator name="symmetry" >
   <i type="int" name="ISYM">     0</i>
   <i name="SYMPREC">      0.00001000</i>
  </separator>
  <separator name="dos" >
   <i type="int" name="LORBIT">     0</i>
   <v name="RWIGS">     -1.00000000     -1.00000000     -1.00000000</v>
   <i type="int" name="NEDOS">   301</i>
   <i name="EMIN">     10.00000000</i>
   <i name="EMAX">    -10.00000000</i>
   <i name="EFERMI">      0.00000000</i>
  </separator>
  <separator name="writing" >
   <i type="int" name="NWRITE">     2</i>
   <i type="logical" name="LWAVE"> F  </i>
   <i type="logical" name="LDOWNSAMPLE"> F  </i>
   <i type="logical" name="LCHARG"> F  </i>
   <i type="logical" name="LPARD"> F  </i>
   <i type="logical" name="LVTOT"> F  </i>
   <i type="logical" name="LVHAR"> F  </i>
   <i type="logical" name="LELF"> F  </i>
   <i type="logical" name="LOPTICS"> F  </i>
   <v name="STM">      0.00000000      0.00000000      0.00000000      0.00000000      0.00000000      0.00000000      0.00000000</v>
  </separator>
  <separator name="performance" >
   <i type="int" name="NPAR">    16</i>
   <i type="int" name="NSIM">     4</i>
   <i type="int" name="NBLK">    -1</i>
   <i type="logical" name="LPLANE"> T  </i>
   <i type="logical" name="LSCALAPACK"> T  </i>
   <i type="logical" name="LSCAAWARE"> F  </i>
   <i type="logical" name="LSCALU"> F  </i>
   <i type="logical" name="LASYNC"> F  </i>
   <i type="logical" name="LORBITALREAL"> F  </i>
  </separator>
  <separator name="miscellaneous" >
   <i type="int" name="IDIOT">     3</i>
   <i type="int" name="ISPECIAL">     0</i>
   <i type="logical" name="LMUSIC"> F  </i>
   <v name="POMASS">     12.01100000     16.00000000    195.08000000</v>
   <v name="DARWINR">      0.00000000      0.00000000      0.00000000</v>
   <v name="DARWINV">      1.00000000      1.00000000      1.00000000</v>
   <i type="logical" name="LCORR"> T  </i>
  </separator>
  <i type="logical" name="GGA_COMPAT"> T  </i>
  <i type="logical" name="LBERRY"> F  </i>
  <i type="int" name="ICORELEVEL">     0</i>
  <i type="logical" name="LDAU"> F  </i>
  <i type="int" name="I_CONSTRAINED_M">     0</i>
  <separator name="electronic exchange-correlation" >
   <i type="string" name="GGA">--</i>
   <i type="int" name="VOSKOWN">     0</i>
   <i type="logical" name="LHFCALC"> F  </i>
   <i type="string" name="PRECFOCK"></i>
   <i type="logical" name="LSYMGRAD"> F  </i>
   <i type="logical" name="LHFONE"> F  </i>
   <i type="logical" name="LRHFCALC"> F  </i>
   <i type="logical" name="LTHOMAS"> F  </i>
   <i type="logical" name="LMODELHF"> F  </i>
   <i name="ENCUT4O">     -1.00000000</i>
   <i type="int" name="EXXOEP">     0</i>
   <i type="int" name="FOURORBIT">     0</i>
   <i name="AEXX">      0.00000000</i>
   <i name="HFALPHA">      0.00000000</i>
   <i name="MCALPHA">      0.00000000</i>
   <i name="ALDAX">      1.00000000</i>
   <i name="AGGAX">      1.00000000</i>
   <i name="ALDAC">      1.00000000</i>
   <i name="AGGAC">      1.00000000</i>
   <i type="int" name="NKREDX">     1</i>
   <i type="int" name="NKREDY">     1</i>
   <i type="int" name="NKREDZ">     1</i>
   <i type="logical" name="SHIFTRED"> F  </i>
   <i type="logical" name="ODDONLY"> F  </i>
   <i type="logical" name="EVENONLY"> F  </i>
   <i type="int" name="LMAXFOCK">     0</i>
   <i type="int" name="NMAXFOCKAE">     0</i>
   <i type="logical" name="LFOCKAEDFT"> F  </i>
   <i name="HFSCREEN">      0.00000000</i>
   <i name="HFSCREENC">      0.00000000</i>
   <i type="int" name="NBANDSGWLOW">     0</i>
  </separator>
  <separator name="vdW DFT" >
   <i type="logical" name="LUSE_VDW"> F  </i>
   <i name="Zab_VDW">     -0.84910000</i>
   <i name="PARAM1">      0.12340000</i>
   <i name="PARAM2">      1.00000000</i>
   <i name="PARAM3">      0.00000000</i>
  </separator>
  <separator name="model GW" >
   <i type="int" name="MODEL_GW">     0</i>
   <i name="MODEL_EPS0">     20.69566731</i>
   <i name="MODEL_ALPHA">      1.00000000</i>
  </separator>
  <separator name="linear response parameters" >
   <i type="logical" name="LEPSILON"> F  </i>
   <i type="logical" name="LRPA"> F  </i>
   <i type="logical" name="LNABLA"> F  </i>
   <i type="logical" name="LVEL"> F  </i>
   <i type="int" name="KINTER">     0</i>
   <i name="CSHIFT">      0.10000000</i>
   <i name="OMEGAMAX">     -1.00000000</i>
   <i name="DEG_THRESHOLD">      0.00200000</i>
   <i name="RTIME">     -0.10000000</i>
   <i name="WPLASMAI">      0.00000000</i>
   <v name="DFIELD">      0.00000000      0.00000000      0.00000000</v>
   <v name="WPLASMA">      0.00000000      0.00000000      0.00000000      0.00000000      0.00000000      0.00000000      0.00000000      0.00000000      0.00000000</v>
  </separator>
  <separator name="orbital magnetization" >
   <i type="logical" name="NUCIND"> F  </i>
   <v name="MAGPOS">      0.00000000      0.00000000      0.00000000</v>
   <i type="logical" name="LNICSALL"> T  </i>
   <i type="logical" name="ORBITALMAG"> F  </i>
   <i type="logical" name="LMAGBLOCH"> F  </i>
   <i type="logical" name="LCHIMAG"> F  </i>
   <i type="logical" name="LGAUGE"> T  </i>
   <i type="int" name="MAGATOM">     0</i>
   <v name="MAGDIPOL">      0.00000000      0.00000000      0.00000000</v>
   <v name="AVECCONST">      0.00000000      0.00000000      0.00000000</v>
  </separator>
  <separator name="response functions" >
   <i type="logical" name="LADDER"> F  </i>
   <i type="logical" name="LRPAFORCE"> F  </i>
   <i type="logical" name="LFXC"> F  </i>
   <i type="logical" name="LHARTREE"> T  </i>
   <i type="int" name="IBSE">     0</i>
   <v type="int" name="KPOINT">    -1     0     0     0</v>
   <i type="logical" name="LTCTE"> F  </i>
   <i type="logical" name="LTETE"> F  </i>
   <i type="logical" name="LTRIPLET"> F  </i>
   <i type="logical" name="LFXCEPS"> F  </i>
   <i type="logical" name="LFXHEG"> F  </i>
   <i type="int" name="NATURALO">     2</i>
   <i type="logical" name="L2ORDER"> F  </i>
   <i type="logical" name="LMP2LT"> F  </i>
   <i type="logical" name="LUSEW"> F  </i>
   <i name="ENCUTGW">     -2.00000000</i>
   <i name="ENCUTGWSOFT">     -2.00000000</i>
   <i name="ENCUTLF">     -1.00000000</i>
   <i type="int" name="LMAXMP2">    -1</i>
   <i name="SCISSOR">      0.00000000</i>
   <i type="int" name="NOMEGA">     0</i>
   <i type="int" name="NOMEGAR">     0</i>
   <i type="int" name="NBANDSGW">    -1</i>
   <i type="int" name="NBANDSO">    -1</i>
   <i type="int" name="NBANDSV">    -1</i>
   <i type="int" name="NELM">     1</i>
   <i type="int" name="NELMHF">     1</i>
   <i type="int" name="DIM">     3</i>
   <i type="int" name="ANTIRES">     0</i>
   <i name="OMEGAMAX">    -30.00000000</i>
   <i name="OMEGAMIN">    -30.00000000</i>
   <i name="OMEGATL">   -200.00000000</i>
   <i type="int" name="OMEGAGRID">   140</i>
   <i name="CSHIFT">     -0.10000000</i>
   <i type="logical" name="SELFENERGY"> F  </i>
   <i type="logical" name="LSPECTRAL"> F  </i>
   <i type="logical" name="LSPECTRALGW"> F  </i>
   <i type="logical" name="LSINGLES"> F  </i>
   <i type="logical" name="LFERMIGW"> F  </i>
   <i type="logical" name="ODDONLYGW"> F  </i>
   <i type="logical" name="EVENONLYGW"> F  </i>
   <i type="int" name="NKREDLFX">     1</i>
   <i type="int" name="NKREDLFY">     1</i>
   <i type="int" name="NKREDLFZ">     1</i>
   <i type="int" name="MAXMEM">  2800</i>
   <i type="int" name="TELESCOPE">     0</i>
   <i type="int" name="TAUPAR">     1</i>
   <i type="int" name="OMEGAPAR">    -1</i>
   <i name="LAMBDA">      1.00000000</i>
  </separator>
  <separator name="External order field" >
   <i name="OFIELD_KAPPA">      0.00000000</i>
   <v name="OFIELD_K">      0.00000000      0.00000000      0.00000000</v>
   <i name="OFIELD_Q6_NEAR">      0.00000000</i>
   <i name="OFIELD_Q6_FAR">      0.00000000</i>
   <i name="OFIELD_A">      0.00000000</i>
  </separator>
  <separator name="solvation model" >
   <i type="logical" name="LSOL"> F  </i>
  </separator>
 </parameters>
 <atominfo>
  <atoms>      39 </atoms>
  <types>       3 </types>
  <array name="atoms" >
   <dimension dim="1">ion</dimension>
   <field type="string">element</field>
   <field type="int">atomtype</field>
   <set>
    <rc><c>C </c><c>   1</c></rc>
    <rc><c>O </c><c>   2</c></rc>
    <rc><c>O </c><c>   2</c></rc>
    <rc><c>Pt</c><c>   3</c></rc>
    <rc><c>Pt</c><c>   3</c></rc>
    <rc><c>Pt</c><c>   3</c></rc>
    <rc><c>Pt</c><c>   3</c></rc>
    <rc><c>Pt</c><c>   3</c></rc>
    <rc><c>Pt</c><c>   3</c></rc>
    <rc><c>Pt</c><c>   3</c></rc>
    <rc><c>Pt</c><c>   3</c></rc>
    <rc><c>Pt</c><c>   3</c></rc>
    <rc><c>Pt</c><c>   3</c></rc>
    <rc><c>Pt</c><c>   3</c></rc>
    <rc><c>Pt</c><c>   3</c></rc>
    <rc><c>Pt</c><c>   3</c></rc>
    <rc><c>Pt</c><c>   3</c></rc>
    <rc><c>Pt</c><c>   3</c></rc>
    <rc><c>Pt</c><c>   3</c></rc>
    <rc><c>Pt</c><c>   3</c></rc>
    <rc><c>Pt</c><c>   3</c></rc>
    <rc><c>Pt</c><c>   3</c></rc>
    <rc><c>Pt</c><c>   3</c></rc>
    <rc><c>Pt</c><c>   3</c></rc>
    <rc><c>Pt</c><c>   3</c></rc>
    <rc><c>Pt</c><c>   3</c></rc>
    <rc><c>Pt</c><c>   3</c></rc>
    <rc><c>Pt</c><c>   3</c></rc>
    <rc><c>Pt</c><c>   3</c></rc>
    <rc><c>Pt</c><c>   3</c></rc>
    <rc><c>Pt</c><c>   3</c></rc>
    <rc><c>Pt</c><c>   3</c></rc>
    <rc><c>Pt</c><c>   3</c></rc>
    <rc><c>Pt</c><c>   3</c></rc>
    <rc><c>Pt</c><c>   3</c></rc>
    <rc><c>Pt</c><c>   3</c></rc>
    <rc><c>Pt</c><c>   3</c></rc>
    <rc><c>Pt</c><c>   3</c></rc>
    <rc><c>Pt</c><c>   3</c></rc>
   </set>
  </array>
  <array name="atomtypes" >
   <dimension dim="1">type</dimension>
   <field type="int">atomspertype</field>
   <field type="string">element</field>
   <field>mass</field>
   <field>valence</field>
   <field type="string">pseudopotential</field>
   <set>
    <rc><c>   1</c><c>C </c><c>     12.01100000</c><c>      4.00000000</c><c> PAW_PBE C 08Apr2002                    </c></rc>
    <rc><c>   2</c><c>O </c><c>     16.00000000</c><c>      6.00000000</c><c> PAW_PBE O 08Apr2002                    </c></rc>
    <rc><c>  36</c><c>Pt</c><c>    195.08000000</c><c>     10.00000000</c><c>  PAW_PBE Pt 04Feb2005                  </c></rc>
   </set>
  </array>
 </atominfo>
 <structure name="initialpos" >
  <crystal>
   <varray name="basis" >
    <v>       7.29695512      -4.21289900       0.00000000 </v>
    <v>       0.00000000       8.42579800       0.00000000 </v>
    <v>       0.00000000       0.00000000      21.87963500 </v>
   </varray>
   <i name="volume">   1345.21837528 </i>
   <varray name="rec_basis" >
    <v>       0.13704346       0.00000000       0.00000000 </v>
    <v>       0.06852173       0.11868312       0.00000000 </v>
    <v>       0.00000000       0.00000000       0.04570460 </v>
   </varray>
  </crystal>
  <varray name="positions" >
   <v>       0.69968556       0.42791878       0.47573283 </v>
   <v>       0.90947403       0.38590997       0.46743887 </v>
   <v>       0.67458254       0.45928769       0.52516165 </v>
   <v>       0.98675500       0.32859100       0.07437600 </v>
   <v>       0.32008800       0.32859100       0.07437600 </v>
   <v>       0.65342200       0.32859100       0.07437600 </v>
   <v>       0.98675500       0.66192500       0.07437600 </v>
   <v>       0.32008800       0.66192500       0.07437600 </v>
   <v>       0.65342200       0.66192500       0.07437600 </v>
   <v>       0.32008800       0.99525800       0.07437600 </v>
   <v>       0.65342200       0.99525800       0.07437600 </v>
   <v>       0.98675500       0.99525800       0.07437600 </v>
   <v>       0.20897700       0.10636900       0.17918600 </v>
   <v>       0.54231100       0.10636900       0.17918600 </v>
   <v>       0.87564400       0.10636900       0.17918600 </v>
   <v>       0.20897700       0.43970300       0.17918600 </v>
   <v>       0.54231100       0.43970300       0.17918600 </v>
   <v>       0.87564400       0.43970300       0.17918600 </v>
   <v>       0.20897700       0.77303600       0.17918600 </v>
   <v>       0.54231100       0.77303600       0.17918600 </v>
   <v>       0.87564400       0.77303600       0.17918600 </v>
   <v>       0.09614919       0.54817395       0.28570250 </v>
   <v>       0.43317202       0.88413244       0.28282524 </v>
   <v>       0.76187711       0.21389473       0.28109738 </v>
   <v>       0.09330810       0.21730543       0.28323167 </v>
   <v>       0.43685948       0.22003933       0.28633488 </v>
   <v>       0.09904569       0.88307905       0.28332477 </v>
   <v>       0.76454010       0.88247266       0.28615499 </v>
   <v>       0.43114423       0.54974909       0.28274163 </v>
   <v>       0.76242416       0.54872933       0.28056168 </v>
   <v>       0.32814853       0.65817322       0.38638260 </v>
   <v>       0.65145442       0.98697034       0.38993539 </v>
   <v>       0.32076661       0.32720670       0.38625690 </v>
   <v>       0.98729763       0.99463903       0.38986062 </v>
   <v>       0.31823572       0.99149369       0.38819553 </v>
   <v>       0.64351311       0.32390904       0.39457351 </v>
   <v>       0.99279233       0.66609432       0.38670405 </v>
   <v>       0.99044541       0.32164728       0.39244235 </v>
   <v>       0.66012324       0.66365638       0.39112611 </v>
  </varray>
  <varray name="selective"  type="logical" >
   <v type="logical" >  T  T  T </v>
   <v type="logical" >  T  T  T </v>
   <v type="logical" >  T  T  T </v>
   <v type="logical" >  F  F  F </v>
   <v type="logical" >  F  F  F </v>
   <v type="logical" >  F  F  F </v>
   <v type="logical" >  F  F  F </v>
   <v type="logical" >  F  F  F </v>
   <v type="logical" >  F  F  F </v>
   <v type="logical" >  F  F  F </v>
   <v type="logical" >  F  F  F </v>
   <v type="logical" >  F  F  F </v>
   <v type="logical" >  F  F  F </v>
   <v type="logical" >  F  F  F </v>
   <v type="logical" >  F  F  F </v>
   <v type="logical" >  F  F  F </v>
   <v type="logical" >  F  F  F </v>
   <v type="logical" >  F  F  F </v>
   <v type="logical" >  F  F  F </v>
   <v type="logical" >  F  F  F </v>
   <v type="logical" >  F  F  F </v>
   <v type="logical" >  T  T  T </v>
   <v type="logical" >  T  T  T </v>
   <v type="logical" >  T  T  T </v>
   <v type="logical" >  T  T  T </v>
   <v type="logical" >  T  T  T </v>
   <v type="logical" >  T  T  T </v>
   <v type="logical" >  T  T  T </v>
   <v type="logical" >  T  T  T </v>
   <v type="logical" >  T  T  T </v>
   <v type="logical" >  T  T  T </v>
   <v type="logical" >  T  T  T </v>
   <v type="logical" >  T  T  T </v>
   <v type="logical" >  T  T  T </v>
   <v type="logical" >  T  T  T </v>
   <v type="logical" >  T  T  T </v>
   <v type="logical" >  T  T  T </v>
   <v type="logical" >  T  T  T </v>
   <v type="logical" >  T  T  T </v>
  </varray>
  <varray name="velocities" >
   <v>      -0.00004840       0.00019246       0.00026515 </v>
   <v>      -0.00016918      -0.00012612       0.00009393 </v>
   <v>       0.00027245      -0.00015552       0.00004056 </v>
   <v>       0.00000000       0.00000000       0.00000000 </v>
   <v>       0.00000000       0.00000000       0.00000000 </v>
   <v>       0.00000000       0.00000000       0.00000000 </v>
   <v>       0.00000000       0.00000000       0.00000000 </v>
   <v>       0.00000000       0.00000000       0.00000000 </v>
   <v>       0.00000000       0.00000000       0.00000000 </v>
   <v>       0.00000000       0.00000000       0.00000000 </v>
   <v>       0.00000000       0.00000000       0.00000000 </v>
   <v>       0.00000000       0.00000000       0.00000000 </v>
   <v>       0.00000000       0.00000000       0.00000000 </v>
   <v>       0.00000000       0.00000000       0.00000000 </v>
   <v>       0.00000000       0.00000000       0.00000000 </v>
   <v>       0.00000000       0.00000000       0.00000000 </v>
   <v>       0.00000000       0.00000000       0.00000000 </v>
   <v>       0.00000000       0.00000000       0.00000000 </v>
   <v>       0.00000000       0.00000000       0.00000000 </v>
   <v>       0.00000000       0.00000000       0.00000000 </v>
   <v>       0.00000000       0.00000000       0.00000000 </v>
   <v>      -0.00000955      -0.00004812       0.00001571 </v>
   <v>      -0.00003552      -0.00006889       0.00000647 </v>
   <v>      -0.00001744      -0.00001865       0.00004900 </v>
   <v>       0.00001102      -0.00004254       0.00000512 </v>
   <v>      -0.00005823       0.00003698       0.00002832 </v>
   <v>      -0.00005163       0.00006763      -0.00001102 </v>
   <v>       0.00005035       0.00006586      -0.00004261 </v>
   <v>       0.00002492      -0.00014088      -0.00000795 </v>
   <v>       0.00006401       0.00005344      -0.00001443 </v>
   <v>       0.00006578       0.00016166       0.00000957 </v>
   <v>      -0.00001219      -0.00003165      -0.00003024 </v>
   <v>      -0.00002615      -0.00006735       0.00000548 </v>
   <v>      -0.00011450      -0.00001860      -0.00003211 </v>
   <v>      -0.00008035       0.00015282      -0.00002254 </v>
   <v>      -0.00008987      -0.00000430      -0.00002357 </v>
   <v>       0.00001891      -0.00001090       0.00001637 </v>
   <v>      -0.00009773      -0.00001616       0.00001327 </v>
   <v>      -0.00009250      -0.00015299      -0.00001001 </v>
  </varray>
  <nose>
   <v>       0.00448546       0.00000000     300.00000000     300.00000000 </v>
  </nose>
 </structure>
 <calculation>
  <scstep>
   <time name="dav">    7.09    7.26</time>
   <time name="total">    7.21    7.49</time>
   <energy>
    <i name="alphaZ">    975.10247152 </i>
    <i name="ewald">  90853.33488049 </i>
    <i name="hartreedc">-119945.38370784 </i>
    <i name="XCdc">    189.37672346 </i>
    <i name="pawpsdc">  24789.08602224 </i>
    <i name="pawaedc"> -23775.73976456 </i>
    <i name="eentropy">      0.01449143 </i>
    <i name="bandstr">   2003.37476550 </i>
    <i name="atom">  27259.89416086 </i>
    <i name="e_fr_energy">   2349.06004311 </i>
    <i name="e_wo_entrp">   2349.04555168 </i>
    <i name="e_0_energy">   2349.05521263 </i>
   </energy>
  </scstep>
  <scstep>
   <time name="dav">    7.78    7.93</time>
   <time name="total">    7.78    7.93</time>
   <energy>
    <i name="e_fr_energy">    -87.98052673 </i>
    <i name="e_wo_entrp">    -87.96506510 </i>
    <i name="e_0_energy">    -87.97537285 </i>
   </energy>
  </scstep>
  <scstep>
   <time name="dav">    8.09    8.21</time>
   <time name="total">    8.10    8.21</time>
   <energy>
    <i name="e_fr_energy">   -244.11936635 </i>
    <i name="e_wo_entrp">   -244.12205372 </i>
    <i name="e_0_energy">   -244.12026214 </i>
   </energy>
  </scstep>
  <scstep>
   <time name="dav">    7.82    7.89</time>
   <time name="total">    7.82    7.89</time>
   <energy>
    <i name="e_fr_energy">   -248.75654396 </i>
    <i name="e_wo_entrp">   -248.75723331 </i>
    <i name="e_0_energy">   -248.75677374 </i>
   </energy>
  </scstep>
  <scstep>
   <time name="dav">    8.14    8.20</time>
   <time name="total">    8.57    8.64</time>
   <energy>
    <i name="e_fr_energy">   -248.92044989 </i>
    <i name="e_wo_entrp">   -248.92097433 </i>
    <i name="e_0_energy">   -248.92062470 </i>
   </energy>
  </scstep>
  <scstep>
   <time name="diag">    1.12    1.13</time>
   <time name="diis">    4.20    4.23</time>
   <time name="orth">    0.19    0.19</time>
   <time name="total">    6.05    6.09</time>
   <energy>
    <i name="e_fr_energy">   -245.56778996 </i>
    <i name="e_wo_entrp">   -245.38114902 </i>
    <i name="e_0_energy">   -245.50557631 </i>
   </energy>
  </scstep>
  <scstep>
   <time name="diag">    1.23    1.24</time>
   <time name="diis">    4.23    4.26</time>
   <time name="orth">    0.19    0.19</time>
   <time name="total">    6.11    6.16</time>
   <energy>
    <i name="e_fr_energy">   -239.24749287 </i>
    <i name="e_wo_entrp">   -239.11561194 </i>
    <i name="e_0_energy">   -239.20353256 </i>
   </energy>
  </scstep>
  <scstep>
   <time name="diag">    1.12    1.13</time>
   <time name="diis">    4.21    4.24</time>
   <time name="orth">    0.18    0.18</time>
   <time name="total">    6.01    6.05</time>
   <energy>
    <i name="e_fr_energy">   -243.12509364 </i>
    <i name="e_wo_entrp">   -243.16181881 </i>
    <i name="e_0_energy">   -243.13733536 </i>
   </energy>
  </scstep>
  <scstep>
   <time name="diag">    1.12    1.13</time>
   <time name="diis">    4.37    4.41</time>
   <time name="orth">    0.19    0.20</time>
   <time name="total">    6.23    6.28</time>
   <energy>
    <i name="e_fr_energy">   -232.70992965 </i>
    <i name="e_wo_entrp">   -232.65237206 </i>
    <i name="e_0_energy">   -232.69074379 </i>
   </energy>
  </scstep>
  <scstep>
   <time name="diag">    1.17    1.18</time>
   <time name="diis">    4.19    4.21</time>
   <time name="orth">    0.18    0.19</time>
   <time name="total">    6.03    6.07</time>
   <energy>
    <i name="e_fr_energy">   -231.07209428 </i>
    <i name="e_wo_entrp">   -231.04284104 </i>
    <i name="e_0_energy">   -231.06234320 </i>
   </energy>
  </scstep>
  <scstep>
   <time name="diag">    1.14    1.15</time>
   <time name="diis">    4.11    4.14</time>
   <time name="orth">    0.18    0.22</time>
   <time name="total">    5.96    6.04</time>
   <energy>
    <i name="e_fr_energy">   -230.65204899 </i>
    <i name="e_wo_entrp">   -230.62108812 </i>
    <i name="e_0_energy">   -230.64172870 </i>
   </energy>
  </scstep>
  <scstep>
   <time name="diag">    1.09    1.10</time>
   <time name="diis">    3.99    4.04</time>
   <time name="orth">    0.16    0.16</time>
   <time name="total">    5.66    5.72</time>
   <energy>
    <i name="e_fr_energy">   -230.55559564 </i>
    <i name="e_wo_entrp">   -230.50761841 </i>
    <i name="e_0_energy">   -230.53960323 </i>
   </energy>
  </scstep>
  <scstep>
   <time name="diag">    1.08    1.09</time>
   <time name="diis">    4.07    4.09</time>
   <time name="orth">    0.18    0.18</time>
   <time name="total">    5.85    5.88</time>
   <energy>
    <i name="e_fr_energy">   -230.49884244 </i>
    <i name="e_wo_entrp">   -230.47072961 </i>
    <i name="e_0_energy">   -230.48947150 </i>
   </energy>
  </scstep>
  <scstep>
   <time name="diag">    1.12    1.13</time>
   <time name="diis">    4.00    4.03</time>
   <time name="orth">    0.20    0.20</time>
   <time name="total">    5.86    5.90</time>
   <energy>
    <i name="e_fr_energy">   -230.46420307 </i>
    <i name="e_wo_entrp">   -230.43893676 </i>
    <i name="e_0_energy">   -230.45578097 </i>
   </energy>
  </scstep>
  <scstep>
   <time name="diag">    1.15    1.16</time>
   <time name="diis">    3.89    3.91</time>
   <time name="orth">    0.20    0.20</time>
   <time name="total">    5.76    5.80</time>
   <energy>
    <i name="e_fr_energy">   -230.45323641 </i>
    <i name="e_wo_entrp">   -230.42648779 </i>
    <i name="e_0_energy">   -230.44432020 </i>
   </energy>
  </scstep>
  <scstep>
   <time name="diag">    1.15    1.16</time>
   <time name="diis">    4.20    4.23</time>
   <time name="orth">    0.19    0.20</time>
   <time name="total">    6.06    6.10</time>
   <energy>
    <i name="e_fr_energy">   -230.45023058 </i>
    <i name="e_wo_entrp">   -230.42450881 </i>
    <i name="e_0_energy">   -230.44165665 </i>
   </energy>
  </scstep>
  <scstep>
   <time name="diag">    1.16    1.17</time>
   <time name="diis">    4.08    4.11</time>
   <time name="orth">    0.20    0.20</time>
   <time name="total">    5.97    6.01</time>
   <energy>
    <i name="e_fr_energy">   -230.44974579 </i>
    <i name="e_wo_entrp">   -230.42101831 </i>
    <i name="e_0_energy">   -230.44016996 </i>
   </energy>
  </scstep>
  <scstep>
   <time name="diag">    1.11    1.12</time>
   <time name="diis">    4.15    4.18</time>
   <time name="orth">    0.20    0.20</time>
   <time name="total">    5.96    6.00</time>
   <energy>
    <i name="e_fr_energy">   -230.44964403 </i>
    <i name="e_wo_entrp">   -230.42362344 </i>
    <i name="e_0_energy">   -230.44097050 </i>
   </energy>
  </scstep>
  <scstep>
   <time name="diag">    1.13    1.14</time>
   <time name="diis">    4.18    4.21</time>
   <time name="orth">    0.21    0.21</time>
   <time name="total">    6.06    6.10</time>
   <energy>
    <i name="e_fr_energy">   -230.44948496 </i>
    <i name="e_wo_entrp">   -230.42293672 </i>
    <i name="e_0_energy">   -230.44063555 </i>
   </energy>
  </scstep>
  <scstep>
   <time name="diag">    1.17    1.18</time>
   <time name="diis">    4.16    4.18</time>
   <time name="orth">    0.19    0.19</time>
   <time name="total">    6.04    6.07</time>
   <energy>
    <i name="e_fr_energy">   -230.44962478 </i>
    <i name="e_wo_entrp">   -230.42264311 </i>
    <i name="e_0_energy">   -230.44063089 </i>
   </energy>
  </scstep>
  <scstep>
   <time name="diag">    1.13    1.14</time>
   <time name="diis">    3.87    3.90</time>
   <time name="orth">    0.19    0.20</time>
   <time name="total">    5.71    5.75</time>
   <energy>
    <i name="e_fr_energy">   -230.44977139 </i>
    <i name="e_wo_entrp">   -230.42270529 </i>
    <i name="e_0_energy">   -230.44074936 </i>
   </energy>
  </scstep>
  <scstep>
   <time name="diag">    1.11    1.11</time>
   <time name="diis">    2.65    2.67</time>
   <time name="orth">    0.19    0.19</time>
   <time name="total">    4.48    4.51</time>
   <energy>
    <i name="e_fr_energy">   -230.44989272 </i>
    <i name="e_wo_entrp">   -230.42300291 </i>
    <i name="e_0_energy">   -230.44092945 </i>
   </energy>
  </scstep>
  <scstep>
   <time name="diag">    1.09    1.10</time>
   <time name="diis">    2.76    2.78</time>
   <time name="orth">    0.18    0.19</time>
   <time name="total">    4.50    4.54</time>
   <energy>
    <i name="e_fr_energy">   -230.45004283 </i>
    <i name="e_wo_entrp">   -230.42313079 </i>
    <i name="e_0_energy">   -230.44107215 </i>
   </energy>
  </scstep>
  <scstep>
   <time name="diag">    1.06    1.07</time>
   <time name="diis">    2.74    2.77</time>
   <time name="orth">    0.19    0.19</time>
   <time name="total">    4.49    4.53</time>
   <energy>
    <i name="e_fr_energy">   -230.45021886 </i>
    <i name="e_wo_entrp">   -230.42346256 </i>
    <i name="e_0_energy">   -230.44130009 </i>
   </energy>
  </scstep>
  <scstep>
   <time name="diag">    1.12    1.12</time>
   <time name="diis">    2.79    2.80</time>
   <time name="orth">    0.18    0.19</time>
   <time name="total">    4.61    4.64</time>
   <energy>
    <i name="e_fr_energy">   -230.45041273 </i>
    <i name="e_wo_entrp">   -230.42356750 </i>
    <i name="e_0_energy">   -230.44146432 </i>
   </energy>
  </scstep>
  <scstep>
   <time name="diag">    1.15    1.16</time>
   <time name="diis">    2.53    2.55</time>
   <time name="orth">    0.19    0.19</time>
   <time name="total">    4.38    4.41</time>
   <energy>
    <i name="e_fr_energy">   -230.45051921 </i>
    <i name="e_wo_entrp">   -230.42371475 </i>
    <i name="e_0_energy">   -230.44158439 </i>
   </energy>
  </scstep>
  <scstep>
   <time name="diag">    1.20    1.21</time>
   <time name="diis">    2.68    2.69</time>
   <time name="orth">    0.19    0.19</time>
   <time name="total">    4.60    4.63</time>
   <energy>
    <i name="e_fr_energy">   -230.45067111 </i>
    <i name="e_wo_entrp">   -230.42392450 </i>
    <i name="e_0_energy">   -230.44175558 </i>
   </energy>
  </scstep>
  <scstep>
   <time name="diag">    1.12    1.12</time>
   <time name="diis">    2.38    2.39</time>
   <time name="orth">    0.19    0.19</time>
   <time name="total">    4.21    4.24</time>
   <energy>
    <i name="e_fr_energy">   -230.45074274 </i>
    <i name="e_wo_entrp">   -230.42399519 </i>
    <i name="e_0_energy">   -230.44182689 </i>
   </energy>
  </scstep>
  <scstep>
   <time name="diag">    1.12    1.12</time>
   <time name="diis">    2.28    2.29</time>
   <time name="orth">    0.17    0.18</time>
   <time name="total">    4.05    4.08</time>
   <energy>
    <i name="e_fr_energy">   -230.45080983 </i>
    <i name="e_wo_entrp">   -230.42404566 </i>
    <i name="e_0_energy">   -230.44188844 </i>
   </energy>
  </scstep>
  <scstep>
   <time name="diag">    1.08    1.09</time>
   <time name="diis">    2.06    2.08</time>
   <time name="orth">    0.18    0.18</time>
   <time name="total">    3.82    3.85</time>
   <energy>
    <i name="e_fr_energy">   -230.45084355 </i>
    <i name="e_wo_entrp">   -230.42407426 </i>
    <i name="e_0_energy">   -230.44192046 </i>
   </energy>
  </scstep>
  <scstep>
   <time name="diag">    1.08    1.09</time>
   <time name="diis">    2.09    2.11</time>
   <time name="orth">    0.18    0.18</time>
   <time name="total">    3.85    3.88</time>
   <energy>
    <i name="e_fr_energy">   -230.45087104 </i>
    <i name="e_wo_entrp">   -230.42410103 </i>
    <i name="e_0_energy">   -230.44194770 </i>
   </energy>
  </scstep>
  <scstep>
   <time name="diag">    1.12    1.13</time>
   <time name="diis">    2.03    2.04</time>
   <time name="orth">    0.19    0.19</time>
   <time name="total">    3.87    3.89</time>
   <energy>
    <i name="e_fr_energy">   -230.45089207 </i>
    <i name="e_wo_entrp">   -230.42413135 </i>
    <i name="e_0_energy">   -230.44197183 </i>
   </energy>
  </scstep>
  <scstep>
   <time name="diag">    1.16    1.17</time>
   <time name="diis">    1.92    1.94</time>
   <time name="orth">    0.18    0.19</time>
   <time name="total">    3.37    3.40</time>
   <energy>
    <i name="alphaZ">    975.10247152 </i>
    <i name="ewald">  90853.33488049 </i>
    <i name="hartreedc">-119563.53483814 </i>
    <i name="XCdc">    177.95947214 </i>
    <i name="pawpsdc">  30052.87764449 </i>
    <i name="pawaedc"> -29138.33342666 </i>
    <i name="eentropy">     -0.02675993 </i>
    <i name="bandstr">   -847.72450464 </i>
    <i name="atom">  27259.89416086 </i>
    <i name="e_fr_energy">   -230.45089987 </i>
    <i name="e_wo_entrp">   -230.42413993 </i>
    <i name="e_0_energy">   -230.44197989 </i>
   </energy>
  </scstep>
  <structure>
   <crystal>
    <varray name="basis" >
     <v>       7.29695512      -4.21289900       0.00000000 </v>
     <v>       0.00000000       8.42579800       0.00000000 </v>
     <v>       0.00000000       0.00000000      21.87963500 </v>
    </varray>
    <i name="volume">   1345.21837528 </i>
    <varray name="rec_basis" >
     <v>       0.13704346       0.00000000       0.00000000 </v>
     <v>       0.06852173       0.11868312       0.00000000 </v>
     <v>       0.00000000       0.00000000       0.04570460 </v>
    </varray>
   </crystal>
   <varray name="positions" >
    <v>       0.69968556       0.42791878       0.47573283 </v>
    <v>       0.90947403       0.38590997       0.46743887 </v>
    <v>       0.67458254       0.45928769       0.52516165 </v>
    <v>       0.98675500       0.32859100       0.07437600 </v>
    <v>       0.32008800       0.32859100       0.07437600 </v>
    <v>       0.65342200       0.32859100       0.07437600 </v>
    <v>       0.98675500       0.66192500       0.07437600 </v>
    <v>       0.32008800       0.66192500       0.07437600 </v>
    <v>       0.65342200       0.66192500       0.07437600 </v>
    <v>       0.32008800       0.99525800       0.07437600 </v>
    <v>       0.65342200       0.99525800       0.07437600 </v>
    <v>       0.98675500       0.99525800       0.07437600 </v>
    <v>       0.20897700       0.10636900       0.17918600 </v>
    <v>       0.54231100       0.10636900       0.17918600 </v>
    <v>       0.87564400       0.10636900       0.17918600 </v>
    <v>       0.20897700       0.43970300       0.17918600 </v>
    <v>       0.54231100       0.43970300       0.17918600 </v>
    <v>       0.87564400       0.43970300       0.17918600 </v>
    <v>       0.20897700       0.77303600       0.17918600 </v>
    <v>       0.54231100       0.77303600       0.17918600 </v>
    <v>       0.87564400       0.77303600       0.17918600 </v>
    <v>       0.09614919       0.54817395       0.28570250 </v>
    <v>       0.43317202       0.88413244       0.28282524 </v>
    <v>       0.76187711       0.21389473       0.28109738 </v>
    <v>       0.09330810       0.21730543       0.28323167 </v>
    <v>       0.43685948       0.22003933       0.28633488 </v>
    <v>       0.09904569       0.88307905       0.28332477 </v>
    <v>       0.76454010       0.88247266       0.28615499 </v>
    <v>       0.43114423       0.54974909       0.28274163 </v>
    <v>       0.76242416       0.54872933       0.28056168 </v>
    <v>       0.32814853       0.65817322       0.38638260 </v>
    <v>       0.65145442       0.98697034       0.38993539 </v>
    <v>       0.32076661       0.32720670       0.38625690 </v>
    <v>       0.98729763       0.99463903       0.38986062 </v>
    <v>       0.31823572       0.99149369       0.38819553 </v>
    <v>       0.64351311       0.32390904       0.39457351 </v>
    <v>       0.99279233       0.66609432       0.38670405 </v>
    <v>       0.99044541       0.32164728       0.39244235 </v>
    <v>       0.66012324       0.66365638       0.39112611 </v>
   </varray>
  </structure>
  <varray name="forces" >
   <v>      -0.20302438      -1.19168281      -1.02280649 </v>
   <v>       0.53630767       0.23434344       0.03188788 </v>
   <v>       0.19273791       0.30751432       0.56558859 </v>
   <v>       0.02813568      -0.00122605       0.12061295 </v>
   <v>      -0.00415560      -0.04689571       0.16332767 </v>
   <v>      -0.04100017      -0.00137435       0.09756903 </v>
   <v>       0.01333261       0.01856207       0.12120092 </v>
   <v>      -0.03568033       0.01581302       0.13647054 </v>
   <v>       0.02092780       0.02539002       0.12555667 </v>
   <v>       0.04407576      -0.02763578       0.08006591 </v>
   <v>       0.01568410       0.00915779       0.11522775 </v>
   <v>      -0.03602505       0.01809978       0.09588292 </v>
   <v>       0.07717062      -0.02650705       0.06920387 </v>
   <v>      -0.15526675       0.11335180      -0.10675978 </v>
   <v>       0.06961311      -0.23073831      -0.17147965 </v>
   <v>      -0.08682099       0.05159443      -0.01542380 </v>
   <v>      -0.18423899      -0.04777998      -0.10663645 </v>
   <v>       0.15183346      -0.00664616      -0.16671805 </v>
   <v>      -0.05423229      -0.03254422      -0.01671676 </v>
   <v>       0.12032278       0.00240479       0.00656828 </v>
   <v>       0.11333653       0.24035165      -0.14645191 </v>
   <v>       0.03749176      -0.09517280      -0.47319587 </v>
   <v>      -0.13269887       0.00412401       0.09279849 </v>
   <v>       0.08150730       0.13893845       0.85403843 </v>
   <v>       0.08071556      -0.01470251       0.32336792 </v>
   <v>      -0.24665875      -0.20885642      -0.59539957 </v>
   <v>      -0.06961573       0.12063315      -0.08157508 </v>
   <v>      -0.00026772      -0.06964633      -0.51011397 </v>
   <v>       0.13045017      -0.01698266      -0.00146492 </v>
   <v>       0.19757267       0.00910102       0.71792510 </v>
   <v>      -0.11477114       0.40201220       0.14136313 </v>
   <v>      -0.02617757       0.30310843      -0.35399423 </v>
   <v>      -0.13975211      -0.07967353       0.15892963 </v>
   <v>       0.10448280      -0.17569665      -0.10708842 </v>
   <v>       0.07225337      -0.22045589       0.00932728 </v>
   <v>      -0.26270338       0.36130160      -0.04225645 </v>
   <v>       0.03434087       0.11758826       0.01662671 </v>
   <v>      -0.16313381       0.00260638       0.30643744 </v>
   <v>      -0.09783796       0.11419330      -0.43683844 </v>
  </varray>
  <varray name="stress" >
   <v>     -44.74298139       1.10803292       1.08622325 </v>
   <v>       1.10803277     -47.27556536      -0.37708007 </v>
   <v>       1.08622306      -0.37708016      -7.04319400 </v>
  </varray>
  <energy>
   <i name="e_fr_energy">   -230.45089987 </i>
   <i name="e_wo_entrp">   -230.44197989 </i>
   <i name="e_0_energy">     -0.02675993 </i>
   <i name="kinetic">      0.81434295 </i>
   <i name="lattice kinetic">      0.00000000 </i>
   <i name="nosepot">      0.00000000 </i>
   <i name="nosekinetic">      0.00000000 </i>
   <i name="total">   -229.63655692 </i>
  </energy>
  <time name="totalsc">  192.56  194.56</time>
 </calculation>
 <calculation>
  <scstep>
   <time name="dav">    6.80    6.86</time>
   <time name="total">    7.29    7.45</time>
   <energy>
    <i name="alphaZ">    975.10247152 </i>
    <i name="ewald">  90860.43182059 </i>
    <i name="hartreedc">-119570.23382567 </i>
    <i name="XCdc">    177.97398977 </i>
    <i name="pawpsdc">  30052.88265560 </i>
    <i name="pawaedc"> -29138.33822100 </i>
    <i name="eentropy">     -0.02747898 </i>
    <i name="bandstr">   -848.13218739 </i>
    <i name="atom">  27259.89416086 </i>
    <i name="e_fr_energy">   -230.44661469 </i>
    <i name="e_wo_entrp">   -230.41913571 </i>
    <i name="e_0_energy">   -230.43745503 </i>
   </energy>
  </scstep>
  <scstep>
   <time name="diag">    1.10    1.11</time>
   <time name="diis">    3.82    3.86</time>
   <time name="orth">    0.18    0.18</time>
   <time name="total">    5.56    5.60</time>
   <energy>
    <i name="e_fr_energy">   -230.44735906 </i>
    <i name="e_wo_entrp">   -230.42135864 </i>
    <i name="e_0_energy">   -230.43869225 </i>
   </energy>
  </scstep>
  <scstep>
   <time name="diag">    1.05    1.06</time>
   <time name="diis">    3.90    3.94</time>
   <time name="orth">    0.16    0.16</time>
   <time name="total">    5.50    5.56</time>
   <energy>
    <i name="e_fr_energy">   -230.44727847 </i>
    <i name="e_wo_entrp">   -230.41950246 </i>
    <i name="e_0_energy">   -230.43801980 </i>
   </energy>
  </scstep>
  <scstep>
   <time name="diag">    1.01    1.01</time>
   <time name="diis">    3.69    3.71</time>
   <time name="orth">    0.17    0.17</time>
   <time name="total">    5.31    5.34</time>
   <energy>
    <i name="e_fr_energy">   -230.44713905 </i>
    <i name="e_wo_entrp">   -230.41979066 </i>
    <i name="e_0_energy">   -230.43802292 </i>
   </energy>
  </scstep>
  <scstep>
   <time name="diag">    1.05    1.06</time>
   <time name="diis">    3.20    3.22</time>
   <time name="orth">    0.20    0.20</time>
   <time name="total">    4.97    5.00</time>
   <energy>
    <i name="e_fr_energy">   -230.44710677 </i>
    <i name="e_wo_entrp">   -230.42029280 </i>
    <i name="e_0_energy">   -230.43816878 </i>
   </energy>
  </scstep>
  <scstep>
   <time name="diag">    1.12    1.13</time>
   <time name="diis">    3.62    3.65</time>
   <time name="orth">    0.19    0.19</time>
   <time name="total">    5.47    5.50</time>
   <energy>
    <i name="e_fr_energy">   -230.44708841 </i>
    <i name="e_wo_entrp">   -230.41986960 </i>
    <i name="e_0_energy">   -230.43801547 </i>
   </energy>
  </scstep>
  <scstep>
   <time name="diag">    1.12    1.13</time>
   <time name="diis">    2.94    2.96</time>
   <time name="orth">    0.18    0.19</time>
   <time name="total">    4.76    4.79</time>
   <energy>
    <i name="e_fr_energy">   -230.44707478 </i>
    <i name="e_wo_entrp">   -230.42000184 </i>
    <i name="e_0_energy">   -230.43805046 </i>
   </energy>
  </scstep>
  <scstep>
   <time name="diag">    1.12    1.12</time>
   <time name="diis">    2.43    2.44</time>
   <time name="orth">    0.19    0.19</time>
   <time name="total">    3.84    3.87</time>
   <energy>
    <i name="alphaZ">    975.10247152 </i>
    <i name="ewald">  90860.43182059 </i>
    <i name="hartreedc">-119571.33091432 </i>
    <i name="XCdc">    177.98434020 </i>
    <i name="pawpsdc">  30054.52356226 </i>
    <i name="pawaedc"> -29139.98625894 </i>
    <i name="eentropy">     -0.02709303 </i>
    <i name="bandstr">   -847.03915760 </i>
    <i name="atom">  27259.89416086 </i>
    <i name="e_fr_energy">   -230.44706846 </i>
    <i name="e_wo_entrp">   -230.41997543 </i>
    <i name="e_0_energy">   -230.43803745 </i>
   </energy>
  </scstep>
  <structure>
   <crystal>
    <varray name="basis" >
     <v>       7.29695512      -4.21289900       0.00000000 </v>
     <v>       0.00000000       8.42579800       0.00000000 </v>
     <v>       0.00000000       0.00000000      21.87963500 </v>
    </varray>
    <i name="volume">   1345.21837528 </i>
    <varray name="rec_basis" >
     <v>       0.13704346       0.00000000       0.00000000 </v>
     <v>       0.06852173       0.11868312       0.00000000 </v>
     <v>       0.00000000       0.00000000       0.04570460 </v>
    </varray>
   </crystal>
   <varray name="positions" >
    <v>       0.69953357       0.42793668       0.47581125 </v>
    <v>       0.90965532       0.38590027       0.46737204 </v>
    <v>       0.67489162       0.45979442       0.52503986 </v>
    <v>       0.98675500       0.32859100       0.07437600 </v>
    <v>       0.32008800       0.32859100       0.07437600 </v>
    <v>       0.65342200       0.32859100       0.07437600 </v>
    <v>       0.98675500       0.66192500       0.07437600 </v>
    <v>       0.32008800       0.66192500       0.07437600 </v>
    <v>       0.65342200       0.66192500       0.07437600 </v>
    <v>       0.32008800       0.99525800       0.07437600 </v>
    <v>       0.65342200       0.99525800       0.07437600 </v>
    <v>       0.98675500       0.99525800       0.07437600 </v>
    <v>       0.20897700       0.10636900       0.17918600 </v>
    <v>       0.54231100       0.10636900       0.17918600 </v>
    <v>       0.87564400       0.10636900       0.17918600 </v>
    <v>       0.20897700       0.43970300       0.17918600 </v>
    <v>       0.54231100       0.43970300       0.17918600 </v>
    <v>       0.87564400       0.43970300       0.17918600 </v>
    <v>       0.20897700       0.77303600       0.17918600 </v>
    <v>       0.54231100       0.77303600       0.17918600 </v>
    <v>       0.87564400       0.77303600       0.17918600 </v>
    <v>       0.09610469       0.54808754       0.28568539 </v>
    <v>       0.43307482       0.88420266       0.28283160 </v>
    <v>       0.76177111       0.21369733       0.28108486 </v>
    <v>       0.09320817       0.21717976       0.28322305 </v>
    <v>       0.43680832       0.22001950       0.28633136 </v>
    <v>       0.09901990       0.88307553       0.28333898 </v>
    <v>       0.76456337       0.88251397       0.28617556 </v>
    <v>       0.43102600       0.54980131       0.28271028 </v>
    <v>       0.76252626       0.54871287       0.28052565 </v>
    <v>       0.32817698       0.65824163       0.38640549 </v>
    <v>       0.65136040       0.98695295       0.38994529 </v>
    <v>       0.32079481       0.32723928       0.38626092 </v>
    <v>       0.98727197       0.99452899       0.38984038 </v>
    <v>       0.31816347       0.99153125       0.38814877 </v>
    <v>       0.64356020       0.32390304       0.39450591 </v>
    <v>       0.99280793       0.66609621       0.38674042 </v>
    <v>       0.99048165       0.32172892       0.39246313 </v>
    <v>       0.66019357       0.66379057       0.39113441 </v>
   </varray>
  </structure>
  <varray name="forces" >
   <v>      -0.17019910      -1.30330176      -1.42604327 </v>
   <v>       0.54392432       0.23155446       0.04792172 </v>
   <v>       0.13736286       0.41987237       0.92827205 </v>
   <v>       0.02852853      -0.00044127       0.12062923 </v>
   <v>      -0.00335670      -0.04663392       0.16433785 </v>
   <v>      -0.04110550      -0.00094660       0.09774001 </v>
   <v>       0.01382040       0.01875943       0.12035897 </v>
   <v>      -0.03543873       0.01592114       0.13600858 </v>
   <v>       0.02079482       0.02457119       0.12477409 </v>
   <v>       0.04420159      -0.02811690       0.08039532 </v>
   <v>       0.01537155       0.00870382       0.11545683 </v>
   <v>      -0.03574264       0.01785328       0.09496705 </v>
   <v>       0.07768046      -0.02707176       0.06859383 </v>
   <v>      -0.15704224       0.11419178      -0.11021698 </v>
   <v>       0.06928207      -0.23164913      -0.17319682 </v>
   <v>      -0.08888884       0.05030425      -0.01852804 </v>
   <v>      -0.18500610      -0.04706648      -0.10634829 </v>
   <v>       0.15176168      -0.00981245      -0.16966037 </v>
   <v>      -0.05553650      -0.03213066      -0.01660256 </v>
   <v>       0.12049343       0.00494918       0.00840476 </v>
   <v>       0.11356201       0.24157154      -0.14603319 </v>
   <v>       0.03940458      -0.09131985      -0.46783965 </v>
   <v>      -0.13143970      -0.00694342       0.09044295 </v>
   <v>       0.08868632       0.14984915       0.85894339 </v>
   <v>       0.08828696      -0.00403733       0.32690977 </v>
   <v>      -0.24035889      -0.20095115      -0.59660019 </v>
   <v>      -0.07313685       0.11577299      -0.08746580 </v>
   <v>      -0.00993178      -0.07588486      -0.51540483 </v>
   <v>       0.14196805      -0.02366019       0.00951279 </v>
   <v>       0.18822316       0.01726934       0.72697516 </v>
   <v>      -0.11607563       0.39817914       0.13507285 </v>
   <v>      -0.02303786       0.30421621      -0.35286236 </v>
   <v>      -0.14106472      -0.07360660       0.15375908 </v>
   <v>       0.10666704      -0.16422648      -0.10042452 </v>
   <v>       0.07675264      -0.22459553       0.02159841 </v>
   <v>      -0.25412160       0.37873721       0.00138220 </v>
   <v>       0.03359523       0.11487987       0.00898678 </v>
   <v>      -0.15609796      -0.01538678       0.29022120 </v>
   <v>      -0.10520795       0.10419057      -0.44400310 </v>
  </varray>
  <varray name="stress" >
   <v>     -44.68311249       1.05130430       0.96585096 </v>
   <v>       1.05130453     -47.19025564      -0.23926615 </v>
   <v>       0.96585083      -0.23926616      -6.58404163 </v>
  </varray>
  <energy>
   <i name="e_fr_energy">   -230.44706846 </i>
   <i name="e_wo_entrp">   -230.43803745 </i>
   <i name="e_0_energy">     -0.02709303 </i>
   <i name="kinetic">      0.81056701 </i>
   <i name="lattice kinetic">      0.00000000 </i>
   <i name="nosepot">     -0.00001908 </i>
   <i name="nosekinetic">      0.00000004 </i>
   <i name="total">   -229.63652049 </i>
  </energy>
  <time name="totalsc">   50.31   51.48</time>
 </calculation>
 <calculation>
  <scstep>
   <time name="dav">    6.53    6.58</time>
   <time name="total">    6.96    7.08</time>
   <energy>
    <i name="alphaZ">    975.10247152 </i>
    <i name="ewald">  90867.53938085 </i>
    <i name="hartreedc">-119578.11395779 </i>
    <i name="XCdc">    177.99779870 </i>
    <i name="pawpsdc">  30054.52379689 </i>
    <i name="pawaedc"> -29139.98677398 </i>
    <i name="eentropy">     -0.02779836 </i>
    <i name="bandstr">   -847.37121666 </i>
    <i name="atom">  27259.89416086 </i>
    <i name="e_fr_energy">   -230.44213797 </i>
    <i name="e_wo_entrp">   -230.41433961 </i>
    <i name="e_0_energy">   -230.43287185 </i>
   </energy>
  </scstep>
  <scstep>
   <time name="diag">    1.03    1.04</time>
   <time name="diis">    4.01    4.04</time>
   <time name="orth">    0.19    0.19</time>
   <time name="total">    5.75    5.80</time>
   <energy>
    <i name="e_fr_energy">   -230.44285144 </i>
    <i name="e_wo_entrp">   -230.41659899 </i>
    <i name="e_0_energy">   -230.43410063 </i>
   </energy>
  </scstep>
  <scstep>
   <time name="diag">    1.16    1.17</time>
   <time name="diis">    4.35    4.38</time>
   <time name="orth">    0.19    0.19</time>
   <time name="total">    6.25    6.30</time>
   <energy>
    <i name="e_fr_energy">   -230.44275262 </i>
    <i name="e_wo_entrp">   -230.41468981 </i>
    <i name="e_0_energy">   -230.43339835 </i>
   </energy>
  </scstep>
  <scstep>
   <time name="diag">    1.16    1.17</time>
   <time name="diis">    4.09    4.12</time>
   <time name="orth">    0.16    0.16</time>
   <time name="total">    5.72    5.76</time>
   <energy>
    <i name="e_fr_energy">   -230.44262863 </i>
    <i name="e_wo_entrp">   -230.41494743 </i>
    <i name="e_0_energy">   -230.43340156 </i>
   </energy>
  </scstep>
  <scstep>
   <time name="diag">    1.11    1.12</time>
   <time name="diis">    3.03    3.05</time>
   <time name="orth">    0.19    0.19</time>
   <time name="total">    4.86    4.90</time>
   <energy>
    <i name="e_fr_energy">   -230.44259006 </i>
    <i name="e_wo_entrp">   -230.41541310 </i>
    <i name="e_0_energy">   -230.43353107 </i>
   </energy>
  </scstep>
  <scstep>
   <time name="diag">    1.11    1.11</time>
   <time name="diis">    3.43    3.45</time>
   <time name="orth">    0.20    0.20</time>
   <time name="total">    5.27    5.30</time>
   <energy>
    <i name="e_fr_energy">   -230.44257403 </i>
    <i name="e_wo_entrp">   -230.41505937 </i>
    <i name="e_0_energy">   -230.43340248 </i>
   </energy>
  </scstep>
  <scstep>
   <time name="diag">    1.17    1.18</time>
   <time name="diis">    2.79    2.81</time>
   <time name="orth">    0.18    0.19</time>
   <time name="total">    4.61    4.64</time>
   <energy>
    <i name="e_fr_energy">   -230.44256739 </i>
    <i name="e_wo_entrp">   -230.41520571 </i>
    <i name="e_0_energy">   -230.43344683 </i>
   </energy>
  </scstep>
  <scstep>
   <time name="diag">    1.15    1.15</time>
   <time name="diis">    2.54    2.55</time>
   <time name="orth">    0.18    0.18</time>
   <time name="total">    3.96    3.99</time>
   <energy>
    <i name="alphaZ">    975.10247152 </i>
    <i name="ewald">  90867.53938085 </i>
    <i name="hartreedc">-119579.25645231 </i>
    <i name="XCdc">    178.00764227 </i>
    <i name="pawpsdc">  30056.10620862 </i>
    <i name="pawaedc"> -29141.57729023 </i>
    <i name="eentropy">     -0.02741445 </i>
    <i name="bandstr">   -846.23126465 </i>
    <i name="atom">  27259.89416086 </i>
    <i name="e_fr_energy">   -230.44255751 </i>
    <i name="e_wo_entrp">   -230.41514306 </i>
    <i name="e_0_energy">   -230.43341936 </i>
   </energy>
  </scstep>
  <structure>
   <crystal>
    <varray name="basis" >
     <v>       7.29695512      -4.21289900       0.00000000 </v>
     <v>       0.00000000       8.42579800       0.00000000 </v>
     <v>       0.00000000       0.00000000      21.87963500 </v>
    </varray>
    <i name="volume">   1345.21837528 </i>
    <varray name="rec_basis" >
     <v>       0.13704346       0.00000000       0.00000000 </v>
     <v>       0.06852173       0.11868312       0.00000000 </v>
     <v>       0.00000000       0.00000000       0.04570460 </v>
    </varray>
   </crystal>
   <varray name="positions" >
    <v>       0.69937689       0.42792118       0.47587659 </v>
    <v>       0.90984786       0.38590034       0.46730554 </v>
    <v>       0.67520355       0.46031009       0.52492446 </v>
    <v>       0.98675500       0.32859100       0.07437600 </v>
    <v>       0.32008800       0.32859100       0.07437600 </v>
    <v>       0.65342200       0.32859100       0.07437600 </v>
    <v>       0.98675500       0.66192500       0.07437600 </v>
    <v>       0.32008800       0.66192500       0.07437600 </v>
    <v>       0.65342200       0.66192500       0.07437600 </v>
    <v>       0.32008800       0.99525800       0.07437600 </v>
    <v>       0.65342200       0.99525800       0.07437600 </v>
    <v>       0.98675500       0.99525800       0.07437600 </v>
    <v>       0.20897700       0.10636900       0.17918600 </v>
    <v>       0.54231100       0.10636900       0.17918600 </v>
    <v>       0.87564400       0.10636900       0.17918600 </v>
    <v>       0.20897700       0.43970300       0.17918600 </v>
    <v>       0.54231100       0.43970300       0.17918600 </v>
    <v>       0.87564400       0.43970300       0.17918600 </v>
    <v>       0.20897700       0.77303600       0.17918600 </v>
    <v>       0.54231100       0.77303600       0.17918600 </v>
    <v>       0.87564400       0.77303600       0.17918600 </v>
    <v>       0.09606025       0.54800102       0.28566801 </v>
    <v>       0.43297741       0.88427275       0.28283803 </v>
    <v>       0.76166525       0.21350023       0.28107282 </v>
    <v>       0.09310838       0.21705416       0.28321461 </v>
    <v>       0.43675675       0.21999916       0.28632751 </v>
    <v>       0.09899397       0.88307211       0.28335315 </v>
    <v>       0.76458662       0.88255515       0.28619585 </v>
    <v>       0.43090802       0.54985363       0.28267894 </v>
    <v>       0.76262869       0.54869660       0.28049004 </v>
    <v>       0.32820524       0.65831052       0.38642847 </v>
    <v>       0.65126633       0.98693597       0.38995498 </v>
    <v>       0.32082278       0.32727164       0.38626503 </v>
    <v>       0.98724650       0.99441879       0.38982010 </v>
    <v>       0.31809134       0.99156854       0.38810202 </v>
    <v>       0.64360687       0.32389738       0.39443831 </v>
    <v>       0.99282358       0.66609829       0.38677679 </v>
    <v>       0.99051764       0.32181041       0.39248408 </v>
    <v>       0.66026372       0.66392482       0.39114246 </v>
   </varray>
  </structure>
  <varray name="forces" >
   <v>      -0.14056245      -1.40303181      -1.78575523 </v>
   <v>       0.55107009       0.23057851       0.06638525 </v>
   <v>       0.08691297       0.52105832       1.25208399 </v>
   <v>       0.02860975       0.00007153       0.12101548 </v>
   <v>      -0.00271417      -0.04638080       0.16431262 </v>
   <v>      -0.04104743      -0.00071790       0.09744669 </v>
   <v>       0.01400674       0.01900798       0.11984729 </v>
   <v>      -0.03502176       0.01596803       0.13527858 </v>
   <v>       0.02088944       0.02395604       0.12399202 </v>
   <v>       0.04446430      -0.02836623       0.08029807 </v>
   <v>       0.01541859       0.00826753       0.11636265 </v>
   <v>      -0.03577111       0.01783622       0.09501721 </v>
   <v>       0.07795895      -0.02761428       0.06797159 </v>
   <v>      -0.15861747       0.11496283      -0.11358230 </v>
   <v>       0.06893623      -0.23259462      -0.17491287 </v>
   <v>      -0.09116529       0.04886247      -0.02168217 </v>
   <v>      -0.18572250      -0.04655984      -0.10631652 </v>
   <v>       0.15152439      -0.01324752      -0.17277388 </v>
   <v>      -0.05673135      -0.03164494      -0.01644272 </v>
   <v>       0.12090963       0.00768181       0.01020744 </v>
   <v>       0.11377403       0.24299794      -0.14569965 </v>
   <v>       0.04038311      -0.08917778      -0.46078496 </v>
   <v>      -0.12843027      -0.02057895       0.08282201 </v>
   <v>       0.09305242       0.16045158       0.86142383 </v>
   <v>       0.09730013       0.00445481       0.33065853 </v>
   <v>      -0.23424546      -0.19362003      -0.59865312 </v>
   <v>      -0.07661160       0.11121915      -0.09339415 </v>
   <v>      -0.01940800      -0.08256891      -0.51950167 </v>
   <v>       0.15265689      -0.03305608       0.01671974 </v>
   <v>       0.17810000       0.02317110       0.73502325 </v>
   <v>      -0.11931806       0.39484771       0.13074788 </v>
   <v>      -0.01694965       0.30474240      -0.35210758 </v>
   <v>      -0.14269411      -0.07252514       0.14851367 </v>
   <v>       0.10640569      -0.15048336      -0.09467578 </v>
   <v>       0.07742034      -0.22874053       0.03233669 </v>
   <v>      -0.24628134       0.39296040       0.04111647 </v>
   <v>       0.03386700       0.11172021       0.00391429 </v>
   <v>      -0.15031950      -0.03245630       0.27083598 </v>
   <v>      -0.11370205       0.09742660      -0.45005829 </v>
  </varray>
  <varray name="stress" >
   <v>     -44.61161786       1.00553084       0.86322439 </v>
   <v>       1.00553090     -47.08735948      -0.10349315 </v>
   <v>       0.86322438      -0.10349333      -6.19011065 </v>
  </varray>
  <energy>
   <i name="e_fr_energy">   -230.44255751 </i>
   <i name="e_wo_entrp">   -230.43341936 </i>
   <i name="e_0_energy">     -0.02741445 </i>
   <i name="kinetic">      0.80625283 </i>
   <i name="lattice kinetic">      0.00000000 </i>
   <i name="nosepot">     -0.00012820 </i>
   <i name="nosekinetic">      0.00000081 </i>
   <i name="total">   -229.63643208 </i>
  </energy>
  <time name="totalsc">   51.27   52.29</time>
 </calculation>
 <calculation>
  <scstep>
   <time name="dav">    6.82    6.92</time>
   <time name="total">    7.30    7.42</time>
   <energy>
    <i name="alphaZ">    975.10247152 </i>
    <i name="ewald">  90874.63021413 </i>
    <i name="hartreedc">-119586.08797401 </i>
    <i name="XCdc">    178.01942164 </i>
    <i name="pawpsdc">  30056.10610769 </i>
    <i name="pawaedc"> -29141.57747305 </i>
    <i name="eentropy">     -0.02809071 </i>
    <i name="bandstr">   -846.49662895 </i>
    <i name="atom">  27259.89416086 </i>
    <i name="e_fr_energy">   -230.43779086 </i>
    <i name="e_wo_entrp">   -230.40970015 </i>
    <i name="e_0_energy">   -230.42842729 </i>
   </energy>
  </scstep>
  <scstep>
   <time name="diag">    1.04    1.05</time>
   <time name="diis">    4.06    4.09</time>
   <time name="orth">    0.17    0.18</time>
   <time name="total">    5.77    5.81</time>
   <energy>
    <i name="e_fr_energy">   -230.43846240 </i>
    <i name="e_wo_entrp">   -230.41186591 </i>
    <i name="e_0_energy">   -230.42959690 </i>
   </energy>
  </scstep>
  <scstep>
   <time name="diag">    1.10    1.11</time>
   <time name="diis">    4.13    4.16</time>
   <time name="orth">    0.20    0.20</time>
   <time name="total">    5.99    6.03</time>
   <energy>
    <i name="e_fr_energy">   -230.43837006 </i>
    <i name="e_wo_entrp">   -230.41001887 </i>
    <i name="e_0_energy">   -230.42891967 </i>
   </energy>
  </scstep>
  <scstep>
   <time name="diag">    1.20    1.21</time>
   <time name="diis">    4.10    4.13</time>
   <time name="orth">    0.20    0.20</time>
   <time name="total">    6.07    6.12</time>
   <energy>
    <i name="e_fr_energy">   -230.43826163 </i>
    <i name="e_wo_entrp">   -230.41025888 </i>
    <i name="e_0_energy">   -230.42892738 </i>
   </energy>
  </scstep>
  <scstep>
   <time name="diag">    1.18    1.19</time>
   <time name="diis">    2.75    2.76</time>
   <time name="orth">    0.17    0.17</time>
   <time name="total">    4.53    4.56</time>
   <energy>
    <i name="e_fr_energy">   -230.43822611 </i>
    <i name="e_wo_entrp">   -230.41071020 </i>
    <i name="e_0_energy">   -230.42905414 </i>
   </energy>
  </scstep>
  <scstep>
   <time name="diag">    1.10    1.11</time>
   <time name="diis">    3.17    3.19</time>
   <time name="orth">    0.18    0.18</time>
   <time name="total">    4.97    5.00</time>
   <energy>
    <i name="e_fr_energy">   -230.43821461 </i>
    <i name="e_wo_entrp">   -230.41041954 </i>
    <i name="e_0_energy">   -230.42894959 </i>
   </energy>
  </scstep>
  <scstep>
   <time name="diag">    1.12    1.13</time>
   <time name="diis">    2.77    2.79</time>
   <time name="orth">    0.18    0.18</time>
   <time name="total">    4.59    4.62</time>
   <energy>
    <i name="e_fr_energy">   -230.43821124 </i>
    <i name="e_wo_entrp">   -230.41051149 </i>
    <i name="e_0_energy">   -230.42897799 </i>
   </energy>
  </scstep>
  <scstep>
   <time name="diag">    0.98    0.99</time>
   <time name="diis">    2.32    2.33</time>
   <time name="orth">    0.20    0.20</time>
   <time name="total">    3.59    3.61</time>
   <energy>
    <i name="alphaZ">    975.10247152 </i>
    <i name="ewald">  90874.63021413 </i>
    <i name="hartreedc">-119587.14102721 </i>
    <i name="XCdc">    178.02789297 </i>
    <i name="pawpsdc">  30057.63005366 </i>
    <i name="pawaedc"> -29143.11006796 </i>
    <i name="eentropy">     -0.02771834 </i>
    <i name="bandstr">   -845.44418330 </i>
    <i name="atom">  27259.89416086 </i>
    <i name="e_fr_energy">   -230.43820366 </i>
    <i name="e_wo_entrp">   -230.41048532 </i>
    <i name="e_0_energy">   -230.42896422 </i>
   </energy>
  </scstep>
  <structure>
   <crystal>
    <varray name="basis" >
     <v>       7.29695512      -4.21289900       0.00000000 </v>
     <v>       0.00000000       8.42579800       0.00000000 </v>
     <v>       0.00000000       0.00000000      21.87963500 </v>
    </varray>
    <i name="volume">   1345.21837528 </i>
    <varray name="rec_basis" >
     <v>       0.13704346       0.00000000       0.00000000 </v>
     <v>       0.06852173       0.11868312       0.00000000 </v>
     <v>       0.00000000       0.00000000       0.04570460 </v>
    </varray>
   </crystal>
   <varray name="positions" >
    <v>       0.69921632       0.42787030       0.47592553 </v>
    <v>       0.91005180       0.38591023       0.46723950 </v>
    <v>       0.67551731       0.46083604       0.52481768 </v>
    <v>       0.98675500       0.32859100       0.07437600 </v>
    <v>       0.32008800       0.32859100       0.07437600 </v>
    <v>       0.65342200       0.32859100       0.07437600 </v>
    <v>       0.98675500       0.66192500       0.07437600 </v>
    <v>       0.32008800       0.66192500       0.07437600 </v>
    <v>       0.65342200       0.66192500       0.07437600 </v>
    <v>       0.32008800       0.99525800       0.07437600 </v>
    <v>       0.65342200       0.99525800       0.07437600 </v>
    <v>       0.98675500       0.99525800       0.07437600 </v>
    <v>       0.20897700       0.10636900       0.17918600 </v>
    <v>       0.54231100       0.10636900       0.17918600 </v>
    <v>       0.87564400       0.10636900       0.17918600 </v>
    <v>       0.20897700       0.43970300       0.17918600 </v>
    <v>       0.54231100       0.43970300       0.17918600 </v>
    <v>       0.87564400       0.43970300       0.17918600 </v>
    <v>       0.20897700       0.77303600       0.17918600 </v>
    <v>       0.54231100       0.77303600       0.17918600 </v>
    <v>       0.87564400       0.77303600       0.17918600 </v>
    <v>       0.09601588       0.54791440       0.28565037 </v>
    <v>       0.43287977       0.88434272       0.28284449 </v>
    <v>       0.76155955       0.21330341       0.28106127 </v>
    <v>       0.09300875       0.21692864       0.28320635 </v>
    <v>       0.43670478       0.21997834       0.28632332 </v>
    <v>       0.09896792       0.88306879       0.28336726 </v>
    <v>       0.76460984       0.88259621       0.28621584 </v>
    <v>       0.43079028       0.54990603       0.28264761 </v>
    <v>       0.76273143       0.54868051       0.28045484 </v>
    <v>       0.32823330       0.65837990       0.38645151 </v>
    <v>       0.65117223       0.98691943       0.38996448 </v>
    <v>       0.32085050       0.32730377       0.38626923 </v>
    <v>       0.98722120       0.99430846       0.38979975 </v>
    <v>       0.31801934       0.99160557       0.38805529 </v>
    <v>       0.64365312       0.32389209       0.39437073 </v>
    <v>       0.99283929       0.66610057       0.38681318 </v>
    <v>       0.99055337       0.32189173       0.39250518 </v>
    <v>       0.66033369       0.66405914       0.39115025 </v>
   </varray>
  </structure>
  <varray name="forces" >
   <v>      -0.11819646      -1.48506345      -2.08362121 </v>
   <v>       0.55436173       0.23263033       0.08796892 </v>
   <v>       0.04729062       0.60496191       1.51931399 </v>
   <v>       0.02873671       0.00059128       0.12130654 </v>
   <v>      -0.00211071      -0.04613236       0.16442311 </v>
   <v>      -0.04098697      -0.00046665       0.09719804 </v>
   <v>       0.01426474       0.01934396       0.11927690 </v>
   <v>      -0.03458106       0.01607991       0.13459824 </v>
   <v>       0.02100918       0.02341645       0.12324529 </v>
   <v>       0.04461890      -0.02869438       0.08028835 </v>
   <v>       0.01541570       0.00775075       0.11709553 </v>
   <v>      -0.03581377       0.01773091       0.09490785 </v>
   <v>       0.07811369      -0.02818425       0.06719595 </v>
   <v>      -0.16019646       0.11561971      -0.11685680 </v>
   <v>       0.06854942      -0.23366346      -0.17659158 </v>
   <v>      -0.09337198       0.04741475      -0.02474029 </v>
   <v>      -0.18640384      -0.04595076      -0.10606947 </v>
   <v>       0.15127045      -0.01665342      -0.17576391 </v>
   <v>      -0.05789128      -0.03111317      -0.01630730 </v>
   <v>       0.12135856       0.01042682       0.01205020 </v>
   <v>       0.11397775       0.24449667      -0.14537821 </v>
   <v>       0.04050136      -0.08415635      -0.45238491 </v>
   <v>      -0.12567748      -0.03374607       0.08120512 </v>
   <v>       0.09735202       0.17185409       0.86611762 </v>
   <v>       0.10605917       0.01071055       0.33460476 </v>
   <v>      -0.23035185      -0.18520000      -0.60226952 </v>
   <v>      -0.08014508       0.10659353      -0.09945480 </v>
   <v>      -0.02880108      -0.09042005      -0.52464031 </v>
   <v>       0.16301778      -0.04206142       0.02787803 </v>
   <v>       0.16376680       0.02952027       0.74398535 </v>
   <v>      -0.12203409       0.39137842       0.12592961 </v>
   <v>      -0.01165812       0.30654782      -0.35287430 </v>
   <v>      -0.14377206      -0.06685984       0.14334292 </v>
   <v>       0.10501989      -0.13613960      -0.08718539 </v>
   <v>       0.07966556      -0.23036079       0.04424709 </v>
   <v>      -0.24157678       0.40349014       0.07170567 </v>
   <v>       0.03411554       0.10845613      -0.00125240 </v>
   <v>      -0.14336644      -0.04808743       0.24711769 </v>
   <v>      -0.11915951       0.08782260      -0.45781114 </v>
  </varray>
  <varray name="stress" >
   <v>     -44.53783816       0.96075809       0.78100648 </v>
   <v>       0.96075805     -46.99412449       0.00641103 </v>
   <v>       0.78100628       0.00641083      -5.84466466 </v>
  </varray>
  <energy>
   <i name="e_fr_energy">   -230.43820366 </i>
   <i name="e_wo_entrp">   -230.42896422 </i>
   <i name="e_0_energy">     -0.02771834 </i>
   <i name="kinetic">      0.80227791 </i>
   <i name="lattice kinetic">      0.00000000 </i>
   <i name="nosepot">     -0.00043258 </i>
   <i name="nosekinetic">      0.00000457 </i>
   <i name="total">   -229.63635376 </i>
  </energy>
  <time name="totalsc">   50.88   51.87</time>
 </calculation>
 <calculation>
  <scstep>
   <time name="dav">    7.19    7.30</time>
   <time name="total">    7.77    7.97</time>
   <energy>
    <i name="alphaZ">    975.10247152 </i>
    <i name="ewald">  90881.68024373 </i>
    <i name="hartreedc">-119593.98892145 </i>
    <i name="XCdc">    178.03753725 </i>
    <i name="pawpsdc">  30057.62837130 </i>
    <i name="pawaedc"> -29143.10863401 </i>
    <i name="eentropy">     -0.02839009 </i>
    <i name="bandstr">   -845.65124219 </i>
    <i name="atom">  27259.89416086 </i>
    <i name="e_fr_energy">   -230.43440308 </i>
    <i name="e_wo_entrp">   -230.40601299 </i>
    <i name="e_0_energy">   -230.42493971 </i>
   </energy>
  </scstep>
  <scstep>
   <time name="diag">    1.17    1.18</time>
   <time name="diis">    4.21    4.26</time>
   <time name="orth">    0.20    0.20</time>
   <time name="total">    6.13    6.21</time>
   <energy>
    <i name="e_fr_energy">   -230.43504235 </i>
    <i name="e_wo_entrp">   -230.40812570 </i>
    <i name="e_0_energy">   -230.42607014 </i>
   </energy>
  </scstep>
  <scstep>
   <time name="diag">    1.18    1.20</time>
   <time name="diis">    3.87    3.91</time>
   <time name="orth">    0.19    0.19</time>
   <time name="total">    5.79    5.84</time>
   <energy>
    <i name="e_fr_energy">   -230.43495339 </i>
    <i name="e_wo_entrp">   -230.40630329 </i>
[...]
  <scstep>
   <time name="diag">    1.14    1.14</time>
   <time name="diis">    4.14    4.17</time>
   <time name="orth">    0.19    0.19</time>
   <time name="total">    5.87    5.91</time>
   <energy>
    <i name="e_fr_energy">   -231.30693885 </i>
    <i name="e_wo_entrp">   -231.28648969 </i>
    <i name="e_0_energy">   -231.30012246 </i>
   </energy>
  </scstep>
  <scstep>
   <time name="diag">    1.06    1.07</time>
   <time name="diis">    4.06    4.09</time>
   <time name="orth">    0.19    0.19</time>
   <time name="total">    5.77    5.81</time>
   <energy>
    <i name="e_fr_energy">   -231.30671668 </i>
    <i name="e_wo_entrp">   -231.28772742 </i>
    <i name="e_0_energy">   -231.30038693 </i>
   </energy>
  </scstep>
  <scstep>
   <time name="diag">    1.16    1.17</time>
   <time name="diis">    4.09    4.11</time>
   <time name="orth">    0.19    0.19</time>
   <time name="total">    5.97    6.01</time>
   <energy>
    <i name="e_fr_energy">   -231.30657864 </i>
    <i name="e_wo_entrp">   -231.28714310 </i>
    <i name="e_0_energy">   -231.30010013 </i>
   </energy>
  </scstep>
  <scstep>
   <time name="diag">    1.18    1.19</time>
   <time name="diis">    3.96    3.99</time>
   <time name="orth">    0.19    0.19</time>
   <time name="total">    5.82    5.86</time>
   <energy>
    <i name="e_fr_energy">   -231.30646823 </i>
    <i name="e_wo_entrp">   -231.28695017 </i>
    <i name="e_0_energy">   -231.29996221 </i>
   </energy>
  </scstep>
  <scstep>
   <time name="diag">    1.24    1.25</time>
   <time name="diis">    3.62    3.65</time>
   <time name="orth">    0.19    0.19</time>
   <time name="total">    5.52    5.56</time>
   <energy>
    <i name="e_fr_energy">   -231.30646186 </i>
    <i name="e_wo_entrp">   -231.28692748 </i>
    <i name="e_0_energy">   -231.29995040 </i>
   </energy>
  </scstep>
  <scstep>
   <time name="diag">    1.25    1.26</time>
   <time name="diis">    3.08    3.10</time>
   <time name="orth">    0.19    0.19</time>
   <time name="total">    5.01    5.05</time>
   <energy>
    <i name="e_fr_energy">   -231.30646464 </i>
    <i name="e_wo_entrp">   -231.28694373 </i>
    <i name="e_0_energy">   -231.29995767 </i>
   </energy>
  </scstep>
  <scstep>
   <time name="diag">    1.28    1.28</time>
   <time name="diis">    2.31    2.32</time>
   <time name="orth">    0.18    0.18</time>
   <time name="total">    4.20    4.23</time>
   <energy>
    <i name="e_fr_energy">   -231.30645358 </i>
    <i name="e_wo_entrp">   -231.28699016 </i>
    <i name="e_0_energy">   -231.29996577 </i>
   </energy>
  </scstep>
  <scstep>
   <time name="diag">    1.09    1.10</time>
   <time name="diis">    2.62    2.64</time>
   <time name="orth">    0.19    0.19</time>
   <time name="total">    4.00    4.03</time>
   <energy>
    <i name="alphaZ">    975.10247152 </i>
    <i name="ewald">  91655.08363557 </i>
    <i name="hartreedc">-120371.66489562 </i>
    <i name="XCdc">    178.55226875 </i>
    <i name="pawpsdc">  30195.72146727 </i>
    <i name="pawaedc"> -29282.40907445 </i>
    <i name="eentropy">     -0.01950945 </i>
    <i name="bandstr">   -841.56697716 </i>
    <i name="atom">  27259.89416086 </i>
    <i name="e_fr_energy">   -231.30645272 </i>
    <i name="e_wo_entrp">   -231.28694327 </i>
    <i name="e_0_energy">   -231.29994957 </i>
   </energy>
  </scstep>
  <structure>
   <crystal>
    <varray name="basis" >
     <v>       7.29695512      -4.21289900       0.00000000 </v>
     <v>       0.00000000       8.42579800       0.00000000 </v>
     <v>       0.00000000       0.00000000      21.87963500 </v>
    </varray>
    <i name="volume">   1345.21837528 </i>
    <varray name="rec_basis" >
     <v>       0.13704346       0.00000000       0.00000000 </v>
     <v>       0.06852173       0.11868312       0.00000000 </v>
     <v>       0.00000000       0.00000000       0.04570460 </v>
    </varray>
   </crystal>
   <varray name="positions" >
    <v>       0.63160106       0.36549465       0.47353111 </v>
    <v>       0.12752250       0.48256823       0.45821096 </v>
    <v>       0.62919121       0.37403644       0.52701727 </v>
    <v>       0.98675500       0.32859100       0.07437600 </v>
    <v>       0.32008800       0.32859100       0.07437600 </v>
    <v>       0.65342200       0.32859100       0.07437600 </v>
    <v>       0.98675500       0.66192500       0.07437600 </v>
    <v>       0.32008800       0.66192500       0.07437600 </v>
    <v>       0.65342200       0.66192500       0.07437600 </v>
    <v>       0.32008800       0.99525800       0.07437600 </v>
    <v>       0.65342200       0.99525800       0.07437600 </v>
    <v>       0.98675500       0.99525800       0.07437600 </v>
    <v>       0.20897700       0.10636900       0.17918600 </v>
    <v>       0.54231100       0.10636900       0.17918600 </v>
    <v>       0.87564400       0.10636900       0.17918600 </v>
    <v>       0.20897700       0.43970300       0.17918600 </v>
    <v>       0.54231100       0.43970300       0.17918600 </v>
    <v>       0.87564400       0.43970300       0.17918600 </v>
    <v>       0.20897700       0.77303600       0.17918600 </v>
    <v>       0.54231100       0.77303600       0.17918600 </v>
    <v>       0.87564400       0.77303600       0.17918600 </v>
    <v>       0.09047891       0.54636505       0.28323254 </v>
    <v>       0.42618818       0.87344192       0.28311477 </v>
    <v>       0.76351780       0.22430899       0.28526379 </v>
    <v>       0.09189080       0.21461047       0.28331863 </v>
    <v>       0.42516791       0.21495062       0.28006288 </v>
    <v>       0.08707839       0.87514331       0.28276976 </v>
    <v>       0.75730560       0.88218339       0.27968899 </v>
    <v>       0.42856508       0.54383966       0.28383843 </v>
    <v>       0.75365134       0.54671486       0.28509598 </v>
    <v>       0.32428851       0.67368269       0.38874836 </v>
    <v>       0.65706886       0.99879055       0.38722408 </v>
    <v>       0.31650706       0.32715767       0.38512069 </v>
    <v>       0.98089145       0.99976940       0.38948419 </v>
    <v>       0.31905694       0.00498876       0.38587275 </v>
    <v>       0.65315501       0.33063903       0.39339850 </v>
    <v>       0.98903242       0.67591210       0.38725168 </v>
    <v>       0.98657936       0.32208731       0.39214597 </v>
    <v>       0.64567352       0.66289676       0.38549413 </v>
   </varray>
  </structure>
  <varray name="forces" >
   <v>       0.07980947      -0.21919735       2.67924540 </v>
   <v>       0.72311553       0.31744025      -0.79384857 </v>
   <v>      -0.10018294       0.18400518      -1.34320907 </v>
   <v>      -0.02715455      -0.05515764       0.12317790 </v>
   <v>       0.00174498      -0.04664825       0.09561065 </v>
   <v>       0.02673808       0.02011620       0.03403604 </v>
   <v>      -0.02163247       0.03875483       0.15829662 </v>
   <v>       0.05438365       0.00674061       0.16905975 </v>
   <v>       0.05839755      -0.04994560       0.18980865 </v>
   <v>      -0.02116682       0.01846158       0.05333985 </v>
   <v>       0.04598794       0.08242258       0.14750249 </v>
   <v>       0.10333846       0.00780981      -0.05655307 </v>
   <v>      -0.31817052      -0.05683661      -0.36286193 </v>
   <v>       0.02316963      -0.10329924      -0.00818800 </v>
   <v>       0.03252247       0.12878313      -0.15329534 </v>
   <v>      -0.06436312       0.00067898       0.01704235 </v>
   <v>       0.00795117       0.01842723      -0.26239436 </v>
   <v>      -0.12514423       0.08219600       0.08249370 </v>
   <v>      -0.07838171       0.00474663      -0.14591140 </v>
   <v>      -0.23965638      -0.07471019      -0.33110892 </v>
   <v>      -0.01192829      -0.03227055      -0.34997041 </v>
   <v>       0.23622000       0.00954916       0.00818872 </v>
   <v>       0.00663037       0.55004745       0.23588534 </v>
   <v>      -0.24915034      -0.31672930       0.17536045 </v>
   <v>      -0.14883323      -0.05124644      -0.18359590 </v>
   <v>       0.14185687      -0.40091542       0.44843259 </v>
   <v>       0.40286572       0.36668007      -0.07912197 </v>
   <v>       0.38078265      -0.00473219       0.66928513 </v>
   <v>      -0.39374404       0.61498751      -0.46446046 </v>
   <v>       0.58890554      -0.21573866      -0.38166374 </v>
   <v>      -0.97351480      -0.07355324       0.76996138 </v>
   <v>      -0.43014496      -0.05589909      -0.08929971 </v>
   <v>      -0.03372068      -0.16953833       0.14866711 </v>
   <v>       0.06750104      -0.60662418      -0.27419766 </v>
   <v>      -0.18184097      -0.46676640      -0.12903762 </v>
   <v>       0.17174419      -0.14831165      -0.91807679 </v>
   <v>      -0.02745722      -0.07346808      -0.16545670 </v>
   <v>      -0.16659553       0.55830907       0.00634259 </v>
   <v>       0.50216196       0.38504921       0.30739989 </v>
  </varray>
  <varray name="stress" >
   <v>     -43.49142181      -0.65487520       1.23545201 </v>
   <v>      -0.65487521     -40.67056938       0.04938912 </v>
   <v>       1.23545197       0.04938906      -1.61240743 </v>
  </varray>
  <energy>
   <i name="e_fr_energy">   -231.30645272 </i>
   <i name="e_wo_entrp">   -231.29994957 </i>
   <i name="e_0_energy">     -0.01950945 </i>
   <i name="kinetic">      0.77149505 </i>
   <i name="lattice kinetic">      0.00000000 </i>
   <i name="nosepot">      0.89057323 </i>
   <i name="nosekinetic">      0.01289089 </i>
   <i name="total">   -229.63149355 </i>
  </energy>
  <time name="totalsc">   57.02   58.14</time>
 </calculation>
 <calculation>
  <scstep>
   <time name="dav">    6.99    7.05</time>
   <time name="total">    7.53    7.70</time>
   <energy>
    <i name="alphaZ">    975.10247152 </i>
    <i name="ewald">  91648.77386522 </i>
    <i name="hartreedc">-120365.37748885 </i>
    <i name="XCdc">    178.54909463 </i>
    <i name="pawpsdc">  30195.72379034 </i>
    <i name="pawaedc"> -29282.41138769 </i>
    <i name="eentropy">     -0.01931661 </i>
    <i name="bandstr">   -841.54672428 </i>
    <i name="atom">  27259.89416086 </i>
    <i name="e_fr_energy">   -231.31153486 </i>
    <i name="e_wo_entrp">   -231.29221825 </i>
    <i name="e_0_energy">   -231.30509599 </i>
   </energy>
  </scstep>
  <scstep>
   <time name="diag">    1.16    1.17</time>
   <time name="diis">    4.04    4.07</time>
   <time name="orth">    0.18    0.18</time>
   <time name="total">    5.90    5.94</time>
   <energy>
    <i name="e_fr_energy">   -231.31265611 </i>
    <i name="e_wo_entrp">   -231.29216895 </i>
    <i name="e_0_energy">   -231.30582706 </i>
   </energy>
  </scstep>
  <scstep>
   <time name="diag">    1.11    1.12</time>
   <time name="diis">    3.93    3.96</time>
   <time name="orth">    0.17    0.17</time>
   <time name="total">    5.70    5.74</time>
   <energy>
    <i name="e_fr_energy">   -231.31246800 </i>
    <i name="e_wo_entrp">   -231.29347803 </i>
    <i name="e_0_energy">   -231.30613801 </i>
   </energy>
  </scstep>
  <scstep>
   <time name="diag">    1.21    1.22</time>
   <time name="diis">    3.92    3.95</time>
   <time name="orth">    0.17    0.17</time>
   <time name="total">    5.80    5.84</time>
   <energy>
    <i name="e_fr_energy">   -231.31230445 </i>
    <i name="e_wo_entrp">   -231.29283876 </i>
    <i name="e_0_energy">   -231.30581588 </i>
   </energy>
  </scstep>
  <scstep>
   <time name="diag">    1.12    1.13</time>
   <time name="diis">    3.85    3.88</time>
   <time name="orth">    0.25    0.25</time>
   <time name="total">    5.89    5.93</time>
   <energy>
    <i name="e_fr_energy">   -231.31218994 </i>
    <i name="e_wo_entrp">   -231.29263043 </i>
    <i name="e_0_energy">   -231.30567010 </i>
   </energy>
  </scstep>
  <scstep>
   <time name="diag">    1.17    1.18</time>
   <time name="diis">    4.03    4.06</time>
   <time name="orth">    0.19    0.19</time>
   <time name="total">    5.93    5.99</time>
   <energy>
    <i name="e_fr_energy">   -231.31218203 </i>
    <i name="e_wo_entrp">   -231.29261022 </i>
    <i name="e_0_energy">   -231.30565809 </i>
   </energy>
  </scstep>
  <scstep>
   <time name="diag">    1.19    1.20</time>
   <time name="diis">    3.30    3.32</time>
   <time name="orth">    0.19    0.19</time>
   <time name="total">    5.23    5.26</time>
   <energy>
    <i name="e_fr_energy">   -231.31218232 </i>
    <i name="e_wo_entrp">   -231.29262580 </i>
    <i name="e_0_energy">   -231.30566348 </i>
   </energy>
  </scstep>
  <scstep>
   <time name="diag">    1.19    1.19</time>
   <time name="diis">    2.64    2.66</time>
   <time name="orth">    0.20    0.20</time>
   <time name="total">    4.54    4.63</time>
   <energy>
    <i name="e_fr_energy">   -231.31217124 </i>
    <i name="e_wo_entrp">   -231.29266906 </i>
    <i name="e_0_energy">   -231.30567051 </i>
   </energy>
  </scstep>
  <scstep>
   <time name="diag">    1.08    1.09</time>
   <time name="diis">    2.30    2.32</time>
   <time name="orth">    0.18    0.18</time>
   <time name="total">    3.65    3.69</time>
   <energy>
    <i name="alphaZ">    975.10247152 </i>
    <i name="ewald">  91648.77386522 </i>
    <i name="hartreedc">-120365.44588049 </i>
    <i name="XCdc">    178.54951520 </i>
    <i name="pawpsdc">  30193.96225093 </i>
    <i name="pawaedc"> -29280.63687631 </i>
    <i name="eentropy">     -0.01955119 </i>
    <i name="bandstr">   -841.49212605 </i>
    <i name="atom">  27259.89416086 </i>
    <i name="e_fr_energy">   -231.31217030 </i>
    <i name="e_wo_entrp">   -231.29261911 </i>
    <i name="e_0_energy">   -231.30565324 </i>
   </energy>
  </scstep>
  <structure>
   <crystal>
    <varray name="basis" >
     <v>       7.29695512      -4.21289900       0.00000000 </v>
     <v>       0.00000000       8.42579800       0.00000000 </v>
     <v>       0.00000000       0.00000000      21.87963500 </v>
    </varray>
    <i name="volume">   1345.21837528 </i>
    <varray name="rec_basis" >
     <v>       0.13704346       0.00000000       0.00000000 </v>
     <v>       0.06852173       0.11868312       0.00000000 </v>
     <v>       0.00000000       0.00000000       0.04570460 </v>
    </varray>
   </crystal>
   <varray name="positions" >
    <v>       0.63060699       0.36508423       0.47360968 </v>
    <v>       0.12818293       0.48299510       0.45826838 </v>
    <v>       0.62908350       0.37361703       0.52705766 </v>
    <v>       0.98675500       0.32859100       0.07437600 </v>
    <v>       0.32008800       0.32859100       0.07437600 </v>
    <v>       0.65342200       0.32859100       0.07437600 </v>
    <v>       0.98675500       0.66192500       0.07437600 </v>
    <v>       0.32008800       0.66192500       0.07437600 </v>
    <v>       0.65342200       0.66192500       0.07437600 </v>
    <v>       0.32008800       0.99525800       0.07437600 </v>
    <v>       0.65342200       0.99525800       0.07437600 </v>
    <v>       0.98675500       0.99525800       0.07437600 </v>
    <v>       0.20897700       0.10636900       0.17918600 </v>
    <v>       0.54231100       0.10636900       0.17918600 </v>
    <v>       0.87564400       0.10636900       0.17918600 </v>
    <v>       0.20897700       0.43970300       0.17918600 </v>
    <v>       0.54231100       0.43970300       0.17918600 </v>
    <v>       0.87564400       0.43970300       0.17918600 </v>
    <v>       0.20897700       0.77303600       0.17918600 </v>
    <v>       0.54231100       0.77303600       0.17918600 </v>
    <v>       0.87564400       0.77303600       0.17918600 </v>
    <v>       0.09052091       0.54646009       0.28324498 </v>
    <v>       0.42625867       0.87347842       0.28313188 </v>
    <v>       0.76355372       0.22439153       0.28524659 </v>
    <v>       0.09188662       0.21461660       0.28328435 </v>
    <v>       0.42518560       0.21486045       0.28010064 </v>
    <v>       0.08714296       0.87521420       0.28277937 </v>
    <v>       0.75739602       0.88230350       0.27970352 </v>
    <v>       0.42852435       0.54377905       0.28382405 </v>
    <v>       0.75362620       0.54672222       0.28508526 </v>
    <v>       0.32421125       0.67368952       0.38876467 </v>
    <v>       0.65710945       0.99875170       0.38720665 </v>
    <v>       0.31649377       0.32706742       0.38512286 </v>
    <v>       0.98084477       0.99975824       0.38948001 </v>
    <v>       0.31907962       0.00499264       0.38586549 </v>
    <v>       0.65320353       0.33067844       0.39348364 </v>
    <v>       0.98899418       0.67597359       0.38720923 </v>
    <v>       0.98647977       0.32207524       0.39212077 </v>
    <v>       0.64569209       0.66291075       0.38550752 </v>
   </varray>
  </structure>
  <varray name="forces" >
   <v>       0.12688529      -0.24701136       2.55602576 </v>
   <v>       0.69699979       0.29444864      -0.84987789 </v>
   <v>      -0.13186944       0.20294782      -1.23336095 </v>
   <v>      -0.02751560      -0.05525762       0.12331992 </v>
   <v>       0.00186356      -0.04679855       0.09547793 </v>
   <v>       0.02724632       0.02083581       0.03391808 </v>
   <v>      -0.02198547       0.03858927       0.15774359 </v>
   <v>       0.05453044       0.00658878       0.16922101 </v>
   <v>       0.05834294      -0.04954178       0.18895958 </v>
   <v>      -0.02109546       0.01856962       0.05413329 </v>
   <v>       0.04596851       0.08237884       0.14768254 </v>
   <v>       0.10289309       0.00756925      -0.05626031 </v>
   <v>      -0.31540178      -0.05739914      -0.36205830 </v>
   <v>       0.02262733      -0.10269324      -0.00746964 </v>
   <v>       0.03105730       0.12929240      -0.15611004 </v>
   <v>      -0.06476194       0.00257054       0.01568146 </v>
   <v>       0.00669446       0.01585327      -0.26000516 </v>
   <v>      -0.12389280       0.08348029       0.08237824 </v>
   <v>      -0.07719931       0.00526953      -0.14389816 </v>
   <v>      -0.23774838      -0.07447118      -0.32754560 </v>
   <v>      -0.01152561      -0.03141991      -0.34788562 </v>
   <v>       0.23656367       0.00612485       0.00462688 </v>
   <v>       0.00329727       0.54614827       0.23532901 </v>
   <v>      -0.25010845      -0.31692286       0.18670807 </v>
   <v>      -0.14140283      -0.05151007      -0.17311648 </v>
   <v>       0.13845097      -0.39275681       0.43825923 </v>
   <v>       0.40149940       0.36655011      -0.08635477 </v>
   <v>       0.37289236      -0.01333481       0.66496989 </v>
   <v>      -0.38569157       0.61868046      -0.45414226 </v>
   <v>       0.58897956      -0.21517589      -0.37636433 </v>
   <v>      -0.97430798      -0.08102027       0.77676025 </v>
   <v>      -0.43476362      -0.04854760      -0.08586963 </v>
   <v>      -0.03398189      -0.15935460       0.14836821 </v>
   <v>       0.07276717      -0.60480121      -0.27362717 </v>
   <v>      -0.18138307      -0.46830848      -0.12464520 </v>
   <v>       0.16743239      -0.14486279      -0.92554637 </v>
   <v>      -0.02967629      -0.08104114      -0.15719277 </v>
   <v>      -0.13326177       0.58559372       0.05303867 </v>
   <v>       0.49727908       0.38331727       0.30224399 </v>
  </varray>
  <varray name="stress" >
   <v>     -43.55314457      -0.68723971       1.18903388 </v>
   <v>      -0.68723971     -40.72911942       0.01687033 </v>
   <v>       1.18903376       0.01687033      -1.60836646 </v>
  </varray>
  <energy>
   <i name="e_fr_energy">   -231.31217030 </i>
   <i name="e_wo_entrp">   -231.30565324 </i>
   <i name="e_0_energy">     -0.01955119 </i>
   <i name="kinetic">      0.79949354 </i>
   <i name="lattice kinetic">      0.00000000 </i>
   <i name="nosepot">      0.86745374 </i>
   <i name="nosekinetic">      0.01371723 </i>
   <i name="total">   -229.63150579 </i>
  </energy>
  <time name="totalsc">   57.62   58.71</time>
 </calculation>
 <calculation>
  <scstep>
