metal                                   
           1
     7.296955   -4.212899    0.000000
     0.000000    8.425798    0.000000
     0.000000    0.000000   21.879635
   C    O    Pt
   1   2  36
Direct configuration=     1
   0.69968556  0.42791878  0.47573283
   0.90947403  0.38590997  0.46743887
   0.67458254  0.45928769  0.52516165
   0.98675500  0.32859100  0.07437600
   0.32008800  0.32859100  0.07437600
   0.65342200  0.32859100  0.07437600
   0.98675500  0.66192500  0.07437600
   0.32008800  0.66192500  0.07437600
   0.65342200  0.66192500  0.07437600
   0.32008800  0.99525800  0.07437600
   0.65342200  0.99525800  0.07437600
   0.98675500  0.99525800  0.07437600
   0.20897700  0.10636900  0.17918600
   0.54231100  0.10636900  0.17918600
   0.87564400  0.10636900  0.17918600
   0.20897700  0.43970300  0.17918600
   0.54231100  0.43970300  0.17918600
   0.87564400  0.43970300  0.17918600
   0.20897700  0.77303600  0.17918600
   0.54231100  0.77303600  0.17918600
   0.87564400  0.77303600  0.17918600
   0.09614919  0.54817395  0.28570250
   0.43317202  0.88413244  0.28282524
   0.76187711  0.21389473  0.28109738
   0.09330810  0.21730543  0.28323167
   0.43685948  0.22003933  0.28633488
   0.09904569  0.88307905  0.28332477
   0.76454010  0.88247266  0.28615499
   0.43114423  0.54974909  0.28274163
   0.76242416  0.54872933  0.28056168
   0.32814853  0.65817322  0.38638260
   0.65145442  0.98697034  0.38993539
   0.32076661  0.32720670  0.38625690
   0.98729763  0.99463903  0.38986062
   0.31823572  0.99149369  0.38819553
   0.64351311  0.32390904  0.39457351
   0.99279233  0.66609432  0.38670405
   0.99044541  0.32164728  0.39244235
   0.66012324  0.66365638  0.39112611
Direct configuration=     2
   0.69953357  0.42793668  0.47581125
   0.90965532  0.38590027  0.46737204
   0.67489162  0.45979442  0.52503986
   0.98675500  0.32859100  0.07437600
   0.32008800  0.32859100  0.07437600
   0.65342200  0.32859100  0.07437600
   0.98675500  0.66192500  0.07437600
   0.32008800  0.66192500  0.07437600
   0.65342200  0.66192500  0.07437600
   0.32008800  0.99525800  0.07437600
   0.65342200  0.99525800  0.07437600
   0.98675500  0.99525800  0.07437600
   0.20897700  0.10636900  0.17918600
   0.54231100  0.10636900  0.17918600
   0.87564400  0.10636900  0.17918600
   0.20897700  0.43970300  0.17918600
   0.54231100  0.43970300  0.17918600
   0.87564400  0.43970300  0.17918600
   0.20897700  0.77303600  0.17918600
   0.54231100  0.77303600  0.17918600
   0.87564400  0.77303600  0.17918600
   0.09610469  0.54808754  0.28568539
   0.43307482  0.88420266  0.28283160
   0.76177111  0.21369733  0.28108486
   0.09320817  0.21717976  0.28322305
   0.43680832  0.22001950  0.28633136
   0.09901990  0.88307553  0.28333898
   0.76456337  0.88251397  0.28617556
   0.43102600  0.54980131  0.28271028
   0.76252626  0.54871287  0.28052565
   0.32817698  0.65824163  0.38640549
   0.65136040  0.98695295  0.38994529
   0.32079481  0.32723928  0.38626092
   0.98727197  0.99452899  0.38984038
   0.31816347  0.99153125  0.38814877
   0.64356020  0.32390304  0.39450591
   0.99280793  0.66609621  0.38674042
   0.99048165  0.32172892  0.39246313
   0.66019357  0.66379057  0.39113441
Direct configuration=     3
   0.69937689  0.42792118  0.47587659
   0.90984786  0.38590034  0.46730554
   0.67520355  0.46031009  0.52492446
   0.98675500  0.32859100  0.07437600
   0.32008800  0.32859100  0.07437600
   0.65342200  0.32859100  0.07437600
   0.98675500  0.66192500  0.07437600
   0.32008800  0.66192500  0.07437600
   0.65342200  0.66192500  0.07437600
   0.32008800  0.99525800  0.07437600
   0.65342200  0.99525800  0.07437600
   0.98675500  0.99525800  0.07437600
   0.20897700  0.10636900  0.17918600
   0.54231100  0.10636900  0.17918600
   0.87564400  0.10636900  0.17918600
   0.20897700  0.43970300  0.17918600
   0.54231100  0.43970300  0.17918600
   0.87564400  0.43970300  0.17918600
   0.20897700  0.77303600  0.17918600
   0.54231100  0.77303600  0.17918600
   0.87564400  0.77303600  0.17918600
   0.09606025  0.54800102  0.28566801
   0.43297741  0.88427275  0.28283803
   0.76166525  0.21350023  0.28107282
   0.09310838  0.21705416  0.28321461
   0.43675675  0.21999916  0.28632751
   0.09899397  0.88307211  0.28335315
   0.76458662  0.88255515  0.28619585
   0.43090802  0.54985363  0.28267894
   0.76262869  0.54869660  0.28049004
   0.32820524  0.65831052  0.38642847
   0.65126633  0.98693597  0.38995498
   0.32082278  0.32727164  0.38626503
   0.98724650  0.99441879  0.38982010
   0.31809134  0.99156854  0.38810202
   0.64360687  0.32389738  0.39443831
   0.99282358  0.66609829  0.38677679
   0.99051764  0.32181041  0.39248408
   0.66026372  0.66392482  0.39114246
Direct configuration=     4
   0.69921632  0.42787030  0.47592553
   0.91005180  0.38591023  0.46723950
   0.67551731  0.46083604  0.52481768
   0.98675500  0.32859100  0.07437600
   0.32008800  0.32859100  0.07437600
   0.65342200  0.32859100  0.07437600
   0.98675500  0.66192500  0.07437600
   0.32008800  0.66192500  0.07437600
   0.65342200  0.66192500  0.07437600
   0.32008800  0.99525800  0.07437600
   0.65342200  0.99525800  0.07437600
   0.98675500  0.99525800  0.07437600
   0.20897700  0.10636900  0.17918600
   0.54231100  0.10636900  0.17918600
   0.87564400  0.10636900  0.17918600
   0.20897700  0.43970300  0.17918600
   0.54231100  0.43970300  0.17918600
   0.87564400  0.43970300  0.17918600
   0.20897700  0.77303600  0.17918600
   0.54231100  0.77303600  0.17918600
   0.87564400  0.77303600  0.17918600
   0.09601588  0.54791440  0.28565037
   0.43287977  0.88434272  0.28284449
   0.76155955  0.21330341  0.28106127
   0.09300875  0.21692864  0.28320635
   0.43670478  0.21997834  0.28632332
   0.09896792  0.88306879  0.28336726
   0.76460984  0.88259621  0.28621584
   0.43079028  0.54990603  0.28264761
   0.76273143  0.54868051  0.28045484
   0.32823330  0.65837990  0.38645151
   0.65117223  0.98691943  0.38996448
   0.32085050  0.32730377  0.38626923
   0.98722120  0.99430846  0.38979975
   0.31801934  0.99160557  0.38805529
   0.64365312  0.32389209  0.39437073
   0.99283929  0.66610057  0.38681318
   0.99055337  0.32189173  0.39250518
   0.66033369  0.66405914  0.39115025
Direct configuration=     5
   0.69905246  0.42778238  0.47595537
   0.91026725  0.38593000  0.46717404
   0.67583212  0.46137345  0.52472133
   0.98675500  0.32859100  0.07437600
   0.32008800  0.32859100  0.07437600
   0.65342200  0.32859100  0.07437600
   0.98675500  0.66192500  0.07437600
   0.32008800  0.66192500  0.07437600
   0.65342200  0.66192500  0.07437600
   0.32008800  0.99525800  0.07437600
   0.65342200  0.99525800  0.07437600
   0.98675500  0.99525800  0.07437600
   0.20897700  0.10636900  0.17918600
   0.54231100  0.10636900  0.17918600
   0.87564400  0.10636900  0.17918600
   0.20897700  0.43970300  0.17918600
   0.54231100  0.43970300  0.17918600
   0.87564400  0.43970300  0.17918600
   0.20897700  0.77303600  0.17918600
   0.54231100  0.77303600  0.17918600
   0.87564400  0.77303600  0.17918600
   0.09597156  0.54782766  0.28563247
   0.43278188  0.88441254  0.28285101
   0.76145398  0.21310688  0.28105020
   0.09290927  0.21680318  0.28319828
   0.43665240  0.21995704  0.28631878
   0.09894173  0.88306556  0.28338132
   0.76463301  0.88263711  0.28623555
   0.43067278  0.54995852  0.28261628
   0.76283447  0.54866460  0.28042004
   0.32826116  0.65844978  0.38647464
   0.65107808  0.98690333  0.38997378
   0.32087799  0.32733568  0.38627351
   0.98719607  0.99419798  0.38977935
   0.31794745  0.99164234  0.38800857
   0.64369897  0.32388718  0.39430317
   0.99285506  0.66610304  0.38684957
   0.99058887  0.32197288  0.39252643
   0.66040347  0.66419351  0.39115779
Direct configuration=     6
   0.69888564  0.42765618  0.47596406
   0.91049432  0.38595978  0.46710930
   0.67614748  0.46192329  0.52463677
   0.98675500  0.32859100  0.07437600
   0.32008800  0.32859100  0.07437600
   0.65342200  0.32859100  0.07437600
   0.98675500  0.66192500  0.07437600
   0.32008800  0.66192500  0.07437600
   0.65342200  0.66192500  0.07437600
   0.32008800  0.99525800  0.07437600
   0.65342200  0.99525800  0.07437600
   0.98675500  0.99525800  0.07437600
   0.20897700  0.10636900  0.17918600
   0.54231100  0.10636900  0.17918600
   0.87564400  0.10636900  0.17918600
   0.20897700  0.43970300  0.17918600
   0.54231100  0.43970300  0.17918600
   0.87564400  0.43970300  0.17918600
   0.20897700  0.77303600  0.17918600
   0.54231100  0.77303600  0.17918600
   0.87564400  0.77303600  0.17918600
   0.09592729  0.54774080  0.28561431
   0.43268374  0.88448223  0.28285757
   0.76134854  0.21291061  0.28103962
   0.09280994  0.21667779  0.28319040
   0.43659962  0.21993529  0.28631390
   0.09891538  0.88306240  0.28339533
   0.76465614  0.88267786  0.28625496
   0.43055552  0.55001110  0.28258496
   0.76293782  0.54864886  0.28038566
   0.32828883  0.65852015  0.38649785
   0.65098388  0.98688766  0.38998289
   0.32090524  0.32736740  0.38627787
   0.98717111  0.99408736  0.38975890
   0.31787567  0.99167886  0.38796185
   0.64374443  0.32388268  0.39423564
   0.99287090  0.66610570  0.38688597
   0.99062416  0.32205385  0.39254781
   0.66047307  0.66432796  0.39116507
Direct configuration=     7
   0.69871599  0.42749102  0.47595038
   0.91073314  0.38599964  0.46704544
   0.67646315  0.46248619  0.52456475
   0.98675500  0.32859100  0.07437600
   0.32008800  0.32859100  0.07437600
   0.65342200  0.32859100  0.07437600
   0.98675500  0.66192500  0.07437600
   0.32008800  0.66192500  0.07437600
   0.65342200  0.66192500  0.07437600
   0.32008800  0.99525800  0.07437600
   0.65342200  0.99525800  0.07437600
   0.98675500  0.99525800  0.07437600
   0.20897700  0.10636900  0.17918600
   0.54231100  0.10636900  0.17918600
   0.87564400  0.10636900  0.17918600
   0.20897700  0.43970300  0.17918600
   0.54231100  0.43970300  0.17918600
   0.87564400  0.43970300  0.17918600
   0.20897700  0.77303600  0.17918600
   0.54231100  0.77303600  0.17918600
   0.87564400  0.77303600  0.17918600
   0.09588306  0.54765380  0.28559589
   0.43258532  0.88455178  0.28286419
   0.76124321  0.21271460  0.28102952
   0.09271075  0.21655245  0.28318271
   0.43654642  0.21991308  0.28630868
   0.09888886  0.88305931  0.28340928
   0.76467920  0.88271844  0.28627408
   0.43043849  0.55006380  0.28255364
   0.76304148  0.54863329  0.28035169
   0.32831631  0.65859102  0.38652113
   0.65088962  0.98687243  0.38999180
   0.32093227  0.32739893  0.38628230
   0.98714632  0.99397658  0.38973839
   0.31780398  0.99171512  0.38791514
   0.64378953  0.32387859  0.39416813
   0.99288680  0.66610854  0.38692239
   0.99065925  0.32213465  0.39256933
   0.66054249  0.66446250  0.39117208
Direct configuration=     8
   0.69854337  0.42728682  0.47591395
   0.91098385  0.38604975  0.46698260
   0.67677926  0.46306239  0.52450542
   0.98675500  0.32859100  0.07437600
   0.32008800  0.32859100  0.07437600
   0.65342200  0.32859100  0.07437600
   0.98675500  0.66192500  0.07437600
   0.32008800  0.66192500  0.07437600
   0.65342200  0.66192500  0.07437600
   0.32008800  0.99525800  0.07437600
   0.65342200  0.99525800  0.07437600
   0.98675500  0.99525800  0.07437600
   0.20897700  0.10636900  0.17918600
   0.54231100  0.10636900  0.17918600
   0.87564400  0.10636900  0.17918600
   0.20897700  0.43970300  0.17918600
   0.54231100  0.43970300  0.17918600
   0.87564400  0.43970300  0.17918600
   0.20897700  0.77303600  0.17918600
   0.54231100  0.77303600  0.17918600
   0.87564400  0.77303600  0.17918600
   0.09583887  0.54756664  0.28557721
   0.43248660  0.88462118  0.28287085
   0.76113797  0.21251881  0.28101991
   0.09261170  0.21642715  0.28317520
   0.43649279  0.21989043  0.28630310
   0.09886217  0.88305628  0.28342318
   0.76470218  0.88275885  0.28629292
   0.43032167  0.55011660  0.28252233
   0.76314546  0.54861789  0.28031813
   0.32834360  0.65866242  0.38654450
   0.65079527  0.98685763  0.39000053
   0.32095906  0.32743029  0.38628682
   0.98712169  0.99386564  0.38971782
   0.31773237  0.99175114  0.38786843
   0.64383426  0.32387493  0.39410063
   0.99290277  0.66611155  0.38695883
   0.99069417  0.32221528  0.39259097
   0.66061172  0.66459714  0.39117884
Direct configuration=     9
   0.69836740  0.42704414  0.47585529
   0.91124643  0.38611027  0.46692095
   0.67709601  0.46365153  0.52445831
   0.98675500  0.32859100  0.07437600
   0.32008800  0.32859100  0.07437600
   0.65342200  0.32859100  0.07437600
   0.98675500  0.66192500  0.07437600
   0.32008800  0.66192500  0.07437600
   0.65342200  0.66192500  0.07437600
   0.32008800  0.99525800  0.07437600
   0.65342200  0.99525800  0.07437600
   0.98675500  0.99525800  0.07437600
   0.20897700  0.10636900  0.17918600
   0.54231100  0.10636900  0.17918600
   0.87564400  0.10636900  0.17918600
   0.20897700  0.43970300  0.17918600
   0.54231100  0.43970300  0.17918600
   0.87564400  0.43970300  0.17918600
   0.20897700  0.77303600  0.17918600
   0.54231100  0.77303600  0.17918600
   0.87564400  0.77303600  0.17918600
   0.09579469  0.54747931  0.28555827
   0.43238757  0.88469044  0.28287755
   0.76103283  0.21232323  0.28101079
   0.09251277  0.21630188  0.28316788
   0.43643875  0.21986736  0.28629716
   0.09883529  0.88305330  0.28343702
   0.76472507  0.88279907  0.28631147
   0.43020506  0.55016952  0.28249102
   0.76324975  0.54860266  0.28028497
   0.32837070  0.65873434  0.38656796
   0.65070084  0.98684327  0.39000907
   0.32098563  0.32746149  0.38629140
   0.98709723  0.99375454  0.38969719
   0.31766084  0.99178692  0.38782172
   0.64387862  0.32387169  0.39403315
   0.99291882  0.66611474  0.38699529
   0.99072893  0.32229572  0.39261272
   0.66068077  0.66473188  0.39118532
Direct configuration=    10
   0.69818749  0.42676428  0.47577576
   0.91152089  0.38618137  0.46686070
   0.67741390  0.46425285  0.52442236
   0.98675500  0.32859100  0.07437600
   0.32008800  0.32859100  0.07437600
   0.65342200  0.32859100  0.07437600
   0.98675500  0.66192500  0.07437600
   0.32008800  0.66192500  0.07437600
   0.65342200  0.66192500  0.07437600
   0.32008800  0.99525800  0.07437600
   0.65342200  0.99525800  0.07437600
   0.98675500  0.99525800  0.07437600
   0.20897700  0.10636900  0.17918600
   0.54231100  0.10636900  0.17918600
   0.87564400  0.10636900  0.17918600
   0.20897700  0.43970300  0.17918600
   0.54231100  0.43970300  0.17918600
   0.87564400  0.43970300  0.17918600
   0.20897700  0.77303600  0.17918600
   0.54231100  0.77303600  0.17918600
   0.87564400  0.77303600  0.17918600
   0.09575054  0.54739180  0.28553908
   0.43228823  0.88475954  0.28288430
   0.76092778  0.21212786  0.28100215
   0.09241398  0.21617664  0.28316075
   0.43638429  0.21984386  0.28629087
   0.09880822  0.88305036  0.28345081
   0.76474785  0.88283908  0.28632973
   0.43008866  0.55022255  0.28245972
   0.76335435  0.54858759  0.28025223
   0.32839762  0.65880678  0.38659150
   0.65060631  0.98682935  0.39001743
   0.32101197  0.32749253  0.38629606
   0.98707293  0.99364329  0.38967651
   0.31758936  0.99182245  0.38777501
   0.64392261  0.32386888  0.39396568
   0.99293493  0.66611810  0.38703178
   0.99076354  0.32237596  0.39263458
   0.66074964  0.66486672  0.39119154
Direct configuration=    11
   0.69800291  0.42644920  0.47567752
   0.91180721  0.38626322  0.46680202
   0.67773361  0.46486502  0.52439598
   0.98675500  0.32859100  0.07437600
   0.32008800  0.32859100  0.07437600
   0.65342200  0.32859100  0.07437600
   0.98675500  0.66192500  0.07437600
   0.32008800  0.66192500  0.07437600
   0.65342200  0.66192500  0.07437600
   0.32008800  0.99525800  0.07437600
   0.65342200  0.99525800  0.07437600
   0.98675500  0.99525800  0.07437600
   0.20897700  0.10636900  0.17918600
   0.54231100  0.10636900  0.17918600
   0.87564400  0.10636900  0.17918600
   0.20897700  0.43970300  0.17918600
   0.54231100  0.43970300  0.17918600
   0.87564400  0.43970300  0.17918600
   0.20897700  0.77303600  0.17918600
   0.54231100  0.77303600  0.17918600
   0.87564400  0.77303600  0.17918600
   0.09570641  0.54730411  0.28551964
   0.43218856  0.88482846  0.28289110
   0.76082284  0.21193273  0.28099400
   0.09231533  0.21605144  0.28315381
   0.43632941  0.21981997  0.28628421
   0.09878095  0.88304745  0.28346453
   0.76477052  0.88287886  0.28634770
   0.42997248  0.55027570  0.28242842
   0.76345923  0.54857268  0.28021989
   0.32842436  0.65887974  0.38661513
   0.65051169  0.98681588  0.39002560
   0.32103808  0.32752342  0.38630079
   0.98704880  0.99353189  0.38965578
   0.31751796  0.99185775  0.38772829
   0.64396622  0.32386650  0.39389821
   0.99295112  0.66612163  0.38706828
   0.99079801  0.32245597  0.39265653
   0.66081831  0.66500165  0.39119749
Direct configuration=    12
   0.69781286  0.42610158  0.47556340
   0.91210532  0.38635605  0.46674511
   0.67805587  0.46548621  0.52437706
   0.98675500  0.32859100  0.07437600
   0.32008800  0.32859100  0.07437600
   0.65342200  0.32859100  0.07437600
   0.98675500  0.66192500  0.07437600
   0.32008800  0.66192500  0.07437600
   0.65342200  0.66192500  0.07437600
   0.32008800  0.99525800  0.07437600
   0.65342200  0.99525800  0.07437600
   0.98675500  0.99525800  0.07437600
   0.20897700  0.10636900  0.17918600
   0.54231100  0.10636900  0.17918600
   0.87564400  0.10636900  0.17918600
   0.20897700  0.43970300  0.17918600
   0.54231100  0.43970300  0.17918600
   0.87564400  0.43970300  0.17918600
   0.20897700  0.77303600  0.17918600
   0.54231100  0.77303600  0.17918600
   0.87564400  0.77303600  0.17918600
   0.09566231  0.54721626  0.28549995
   0.43208860  0.88489718  0.28289794
   0.76071802  0.21173788  0.28098635
   0.09221686  0.21592632  0.28314706
   0.43627414  0.21979570  0.28627719
   0.09875347  0.88304455  0.28347819
   0.76479303  0.88291840  0.28636537
   0.42985656  0.55032895  0.28239715
   0.76356437  0.54855793  0.28018798
   0.32845090  0.65895320  0.38663882
   0.65041701  0.98680286  0.39003358
   0.32106395  0.32755417  0.38630558
   0.98702484  0.99342039  0.38963500
   0.31744663  0.99189280  0.38768159
   0.64400943  0.32386453  0.39383076
   0.99296739  0.66612532  0.38710480
   0.99083233  0.32253573  0.39267855
   0.66088675  0.66513661  0.39120316
Direct configuration=    13
   0.69761650  0.42572462  0.47543676
   0.91241504  0.38646003  0.46669020
   0.67838145  0.46611413  0.52436320
   0.98675500  0.32859100  0.07437600
   0.32008800  0.32859100  0.07437600
   0.65342200  0.32859100  0.07437600
   0.98675500  0.66192500  0.07437600
   0.32008800  0.66192500  0.07437600
   0.65342200  0.66192500  0.07437600
   0.32008800  0.99525800  0.07437600
   0.65342200  0.99525800  0.07437600
   0.98675500  0.99525800  0.07437600
   0.20897700  0.10636900  0.17918600
   0.54231100  0.10636900  0.17918600
   0.87564400  0.10636900  0.17918600
   0.20897700  0.43970300  0.17918600
   0.54231100  0.43970300  0.17918600
   0.87564400  0.43970300  0.17918600
   0.20897700  0.77303600  0.17918600
   0.54231100  0.77303600  0.17918600
   0.87564400  0.77303600  0.17918600
   0.09561824  0.54712828  0.28548003
   0.43198838  0.88496565  0.28290481
   0.76061338  0.21154339  0.28097919
   0.09211859  0.21580133  0.28314051
   0.43621849  0.21977106  0.28626980
   0.09872580  0.88304167  0.28349178
   0.76481538  0.88295765  0.28638273
   0.42974093  0.55038229  0.28236590
   0.76366971  0.54854334  0.28015651
   0.32847723  0.65902713  0.38666259
   0.65032231  0.98679031  0.39004137
   0.32108957  0.32758478  0.38631043
   0.98700108  0.99330883  0.38961419
   0.31737539  0.99192759  0.38763492
   0.64405221  0.32386296  0.39376333
   0.99298372  0.66612918  0.38714131
   0.99086650  0.32261518  0.39270063
   0.66095492  0.66527158  0.39120855
Direct configuration=    14
   0.69741305  0.42532206  0.47530136
   0.91273617  0.38657534  0.46663751
   0.67871111  0.46674615  0.52435172
   0.98675500  0.32859100  0.07437600
   0.32008800  0.32859100  0.07437600
   0.65342200  0.32859100  0.07437600
   0.98675500  0.66192500  0.07437600
   0.32008800  0.66192500  0.07437600
   0.65342200  0.66192500  0.07437600
   0.32008800  0.99525800  0.07437600
   0.65342200  0.99525800  0.07437600
   0.98675500  0.99525800  0.07437600
   0.20897700  0.10636900  0.17918600
   0.54231100  0.10636900  0.17918600
   0.87564400  0.10636900  0.17918600
   0.20897700  0.43970300  0.17918600
   0.54231100  0.43970300  0.17918600
   0.87564400  0.43970300  0.17918600
   0.20897700  0.77303600  0.17918600
   0.54231100  0.77303600  0.17918600
   0.87564400  0.77303600  0.17918600
   0.09557423  0.54704020  0.28545987
   0.43188792  0.88503383  0.28291171
   0.76050895  0.21134934  0.28097253
   0.09202058  0.21567651  0.28313415
   0.43616249  0.21974609  0.28626205
   0.09869792  0.88303878  0.28350527
   0.76483754  0.88299660  0.28639978
   0.42962567  0.55043568  0.28233471
   0.76377520  0.54852892  0.28012548
   0.32850334  0.65910150  0.38668641
   0.65022762  0.98677821  0.39004897
   0.32111494  0.32761523  0.38631535
   0.98697750  0.99319727  0.38959335
   0.31730430  0.99196211  0.38758831
   0.64409453  0.32386177  0.39369595
   0.99300011  0.66613318  0.38717780
   0.99090052  0.32269427  0.39272273
   0.66102280  0.66540646  0.39121365
Direct configuration=    15
   0.69720190  0.42489798  0.47516113
   0.91306851  0.38670214  0.46658727
   0.67904557  0.46737937  0.52433983
   0.98675500  0.32859100  0.07437600
   0.32008800  0.32859100  0.07437600
   0.65342200  0.32859100  0.07437600
   0.98675500  0.66192500  0.07437600
   0.32008800  0.66192500  0.07437600
   0.65342200  0.66192500  0.07437600
   0.32008800  0.99525800  0.07437600
   0.65342200  0.99525800  0.07437600
   0.98675500  0.99525800  0.07437600
   0.20897700  0.10636900  0.17918600
   0.54231100  0.10636900  0.17918600
   0.87564400  0.10636900  0.17918600
   0.20897700  0.43970300  0.17918600
   0.54231100  0.43970300  0.17918600
   0.87564400  0.43970300  0.17918600
   0.20897700  0.77303600  0.17918600
   0.54231100  0.77303600  0.17918600
   0.87564400  0.77303600  0.17918600
   0.09553029  0.54695207  0.28543951
   0.43178730  0.88510167  0.28291864
   0.76040480  0.21115585  0.28096638
   0.09192289  0.21555195  0.28312800
   0.43610616  0.21972080  0.28625393
   0.09866986  0.88303588  0.28351868
   0.76485949  0.88303521  0.28641651
   0.42951083  0.55048911  0.28230358
   0.76388076  0.54851467  0.28009493
   0.32852922  0.65917627  0.38671027
   0.65013300  0.98676660  0.39005638
   0.32114004  0.32764552  0.38632031
   0.98695413  0.99308577  0.38957250
   0.31723338  0.99199636  0.38754178
   0.64413636  0.32386096  0.39362863
   0.99301656  0.66613732  0.38721426
   0.99093438  0.32277294  0.39274485
   0.66109035  0.66554120  0.39121847
Direct configuration=    16
   0.69698250  0.42445666  0.47502007
   0.91341178  0.38684059  0.46653970
   0.67938543  0.46801078  0.52432476
   0.98675500  0.32859100  0.07437600
   0.32008800  0.32859100  0.07437600
   0.65342200  0.32859100  0.07437600
   0.98675500  0.66192500  0.07437600
   0.32008800  0.66192500  0.07437600
   0.65342200  0.66192500  0.07437600
   0.32008800  0.99525800  0.07437600
   0.65342200  0.99525800  0.07437600
   0.98675500  0.99525800  0.07437600
   0.20897700  0.10636900  0.17918600
   0.54231100  0.10636900  0.17918600
   0.87564400  0.10636900  0.17918600
   0.20897700  0.43970300  0.17918600
   0.54231100  0.43970300  0.17918600
   0.87564400  0.43970300  0.17918600
   0.20897700  0.77303600  0.17918600
   0.54231100  0.77303600  0.17918600
   0.87564400  0.77303600  0.17918600
   0.09548645  0.54686393  0.28541894
   0.43168655  0.88516912  0.28292559
   0.76030099  0.21096303  0.28096073
   0.09182557  0.21542772  0.28312205
   0.43604954  0.21969524  0.28624544
   0.09864161  0.88303296  0.28353197
   0.76488120  0.88307343  0.28643289
   0.42939650  0.55054254  0.28227254
   0.76398633  0.54850060  0.28006486
   0.32855485  0.65925139  0.38673416
   0.65003850  0.98675546  0.39006359
   0.32116486  0.32767565  0.38632533
   0.98693097  0.99297440  0.38955165
   0.31716268  0.99203030  0.38749535
   0.64417765  0.32386049  0.39356140
   0.99303305  0.66614160  0.38725067
   0.99096805  0.32285114  0.39276694
   0.66115750  0.66567571  0.39122299
Direct configuration=    17
   0.69675451  0.42400242  0.47488202
   0.91376566  0.38699084  0.46649504
   0.67973121  0.46863732  0.52430383
   0.98675500  0.32859100  0.07437600
   0.32008800  0.32859100  0.07437600
   0.65342200  0.32859100  0.07437600
   0.98675500  0.66192500  0.07437600
   0.32008800  0.66192500  0.07437600
   0.65342200  0.66192500  0.07437600
   0.32008800  0.99525800  0.07437600
   0.65342200  0.99525800  0.07437600
   0.98675500  0.99525800  0.07437600
   0.20897700  0.10636900  0.17918600
   0.54231100  0.10636900  0.17918600
   0.87564400  0.10636900  0.17918600
   0.20897700  0.43970300  0.17918600
   0.54231100  0.43970300  0.17918600
   0.87564400  0.43970300  0.17918600
   0.20897700  0.77303600  0.17918600
   0.54231100  0.77303600  0.17918600
   0.87564400  0.77303600  0.17918600
   0.09544271  0.54677583  0.28539819
   0.43158573  0.88523613  0.28293256
   0.76019757  0.21077099  0.28095560
   0.09172868  0.21530390  0.28311632
   0.43599266  0.21966941  0.28623659
   0.09861318  0.88303002  0.28354516
   0.76490264  0.88311124  0.28644894
   0.42928273  0.55059595  0.28224161
   0.76409184  0.54848671  0.28003530
   0.32858021  0.65932683  0.38675806
   0.64994417  0.98674483  0.39007060
   0.32118938  0.32770561  0.38633039
   0.98690804  0.99286323  0.38953082
   0.31709221  0.99206393  0.38744907
   0.64421837  0.32386035  0.39349428
   0.99304959  0.66614601  0.38728699
   0.99100153  0.32292880  0.39278900
   0.66122424  0.66580992  0.39122721
Direct configuration=    18
   0.69651767  0.42353951  0.47475062
   0.91412991  0.38715304  0.46645348
   0.68008328  0.46925605  0.52427455
   0.98675500  0.32859100  0.07437600
   0.32008800  0.32859100  0.07437600
   0.65342200  0.32859100  0.07437600
   0.98675500  0.66192500  0.07437600
   0.32008800  0.66192500  0.07437600
   0.65342200  0.66192500  0.07437600
   0.32008800  0.99525800  0.07437600
   0.65342200  0.99525800  0.07437600
   0.98675500  0.99525800  0.07437600
   0.20897700  0.10636900  0.17918600
   0.54231100  0.10636900  0.17918600
   0.87564400  0.10636900  0.17918600
   0.20897700  0.43970300  0.17918600
   0.54231100  0.43970300  0.17918600
   0.87564400  0.43970300  0.17918600
   0.20897700  0.77303600  0.17918600
   0.54231100  0.77303600  0.17918600
   0.87564400  0.77303600  0.17918600
   0.09539911  0.54668780  0.28537727
   0.43148488  0.88530265  0.28293954
   0.76009460  0.21057983  0.28095098
   0.09163227  0.21518053  0.28311081
   0.43593556  0.21964336  0.28622738
   0.09858458  0.88302704  0.28355822
   0.76492378  0.88314860  0.28646462
   0.42916960  0.55064929  0.28221081
   0.76419723  0.54847301  0.28000627
   0.32860530  0.65940253  0.38678197
   0.64985007  0.98673470  0.39007741
   0.32121359  0.32773539  0.38633549
   0.98688536  0.99275234  0.38951001
   0.31702202  0.99209723  0.38740294
   0.64425847  0.32386051  0.39342728
   0.99306616  0.66615054  0.38732323
   0.99103481  0.32300588  0.39281099
   0.66129051  0.66594376  0.39123113
Direct configuration=    19
   0.69627192  0.42307194  0.47462911
   0.91450427  0.38732728  0.46641521
   0.68044191  0.46986423  0.52423467
   0.98675500  0.32859100  0.07437600
   0.32008800  0.32859100  0.07437600
   0.65342200  0.32859100  0.07437600
   0.98675500  0.66192500  0.07437600
   0.32008800  0.66192500  0.07437600
   0.65342200  0.66192500  0.07437600
   0.32008800  0.99525800  0.07437600
   0.65342200  0.99525800  0.07437600
   0.98675500  0.99525800  0.07437600
   0.20897700  0.10636900  0.17918600
   0.54231100  0.10636900  0.17918600
   0.87564400  0.10636900  0.17918600
   0.20897700  0.43970300  0.17918600
   0.54231100  0.43970300  0.17918600
   0.87564400  0.43970300  0.17918600
   0.20897700  0.77303600  0.17918600
   0.54231100  0.77303600  0.17918600
   0.87564400  0.77303600  0.17918600
   0.09535565  0.54659988  0.28535619
   0.43138404  0.88536866  0.28294652
   0.75999212  0.21038964  0.28094687
   0.09153639  0.21505769  0.28310551
   0.43587824  0.21961711  0.28621780
   0.09855582  0.88302402  0.28357115
   0.76494461  0.88318548  0.28647995
   0.42905715  0.55070256  0.28218014
   0.76430243  0.54845950  0.27997777
   0.32863010  0.65947848  0.38680586
   0.64975623  0.98672508  0.39008402
   0.32123748  0.32776498  0.38634062
   0.98686293  0.99264178  0.38948925
   0.31695212  0.99213019  0.38735699
   0.64429793  0.32386095  0.39336043
   0.99308276  0.66615517  0.38735935
   0.99106788  0.32308232  0.39283289
   0.66135628  0.66607717  0.39123475
Direct configuration=    20
   0.69601737  0.42260339  0.47452034
   0.91488856  0.38751371  0.46638041
   0.68080731  0.47045943  0.52418227
   0.98675500  0.32859100  0.07437600
   0.32008800  0.32859100  0.07437600
   0.65342200  0.32859100  0.07437600
   0.98675500  0.66192500  0.07437600
   0.32008800  0.66192500  0.07437600
   0.65342200  0.66192500  0.07437600
   0.32008800  0.99525800  0.07437600
   0.65342200  0.99525800  0.07437600
   0.98675500  0.99525800  0.07437600
   0.20897700  0.10636900  0.17918600
   0.54231100  0.10636900  0.17918600
   0.87564400  0.10636900  0.17918600
   0.20897700  0.43970300  0.17918600
   0.54231100  0.43970300  0.17918600
   0.87564400  0.43970300  0.17918600
   0.20897700  0.77303600  0.17918600
   0.54231100  0.77303600  0.17918600
   0.87564400  0.77303600  0.17918600
   0.09531234  0.54651210  0.28533495
   0.43128325  0.88543411  0.28295351
   0.75989016  0.21020046  0.28094328
   0.09144106  0.21493542  0.28310044
   0.43582074  0.21959067  0.28620787
   0.09852689  0.88302094  0.28358393
   0.76496511  0.88322185  0.28649490