 vasp.5.4.4 16052018 (build Apr 24 2014 20:13:14) complex standard
 Contain Constrained Minimization Technique (TS), Periodic NBO, VASPsol, libbeef, VASP2WANNIER90, Constrained Cell Relaxation
 executed on Center for Computational Chemistry by phu@node06 date 2025.09.27 23:23:51
 running on    8 total cores
 distrk:  each k-point on    8 cores,    1 groups
 distr:  one band on NCORES_PER_BAND=   2 cores,    4 groups


--------------------------------------------------------------------------------------------------------


 INCAR:
 POTCAR:   PAW_PBE C 08Apr2002                    
 POTCAR:   PAW_PBE O 08Apr2002                    
 POTCAR:    PAW_PBE Pt 04Feb2005                  
 POTCAR:   PAW_PBE C 08Apr2002                    
   VRHFIN =C: s2p2                                                              
   LEXCH  = PE                                                                  
   EATOM  =   147.1560 eV,   10.8157 Ry                                         
                                                                                
   TITEL  = PAW_PBE C 08Apr2002                                                 
   LULTRA =        F    use ultrasoft PP ?                                      
   IUNSCR =        0    unscreen: 0-lin 1-nonlin 2-no                           
   RPACOR =     .000    partial core radius                                     
   POMASS =   12.011; ZVAL   =    4.000    mass and valenz                      
   RCORE  =    1.500    outmost cutoff radius                                   
   RWIGS  =    1.630; RWIGS  =     .863    wigner-seitz radius (au A)           
   ENMAX  =  400.000; ENMIN  =  300.000 eV                                      
   ICORE  =        2    local potential                                         
   LCOR   =        T    correct aug charges                                     
   LPAW   =        T    paw PP                                                  
   EAUG   =  644.873                                                            
   DEXC   =     .000                                                            
   RMAX   =    2.266    core radius for proj-oper                               
   RAUG   =    1.300    factor for augmentation sphere                          
   RDEP   =    1.501    radius for radial grids                                 
   RDEPT  =    1.300    core radius for aug-charge                              
   QCUT   =   -5.516; QGAM   =   11.032    optimization parameters              
                                                                                
   Description                                                                  
     l     E      TYP  RCUT    TYP  RCUT                                        
     0   .000     23  1.200                                                     
     0   .000     23  1.200                                                     
     1   .000     23  1.500                                                     
     1  2.500     23  1.500                                                     
     2   .000      7  1.500                                                     
  local pseudopotential read in
  atomic valenz-charges read in
  non local Contribution for L=           0  read in
    real space projection operators read in
  non local Contribution for L=           0  read in
    real space projection operators read in
  non local Contribution for L=           1  read in
    real space projection operators read in
  non local Contribution for L=           1  read in
    real space projection operators read in
    PAW grid and wavefunctions read in
 
   number of l-projection  operators is LMAX  =           4
   number of lm-projection operators is LMMAX =           8
 
 POTCAR:   PAW_PBE O 08Apr2002                    
   VRHFIN =O: s2p4                                                              
   LEXCH  = PE                                                                  
   EATOM  =   432.3788 eV,   31.7789 Ry                                         
                                                                                
   TITEL  = PAW_PBE O 08Apr2002                                                 
   LULTRA =        F    use ultrasoft PP ?                                      
   IUNSCR =        0    unscreen: 0-lin 1-nonlin 2-no                           
   RPACOR =     .000    partial core radius                                     
   POMASS =   16.000; ZVAL   =    6.000    mass and valenz                      
   RCORE  =    1.520    outmost cutoff radius                                   
   RWIGS  =    1.550; RWIGS  =     .820    wigner-seitz radius (au A)           
   ENMAX  =  400.000; ENMIN  =  300.000 eV                                      
   ICORE  =        2    local potential                                         
   LCOR   =        T    correct aug charges                                     
   LPAW   =        T    paw PP                                                  
   EAUG   =  605.392                                                            
   DEXC   =     .000                                                            
   RMAX   =    2.264    core radius for proj-oper                               
   RAUG   =    1.300    factor for augmentation sphere                          
   RDEP   =    1.550    radius for radial grids                                 
   QCUT   =   -5.520; QGAM   =   11.041    optimization parameters              
                                                                                
   Description                                                                  
     l     E      TYP  RCUT    TYP  RCUT                                        
     0   .000     23  1.200                                                     
     0  -.700     23  1.200                                                     
     1   .000     23  1.520                                                     
     1   .600     23  1.520                                                     
     2   .000      7  1.500                                                     
  local pseudopotential read in
  atomic valenz-charges read in
  non local Contribution for L=           0  read in
    real space projection operators read in
  non local Contribution for L=           0  read in
    real space projection operators read in
  non local Contribution for L=           1  read in
    real space projection operators read in
  non local Contribution for L=           1  read in
    real space projection operators read in
    PAW grid and wavefunctions read in
 
   number of l-projection  operators is LMAX  =           4
   number of lm-projection operators is LMMAX =           8
 
 POTCAR:    PAW_PBE Pt 04Feb2005                  
   VRHFIN =Pt: s1d9                                                             
   LEXCH  = PE                                                                  
   EATOM  =   729.1182 eV,   53.5887 Ry                                         
                                                                                
   TITEL  = PAW_PBE Pt 04Feb2005                                                
   LULTRA =        F    use ultrasoft PP ?                                      
   IUNSCR =        1    unscreen: 0-lin 1-nonlin 2-no                           
   RPACOR =    2.330    partial core radius                                     
   POMASS =  195.080; ZVAL   =   10.000    mass and valenz                      
   RCORE  =    2.600    outmost cutoff radius                                   
   RWIGS  =    2.750; RWIGS  =    1.455    wigner-seitz radius (au A)           
   ENMAX  =  230.283; ENMIN  =  172.712 eV                                      
   ICORE  =        3    local potential                                         
   LCOR   =        T    correct aug charges                                     
   LPAW   =        T    paw PP                                                  
   EAUG   =  358.966                                                            
   DEXC   =     .000                                                            
   RMAX   =    3.038    core radius for proj-oper                               
   RAUG   =    1.300    factor for augmentation sphere                          
   RDEP   =    2.761    radius for radial grids                                 
   QCUT   =   -4.114; QGAM   =    8.228    optimization parameters              
                                                                                
   Description                                                                  
     l     E      TYP  RCUT    TYP  RCUT                                        
     2   .000     23  2.500                                                     
     2   .000     23  2.500                                                     
     0   .000     23  2.500                                                     
     0   .000     23  2.500                                                     
     1  -.200     23  2.600                                                     
     1  1.500     23  2.600                                                     
     3   .000     23  2.500                                                     
  local pseudopotential read in
  partial core-charges read in
  atomic valenz-charges read in
  non local Contribution for L=           2  read in
    real space projection operators read in
  non local Contribution for L=           2  read in
    real space projection operators read in
  non local Contribution for L=           0  read in
    real space projection operators read in
  non local Contribution for L=           0  read in
    real space projection operators read in
  non local Contribution for L=           1  read in
    real space projection operators read in
  non local Contribution for L=           1  read in
    real space projection operators read in
    PAW grid and wavefunctions read in
 
   number of l-projection  operators is LMAX  =           6
   number of lm-projection operators is LMMAX =          18
 
 Optimization of the real space projectors (new method)

 maximal supplied QI-value         = 25.13
 optimisation between [QCUT,QGAM] = [ 10.81, 21.61] = [ 32.71,130.83] Ry 
 Optimized for a Real-space Cutoff    1.23 Angstroem

   l    n(q)    QCUT    max X(q) W(low)/X(q) W(high)/X(q)  e(spline) 
   0      8    10.807     5.582    0.53E-04    0.84E-04    0.44E-07
   0      8    10.807    69.432    0.35E-03    0.71E-03    0.24E-06
   1      7    10.807     2.780    0.44E-04    0.88E-04    0.89E-07
   1      7    10.807     4.549    0.14E-03    0.28E-03    0.13E-06
 Optimization of the real space projectors (new method)

 maximal supplied QI-value         = 24.76
 optimisation between [QCUT,QGAM] = [ 10.64, 21.54] = [ 31.73,129.89] Ry 
 Optimized for a Real-space Cutoff    1.23 Angstroem

   l    n(q)    QCUT    max X(q) W(low)/X(q) W(high)/X(q)  e(spline) 
   0      8    10.645     4.192    0.69E-04    0.93E-04    0.58E-07
   0      8    10.645     8.473    0.40E-03    0.65E-03    0.17E-06
   1      7    10.645     2.474    0.80E-04    0.12E-03    0.30E-07
   1      7    10.645     3.912    0.24E-03    0.53E-03    0.16E-06
 Optimization of the real space projectors (new method)

 maximal supplied QI-value         = 14.36
 optimisation between [QCUT,QGAM] = [ 10.77, 21.69] = [ 32.49,131.70] Ry 
 Optimized for a Real-space Cutoff    1.46 Angstroem

   l    n(q)    QCUT    max X(q) W(low)/X(q) W(high)/X(q)  e(spline) 
   2      9    10.771     3.903    0.38E-04    0.12E-03    0.82E-07
   2      9    10.771    18.372    0.13E-03    0.32E-03    0.28E-06
   0     10    10.771    13.697    0.11E-04    0.86E-05    0.85E-08
   0     10    10.771    65.529    0.40E-04    0.12E-03    0.14E-06
   1      9    10.771     7.604    0.48E-04    0.31E-04    0.38E-07
   1      9    10.771    12.136    0.35E-03    0.16E-03    0.23E-06
 PAW_PBE C 08Apr2002                    :
 energy of atom  1       EATOM= -147.1560
 kinetic energy error for atom=    0.0116 (will be added to EATOM!!)
 PAW_PBE O 08Apr2002                    :
 energy of atom  2       EATOM= -432.3788
 kinetic energy error for atom=    0.0389 (will be added to EATOM!!)
  PAW_PBE Pt 04Feb2005                  :
 energy of atom  3       EATOM= -729.1182
 kinetic energy error for atom=    0.0051 (will be added to EATOM!!)
 
 
 POSCAR: C    O    Pt                            
  positions in direct lattice
  No initial velocities read in
 exchange correlation table for  LEXCH =        8
   RHO(1)=    0.500       N(1)  =     2000
   RHO(2)=  100.500       N(2)  =     4000

 VTST: version 3.2, (02/03/18)

 CHAIN: initializing optimizer
 
 OPT: Using VASP QUASI-newton optimizer
 CHAIN: Read ICHAIN            0
 
 POSCAR: C    O    Pt                            
  positions in direct lattice
  No initial velocities read in
 


--------------------------------------------------------------------------------------------------------


 ion  position               nearest neighbor table
   1  0.701  0.439  0.480-   3 1.16   2 2.00  36 2.16
   2  0.906  0.387  0.468-   1 2.00  38 2.08  36 2.65  37 2.70
   3  0.673  0.466  0.530-   1 1.16
   4  0.987  0.329  0.074-  15 2.81  16 2.81  12 2.81   5 2.81  11 2.81   6 2.81  18 2.81   8 2.81
                             7 2.81
   5  0.320  0.329  0.074-  13 2.81  10 2.81   4 2.81  12 2.81  16 2.81  17 2.81   8 2.81   9 2.81
                             6 2.81
   6  0.653  0.329  0.074-  14 2.81  18 2.81  11 2.81   4 2.81  17 2.81   7 2.81  10 2.81   9 2.81
                             5 2.81
   7  0.987  0.662  0.074-  18 2.81  21 2.81  19 2.81  12 2.81   8 2.81  10 2.81   9 2.81   6 2.81
                             4 2.81
   8  0.320  0.662  0.074-  16 2.81  19 2.81  10 2.81   7 2.81  20 2.81   4 2.81  11 2.81   5 2.81
                             9 2.81
   9  0.653  0.662  0.074-  17 2.81  20 2.81  21 2.81  11 2.81  12 2.81   7 2.81   6 2.81   5 2.81
                             8 2.81
  10  0.320  0.995  0.074-  13 2.81  19 2.81   5 2.81   8 2.81  12 2.81   7 2.81  14 2.81   6 2.81
                            11 2.81
  11  0.653  0.995  0.074-  14 2.81  20 2.81  15 2.81   9 2.81   6 2.81  12 2.81   4 2.81   8 2.81
                            10 2.81
  12  0.987  0.995  0.074-  15 2.81  21 2.81  13 2.81   7 2.81   4 2.81  10 2.81   5 2.81  11 2.81
                             9 2.81
  13  0.209  0.106  0.179-  27 2.72  26 2.78   5 2.81  10 2.81  12 2.81  19 2.81  15 2.81  21 2.81
                            16 2.81  14 2.81  17 2.81  25 2.89
  14  0.542  0.106  0.179-  23 2.68  26 2.78  24 2.80  11 2.81   6 2.81  20 2.81  15 2.81  10 2.81
                            18 2.81  19 2.81  17 2.81  13 2.81
  15  0.876  0.106  0.179-   4 2.81  12 2.81  11 2.81  21 2.81  13 2.81  20 2.81  14 2.81  16 2.81
                            18 2.81  28 2.83  24 2.84  25 2.89
  16  0.209  0.440  0.179-  22 2.79   8 2.81   4 2.81  19 2.81  18 2.81   5 2.81  15 2.81  20 2.81
                            13 2.81  17 2.81  29 2.87  25 2.89
  17  0.542  0.440  0.179-  26 2.76  30 2.78   9 2.81  20 2.81  21 2.81  18 2.81   6 2.81   5 2.81
                            14 2.81  16 2.81  13 2.81  29 2.84
  18  0.876  0.440  0.179-  22 2.76  30 2.79   7 2.81   6 2.81  21 2.81  19 2.81  16 2.81  17 2.81
                             4 2.81  14 2.81  15 2.81  24 2.82
  19  0.209  0.773  0.179-  23 2.72  27 2.72  22 2.78  10 2.81   8 2.81   7 2.81  16 2.81  13 2.81
                            21 2.81  18 2.81  14 2.81  20 2.81
  20  0.542  0.773  0.179-  23 2.71  11 2.81   9 2.81  17 2.81  14 2.81  21 2.81  15 2.81   8 2.81
                            16 2.81  19 2.81  28 2.86  29 2.86
  21  0.876  0.773  0.179-  27 2.75  30 2.80   7 2.81  12 2.81   9 2.81  18 2.81  15 2.81  19 2.81
                            13 2.81  17 2.81  20 2.81  28 2.83
  22  0.094  0.549  0.282-  18 2.76  19 2.78  16 2.79  31 2.79  30 2.80  27 2.80  37 2.80  24 2.81
                            25 2.82  38 2.86  23 2.86  29 2.87
  23  0.434  0.888  0.278-  14 2.68  20 2.71  19 2.72  24 2.76  27 2.79  26 2.81  28 2.83  35 2.84
                            31 2.85  29 2.86  22 2.86  32 2.93
  24  0.759  0.218  0.285-  26 2.76  23 2.76  30 2.78  14 2.80  22 2.81  36 2.82  18 2.82  28 2.82
                            38 2.84  15 2.84  25 2.85  32 2.87
  25  0.098  0.217  0.288-  38 2.65  34 2.71  33 2.75  28 2.78  27 2.82  29 2.82  26 2.82  22 2.82
                            24 2.85  15 2.89  13 2.89  16 2.89
  26  0.434  0.221  0.282-  17 2.76  24 2.76  30 2.76  29 2.77  14 2.78  35 2.78  13 2.78  36 2.80
                            27 2.81  23 2.81  25 2.82  33 2.84
  27  0.102  0.886  0.280-  19 2.72  13 2.72  21 2.75  23 2.79  35 2.79  22 2.80  26 2.81  25 2.82
                            28 2.82  34 2.85  30 2.86  37 2.88
  28  0.769  0.887  0.286-  34 2.74  32 2.77  25 2.78  39 2.80  27 2.82  24 2.82  30 2.83  23 2.83
                            15 2.83  29 2.83  21 2.83  20 2.86
  29  0.434  0.550  0.287-  31 2.69  39 2.75  30 2.77  26 2.77  33 2.78  25 2.82  28 2.83  17 2.84
                            23 2.86  20 2.86  22 2.87  16 2.87
  30  0.761  0.548  0.283-  26 2.76  29 2.77  24 2.78  17 2.78  18 2.79  22 2.80  21 2.80  28 2.83
                            39 2.83  27 2.86  36 2.88  37 2.89
  31  0.322  0.662  0.384-  29 2.69  37 2.74  32 2.75  22 2.79  39 2.79  35 2.82  38 2.82  33 2.83
                            23 2.85
  32  0.652  0.985  0.390-  39 2.73  31 2.75  28 2.77  34 2.81  35 2.84  38 2.86  36 2.86  24 2.87
                            23 2.93
  33  0.323  0.327  0.390-  36 2.70  38 2.74  25 2.75  29 2.78  35 2.78  39 2.80  34 2.82  31 2.83
                            26 2.84
  34  0.988  0.992  0.387-  25 2.71  28 2.74  38 2.75  35 2.79  37 2.79  39 2.81  32 2.81  33 2.82
                            27 2.85
  35  0.321  0.996  0.385-  36 2.70  37 2.76  26 2.78  33 2.78  34 2.79  27 2.79  31 2.82  32 2.84
                            23 2.84
  36  0.639  0.318  0.390-   1 2.16   2 2.65  35 2.70  33 2.70  26 2.80  24 2.82  39 2.83  32 2.86
                            30 2.88  37 2.98  38 2.98
  37  0.998  0.666  0.389-   2 2.70  31 2.74  35 2.76  34 2.79  22 2.80  27 2.88  38 2.89  30 2.89
                            39 2.89  36 2.98
  38  0.994  0.321  0.388-   2 2.08  25 2.65  33 2.74  34 2.75  31 2.82  24 2.84  32 2.86  22 2.86
                            37 2.89  36 2.98
  39  0.653  0.662  0.389-  32 2.73  29 2.75  31 2.79  28 2.80  33 2.80  34 2.81  30 2.83  36 2.83
                            37 2.89
 

IMPORTANT INFORMATION: All symmetrisations will be switched off!
NOSYMM: (Re-)initialisation of all symmetry stuff for point group C_1.

 
 
 KPOINTS: mesh auto                               

Automatic generation of k-mesh.
Space group operators:
 irot       det(A)        alpha          n_x          n_y          n_z        tau_x        tau_y        tau_z
    1     1.000000     0.000000     1.000000     0.000000     0.000000     0.000000     0.000000     0.000000
 
 Subroutine IBZKPT returns following result:
 ===========================================
 
 Found      4 irreducible k-points:
 
 Following reciprocal coordinates:
            Coordinates               Weight
  0.000000  0.000000  0.000000      1.000000
  0.500000  0.000000  0.000000      1.000000
 -0.000000  0.500000  0.000000      1.000000
  0.500000  0.500000  0.000000      1.000000
 
 Following cartesian coordinates:
            Coordinates               Weight
  0.000000  0.000000  0.000000      1.000000
  0.068522  0.000000  0.000000      1.000000
  0.034261  0.059342  0.000000      1.000000
  0.102783  0.059342  0.000000      1.000000
 


--------------------------------------------------------------------------------------------------------




 Dimension of arrays:
   k-points           NKPTS =      4   k-points in BZ     NKDIM =      4   number of bands    NBANDS=    228
   number of dos      NEDOS =    301   number of ions     NIONS =     39
   non local maximal  LDIM  =      6   non local SUM 2l+1 LMDIM =     18
   total plane-waves  NPLWV = 276480
   max r-space proj   IRMAX =   2756   max aug-charges    IRDMAX=  12646
   dimension x,y,z NGX =    48 NGY =   48 NGZ =  120
   dimension x,y,z NGXF=    96 NGYF=   96 NGZF=  240
   support grid    NGXF=    96 NGYF=   96 NGZF=  240
   ions per type =               1   2  36
   NGX,Y,Z   is equivalent  to a cutoff of   9.47,  9.47,  9.12 a.u.
   NGXF,Y,Z  is equivalent  to a cutoff of  18.94, 18.94, 18.24 a.u.

 SYSTEM =  metal                                   
 POSCAR =  C    O    Pt                            

 Startparameter for this run:
   NWRITE =      2    write-flag & timer
   PREC   = normal    normal or accurate (medium, high low for compatibility)
   ISTART =      0    job   : 0-new  1-cont  2-samecut
   ICHARG =      2    charge: 1-file 2-atom 10-const
   ISPIN  =      1    spin polarized calculation?
   LNONCOLLINEAR =      F non collinear calculations
   LSORBIT =      F    spin-orbit coupling
   INIWAV =      1    electr: 0-lowe 1-rand  2-diag
   LASPH  =      F    aspherical Exc in radial PAW
   METAGGA=      F    non-selfconsistent MetaGGA calc.

 Electronic Relaxation 1
   ENCUT  =  450.0 eV  33.07 Ry    5.75 a.u.  14.57 14.57 37.84*2*pi/ulx,y,z
   ENINI  =  450.0     initial cutoff
   ENAUG  =  644.9 eV  augmentation charge cutoff
   NELM   =     60;   NELMIN=  8; NELMDL= -5     # of ELM steps 
   EDIFF  = 0.1E-03   stopping-criterion for ELM
   LREAL  =      T    real-space projection
   NLSPLINE    = F    spline interpolate recip. space projectors
   LCOMPAT=      F    compatible to vasp.4.4
   GGA_COMPAT  = T    GGA compatible to vasp.4.4-vasp.4.6
   LMAXPAW     = -100 max onsite density
   LMAXMIX     =    2 max onsite mixed and CHGCAR
   VOSKOWN=      0    Vosko Wilk Nusair interpolation
   ROPT   =   -0.00050  -0.00050  -0.00050
 Ionic relaxation
   EDIFFG = -.5E-01   stopping-criterion for IOM
   NSW    =   5000    number of steps for IOM
   NBLOCK =      1;   KBLOCK =   5000    inner block; outer block 
   IBRION =      1    ionic relax: 0-MD 1-quasi-New 2-CG
   NFREE  =      0    steps in history (QN), initial steepest desc. (CG)
   ISIF   =      2    stress and relaxation
   IWAVPR =     11    prediction:  0-non 1-charg 2-wave 3-comb
   ISYM   =      0    0-nonsym 1-usesym 2-fastsym
   LCORR  =      T    Harris-Foulkes like correction to forces

   POTIM  = 0.2000    time-step for ionic-motion
   TEIN   =    0.0    initial temperature
   TEBEG  =    0.0;   TEEND  =   0.0 temperature during run
   SMASS  =  -3.00    Nose mass-parameter (am)
   estimated Nose-frequenzy (Omega)   =  0.10E-29 period in steps =****** mass=  -0.162E-26a.u.
   SCALEE = 1.0000    scale energy and forces
   NPACO  =    256;   APACO  = 16.0  distance and # of slots for P.C.
   PSTRESS=    0.0 pullay stress

  Mass of Ions in am
   POMASS =  12.01 16.00195.08
  Ionic Valenz
   ZVAL   =   4.00  6.00 10.00
  Atomic Wigner-Seitz radii
   RWIGS  =  -1.00 -1.00 -1.00
  virtual crystal weights 
   VCA    =   1.00  1.00  1.00
   NELECT =     376.0000    total number of electrons
   NUPDOWN=      -1.0000    fix difference up-down

 DOS related values:
   EMIN   =  10.00;   EMAX   =-10.00  energy-range for DOS
   EFERMI =   0.00
   ISMEAR =     1;   SIGMA  =   0.20  broadening in eV -4-tet -1-fermi 0-gaus

 Electronic relaxation 2 (details)
   IALGO  =     68    algorithm
   LDIAG  =      T    sub-space diagonalisation (order eigenvalues)
   LSUBROT=      F    optimize rotation matrix (better conditioning)
   TURBO    =      0    0=normal 1=particle mesh
   IRESTART =      0    0=no restart 2=restart with 2 vectors
   NREBOOT  =      0    no. of reboots
   NMIN     =      0    reboot dimension
   EREF     =   0.00    reference energy to select bands
   IMIX   =      4    mixing-type and parameters
     AMIX     =   0.40;   BMIX     =  1.00
     AMIX_MAG =   1.60;   BMIX_MAG =  1.00
     AMIN     =   0.10
     WC   =   100.;   INIMIX=   1;  MIXPRE=   1;  MAXMIX= -45

 Intra band minimization:
   WEIMIN = 0.0010     energy-eigenvalue tresh-hold
   EBREAK =  0.11E-06  absolut break condition
   DEPER  =   0.30     relativ break condition  

   TIME   =   0.40     timestep for ELM

  volume/ion in A,a.u.               =      34.49       232.77
  Fermi-wavevector in a.u.,A,eV,Ry     =   1.070385  2.022734 15.588510  1.145723
  Thomas-Fermi vector in A             =   2.206093
 
 Write flags
   LWAVE        =      F    write WAVECAR
   LDOWNSAMPLE  =      F    k-point downsampling of WAVECAR
   LCHARG       =      F    write CHGCAR
   LVTOT        =      F    write LOCPOT, total local potential
   LVHAR        =      F    write LOCPOT, Hartree potential only
   LELF         =      F    write electronic localiz. function (ELF)
   LORBIT       =      0    0 simple, 1 ext, 2 COOP (PROOUT), +10 PAW based schemes


 Dipole corrections
   LMONO  =      F    monopole corrections only (constant potential shift)
   LDIPOL =      F    correct potential (dipole corrections)
   IDIPOL =      0    1-x, 2-y, 3-z, 4-all directions 
   EPSILON=  1.0000000 bulk dielectric constant

 Exchange correlation treatment:
   GGA     =    --    GGA type
   LEXCH   =     8    internal setting for exchange type
   VOSKOWN=      0    Vosko Wilk Nusair interpolation
   LHFCALC =     F    Hartree Fock is set to
   LHFONE  =     F    Hartree Fock one center treatment
   AEXX    =    0.0000 exact exchange contribution

 Linear response parameters
   LEPSILON=     F    determine dielectric tensor
   LRPA    =     F    only Hartree local field effects (RPA)
   LNABLA  =     F    use nabla operator in PAW spheres
   LVEL    =     F    velocity operator in full k-point grid
   LINTERFAST=   F  fast interpolation
   KINTER  =     0    interpolate to denser k-point grid
   CSHIFT  =0.1000    complex shift for real part using Kramers Kronig
   OMEGAMAX=  -1.0    maximum frequency
   DEG_THRESHOLD= 0.2000000E-02 threshold for treating states as degnerate
   RTIME   =   -0.100 relaxation time in fs
  (WPLASMAI=    0.000 imaginary part of plasma frequency in eV, 0.658/RTIME)
   DFIELD  = 0.0000000 0.0000000 0.0000000 field for delta impulse in time
 
 Orbital magnetization related:
   ORBITALMAG=     F  switch on orbital magnetization
   LCHIMAG   =     F  perturbation theory with respect to B field
   DQ        =  0.001000  dq finite difference perturbation B field
   LLRAUG    =     F  two centre corrections for induced B field



--------------------------------------------------------------------------------------------------------


 quasi-Newton-method for relaxation of ions
   using selective dynamics as specified on POSCAR
 charge density and potential will be updated during run
 non-spin polarized calculation
 RMM-DIIS sequential band-by-band and
  variant of blocked Davidson during initial phase
 perform sub-space diagonalisation
    before iterative eigenvector-optimisation
 modified Broyden-mixing scheme, WC =      100.0
 initial mixing is a Kerker type mixing with AMIX =  0.4000 and BMIX =      1.0000
 Hartree-type preconditioning will be used
 using additional bands           40
 real space projection scheme for non local part
 use partial core corrections
 calculate Harris-corrections to forces 
   (improved forces if not selfconsistent)
 use gradient corrections 
 use of overlap-Matrix (Vanderbilt PP)
 Methfessel and Paxton  Order N= 1 SIGMA  =   0.20


--------------------------------------------------------------------------------------------------------


  energy-cutoff  :      450.00
  volume of cell :     1345.22
      direct lattice vectors                 reciprocal lattice vectors
     7.296955120 -4.212899000  0.000000000     0.137043463  0.000000000  0.000000000
     0.000000000  8.425798000  0.000000000     0.068521732  0.118683121  0.000000000
     0.000000000  0.000000000 21.879635000     0.000000000  0.000000000  0.045704602

  length of vectors
     8.425798004  8.425798000 21.879635000     0.137043463  0.137043463  0.045704602


 
 k-points in units of 2pi/SCALE and weight: mesh auto                               
   0.00000000  0.00000000  0.00000000       0.250
   0.06852173  0.00000000  0.00000000       0.250
   0.03426087  0.05934156  0.00000000       0.250
   0.10278260  0.05934156  0.00000000       0.250
 
 k-points in reciprocal lattice and weights: mesh auto                               
   0.00000000  0.00000000  0.00000000       0.250
   0.50000000  0.00000000  0.00000000       0.250
  -0.00000000  0.50000000  0.00000000       0.250
   0.50000000  0.50000000  0.00000000       0.250
 
 position of ions in fractional coordinates (direct lattice) 
   0.70122439  0.43875846  0.48016351
   0.90635845  0.38744674  0.46813794
   0.67308784  0.46561434  0.53005204
   0.98675500  0.32859100  0.07437600
   0.32008800  0.32859100  0.07437600
   0.65342200  0.32859100  0.07437600
   0.98675500  0.66192500  0.07437600
   0.32008800  0.66192500  0.07437600
   0.65342200  0.66192500  0.07437600
   0.32008800  0.99525800  0.07437600
   0.65342200  0.99525800  0.07437600
   0.98675500  0.99525800  0.07437600
   0.20897700  0.10636900  0.17918600
   0.54231100  0.10636900  0.17918600
   0.87564400  0.10636900  0.17918600
   0.20897700  0.43970300  0.17918600
   0.54231100  0.43970300  0.17918600
   0.87564400  0.43970300  0.17918600
   0.20897700  0.77303600  0.17918600
   0.54231100  0.77303600  0.17918600
   0.87564400  0.77303600  0.17918600
   0.09384869  0.54945563  0.28208095
   0.43437380  0.88840425  0.27791043
   0.75932295  0.21759259  0.28470584
   0.09781085  0.21743483  0.28849573
   0.43357999  0.22101932  0.28196479
   0.10231731  0.88618548  0.27971148
   0.76858187  0.88706441  0.28570165
   0.43400211  0.54985913  0.28671417
   0.76147806  0.54820933  0.28296809
   0.32222651  0.66234295  0.38427284
   0.65172888  0.98517837  0.39022339
   0.32267034  0.32679125  0.38951936
   0.98840581  0.99218433  0.38719787
   0.32131179  0.99639099  0.38450658
   0.63878857  0.31846862  0.39020950
   0.99831785  0.66561290  0.38889526
   0.99410213  0.32089956  0.38818527
   0.65309046  0.66152840  0.38904347
 
 position of ions in cartesian coordinates  (Angst):
   5.11680288  0.74270264 10.50580241
   6.61365694 -0.55384868 10.24268736
   4.91149178  1.08752131 11.59734528
   7.20030695 -1.38845776  1.62731973
   2.33566777  1.42014298  1.62731973
   4.76799101  0.01584050  1.62731973
   7.20030695  1.42014719  1.62731973
   2.33566777  4.22874793  1.62731973
   4.76799101  2.82444545  1.62731973
   2.33566777  7.03734445  1.62731973
   4.76799101  5.63304198  1.62731973
   7.20030695  4.22874371  1.62731973
   1.52489579  0.01584471  3.92052428
   3.95721903 -1.38845776  3.92052428
   6.38953497 -2.79275602  3.92052428
   1.52489579  2.82444966  3.92052428
   3.95721903  1.42014719  3.92052428
   6.38953497  0.01584893  3.92052428
   1.52489579  5.63304619  3.92052428
   3.95721903  4.22874371  3.92052428
   6.38953497  2.82444545  3.92052428
   0.68480970  4.23422711  6.17182830
   3.16960614  5.65554177  6.08057870
   5.54074549 -1.36555970  6.22925996
   0.71372140  1.41999468  6.31218132
   3.16381370  0.03563542  6.16928676
   0.74660483  7.03576734  6.11998519
   5.60830743  4.23626773  6.25104787
   3.16689391  2.80459491  6.27320148
   5.55647124  1.41107092  6.19123847
   2.35127241  4.22326016  8.40774948
   4.75563640  5.55524603  8.53794544
   2.35451098  1.39409954  8.52254147
   7.21235286  4.19589092  8.47174816
   2.34459770  7.04173506  8.41286362
   4.66121153 -0.00779945  8.53764138
   7.28468057  1.40250752  8.50888636
   7.25391862 -1.48421703  8.49335198
   4.76557179  2.82250055  8.51212906
 


--------------------------------------------------------------------------------------------------------


 k-point  1 :   0.0000 0.0000 0.0000  plane waves:   29241
 k-point  2 :   0.5000 0.0000 0.0000  plane waves:   29108
 k-point  3 :  -0.0000 0.5000 0.0000  plane waves:   29108
 k-point  4 :   0.5000 0.5000 0.0000  plane waves:   29108

 maximum and minimum number of plane-waves per node :     14624    14548

 maximum number of plane-waves:     29241
 maximum index in each direction: 
   IXMAX=   14   IYMAX=   14   IZMAX=   37
   IXMIN=  -15   IYMIN=  -15   IZMIN=  -37


 real space projection operators:
  total allocation   :      13560.52 KBytes
  max/ min on nodes  :       6790.11       6770.41


 parallel 3D FFT for wavefunctions:
    minimum data exchange during FFTs selected (reduces bandwidth)
 parallel 3D FFT for charge:
    minimum data exchange during FFTs selected (reduces bandwidth)


 total amount of memory used by VASP MPI-rank0   131959. kBytes
=======================================================================

   base      :      30000. kBytes
   nonlr-proj:      10151. kBytes
   fftplans  :      13556. kBytes
   grid      :      23353. kBytes
   one-center:        311. kBytes
   wavefun   :      54588. kBytes
 
     INWAV:  cpu time    0.0000: real time    0.0000
 Broyden mixing: mesh for mixing (old mesh)
   NGX = 29   NGY = 29   NGZ = 75
  (NGX  = 96   NGY  = 96   NGZ  =240)
  gives a total of  63075 points

 initial charge density was supplied:
 charge density of overlapping atoms calculated
 number of electron     376.0000000 magnetization 
 keeping initial charge density in first step


--------------------------------------------------------------------------------------------------------


 Maximum index for non-local projection operator         1326
 Maximum index for augmentation-charges         1558 (set IRDMAX)


--------------------------------------------------------------------------------------------------------


 First call to EWALD:  gamma=   0.161
 Maximum number of real-space cells 4x 4x 2
 Maximum number of reciprocal cells 2x 2x 5

    FEWALD:  cpu time    0.0023: real time    0.0023


--------------------------------------- Iteration      1(   1)  ---------------------------------------


    POTLOK:  cpu time    0.1304: real time    0.3174
    SETDIJ:  cpu time    0.0103: real time    0.0104
     EDDAV:  cpu time    8.3085: real time    8.3673
       DOS:  cpu time    0.0010: real time    0.0010
    --------------------------------------------
      LOOP:  cpu time    8.4502: real time    8.6961

 eigenvalue-minimisations  :  1824
 total energy-change (2. order) : 0.2415903E+04  (-0.1594939E+05)
 number of electron     376.0000000 magnetization 
 augmentation part      376.0000000 magnetization 

 Free energy of the ion-electron system (eV)
  ---------------------------------------------------
  alpha Z        PSCENC =       975.10247152
  Ewald energy   TEWEN  =     91195.57412748
  -Hartree energ DENC   =   -120289.85891016
  -exchange      EXHF   =         0.00000000
  -V(xc)+E(xc)   XCENC  =       189.28248116
  PAW double counting   =     24789.08602224   -23775.73976456
  entropy T*S    EENTRO =         0.01450793
  eigenvalues    EBANDS =      2072.54801685
  atomic energy  EATOM  =     27259.89416086
  Solvation  Ediel_sol  =         0.00000000
  ---------------------------------------------------
  free energy    TOTEN  =      2415.90311332 eV

  energy without entropy =     2415.88860539  energy(sigma->0) =     2415.89827735


--------------------------------------------------------------------------------------------------------




--------------------------------------- Iteration      1(   2)  ---------------------------------------


     EDDAV:  cpu time    8.8362: real time    8.8964
       DOS:  cpu time    0.0010: real time    0.0010
    --------------------------------------------
      LOOP:  cpu time    8.8372: real time    8.8975

 eigenvalue-minimisations  :  2120
 total energy-change (2. order) :-0.2480052E+04  (-0.2303879E+04)
 number of electron     376.0000000 magnetization 
 augmentation part      376.0000000 magnetization 

 Free energy of the ion-electron system (eV)
  ---------------------------------------------------
  alpha Z        PSCENC =       975.10247152
  Ewald energy   TEWEN  =     91195.57412748
  -Hartree energ DENC   =   -120289.85891016
  -exchange      EXHF   =         0.00000000
  -V(xc)+E(xc)   XCENC  =       189.28248116
  PAW double counting   =     24789.08602224   -23775.73976456
  entropy T*S    EENTRO =        -0.03146336
  eigenvalues    EBANDS =      -407.45822141
  atomic energy  EATOM  =     27259.89416086
  Solvation  Ediel_sol  =         0.00000000
  ---------------------------------------------------
  free energy    TOTEN  =       -64.14909622 eV

  energy without entropy =      -64.11763287  energy(sigma->0) =      -64.13860844


--------------------------------------------------------------------------------------------------------




--------------------------------------- Iteration      1(   3)  ---------------------------------------


     EDDAV:  cpu time    9.1641: real time    9.2278
       DOS:  cpu time    0.0010: real time    0.0010
    --------------------------------------------
      LOOP:  cpu time    9.1651: real time    9.2288

 eigenvalue-minimisations  :  2152
 total energy-change (2. order) :-0.1762960E+03  (-0.1596567E+03)
 number of electron     376.0000000 magnetization 
 augmentation part      376.0000000 magnetization 

 Free energy of the ion-electron system (eV)
  ---------------------------------------------------
  alpha Z        PSCENC =       975.10247152
  Ewald energy   TEWEN  =     91195.57412748
  -Hartree energ DENC   =   -120289.85891016
  -exchange      EXHF   =         0.00000000
  -V(xc)+E(xc)   XCENC  =       189.28248116
  PAW double counting   =     24789.08602224   -23775.73976456
  entropy T*S    EENTRO =         0.00391749
  eigenvalues    EBANDS =      -583.78960245
  atomic energy  EATOM  =     27259.89416086
  Solvation  Ediel_sol  =         0.00000000
  ---------------------------------------------------
  free energy    TOTEN  =      -240.44509642 eV

  energy without entropy =     -240.44901391  energy(sigma->0) =     -240.44640225


--------------------------------------------------------------------------------------------------------




--------------------------------------- Iteration      1(   4)  ---------------------------------------


     EDDAV:  cpu time   10.0183: real time   10.0888
       DOS:  cpu time    0.0011: real time    0.0011
    --------------------------------------------
      LOOP:  cpu time   10.0194: real time   10.0899

 eigenvalue-minimisations  :  2336
 total energy-change (2. order) :-0.7678098E+01  (-0.7409353E+01)
 number of electron     376.0000000 magnetization 
 augmentation part      376.0000000 magnetization 

 Free energy of the ion-electron system (eV)
  ---------------------------------------------------
  alpha Z        PSCENC =       975.10247152
  Ewald energy   TEWEN  =     91195.57412748
  -Hartree energ DENC   =   -120289.85891016
  -exchange      EXHF   =         0.00000000
  -V(xc)+E(xc)   XCENC  =       189.28248116
  PAW double counting   =     24789.08602224   -23775.73976456
  entropy T*S    EENTRO =         0.00562401
  eigenvalues    EBANDS =      -591.46940732
  atomic energy  EATOM  =     27259.89416086
  Solvation  Ediel_sol  =         0.00000000
  ---------------------------------------------------
  free energy    TOTEN  =      -248.12319477 eV

  energy without entropy =     -248.12881878  energy(sigma->0) =     -248.12506944


--------------------------------------------------------------------------------------------------------




--------------------------------------- Iteration      1(   5)  ---------------------------------------


     EDDAV:  cpu time   10.2465: real time   10.3181
       DOS:  cpu time    0.0010: real time    0.0010
    CHARGE:  cpu time    0.3737: real time    0.3762
    MIXING:  cpu time    0.0062: real time    0.0063
    --------------------------------------------
      LOOP:  cpu time   10.6274: real time   10.7016

 eigenvalue-minimisations  :  2456
 total energy-change (2. order) :-0.2266556E+00  (-0.2242640E+00)
 number of electron     376.0000040 magnetization 
 augmentation part      105.8115019 magnetization 

 Broyden mixing:
  rms(total) = 0.27250E+01    rms(broyden)= 0.27247E+01
  rms(prec ) = 0.30426E+01
  weight for this iteration     100.00

 Free energy of the ion-electron system (eV)
  ---------------------------------------------------
  alpha Z        PSCENC =       975.10247152
  Ewald energy   TEWEN  =     91195.57412748
  -Hartree energ DENC   =   -120289.85891016
  -exchange      EXHF   =         0.00000000
  -V(xc)+E(xc)   XCENC  =       189.28248116
  PAW double counting   =     24789.08602224   -23775.73976456
  entropy T*S    EENTRO =         0.00580079
  eigenvalues    EBANDS =      -591.69623975
  atomic energy  EATOM  =     27259.89416086
  Solvation  Ediel_sol  =         0.00000000
  ---------------------------------------------------
  free energy    TOTEN  =      -248.34985042 eV

  energy without entropy =     -248.35565121  energy(sigma->0) =     -248.35178402


--------------------------------------------------------------------------------------------------------




--------------------------------------- Iteration      1(   6)  ---------------------------------------


    POTLOK:  cpu time    0.1250: real time    0.1257
    SETDIJ:  cpu time    0.0108: real time    0.0109
    EDDIAG:  cpu time    1.2266: real time    1.2346
  RMM-DIIS:  cpu time    4.5216: real time    4.5540
    ORTHCH:  cpu time    0.2201: real time    0.2215
       DOS:  cpu time    0.0011: real time    0.0011
    CHARGE:  cpu time    0.3718: real time    0.3741
    MIXING:  cpu time    0.0054: real time    0.0055
    --------------------------------------------
      LOOP:  cpu time    6.4823: real time    6.5273

 eigenvalue-minimisations  :  1831
 total energy-change (2. order) : 0.1529381E+01  (-0.5342180E+01)
 number of electron     376.0000040 magnetization 
 augmentation part      112.9997577 magnetization 

 Broyden mixing:
  rms(total) = 0.30259E+01    rms(broyden)= 0.30250E+01
  rms(prec ) = 0.39726E+01
  weight for this iteration     100.00

 eigenvalues of (default mixing * dielectric matrix)
  average eigenvalue GAMMA=   0.4761
  0.4761

 Free energy of the ion-electron system (eV)
  ---------------------------------------------------
  alpha Z        PSCENC =       975.10247152
  Ewald energy   TEWEN  =     91195.57412748
  -Hartree energ DENC   =   -119819.61402776
  -exchange      EXHF   =         0.00000000
  -V(xc)+E(xc)   XCENC  =       182.13799250
  PAW double counting   =     26700.38222332   -25740.48686512
  entropy T*S    EENTRO =        -0.18679636
  eigenvalues    EBANDS =      -999.62375539
  atomic energy  EATOM  =     27259.89416086
  Solvation  Ediel_sol  =         0.00000000
  ---------------------------------------------------
  free energy    TOTEN  =      -246.82046894 eV

  energy without entropy =     -246.63367258  energy(sigma->0) =     -246.75820349


--------------------------------------------------------------------------------------------------------




--------------------------------------- Iteration      1(   7)  ---------------------------------------


    POTLOK:  cpu time    0.1148: real time    0.1155
    SETDIJ:  cpu time    0.0098: real time    0.0099
    EDDIAG:  cpu time    1.2595: real time    1.2678
  RMM-DIIS:  cpu time    4.3801: real time    4.4108
    ORTHCH:  cpu time    0.2203: real time    0.2216
       DOS:  cpu time    0.0010: real time    0.0010
    CHARGE:  cpu time    0.3798: real time    0.3824
    MIXING:  cpu time    0.0041: real time    0.0041
    --------------------------------------------
      LOOP:  cpu time    6.3695: real time    6.4133

 eigenvalue-minimisations  :  1830
 total energy-change (2. order) : 0.8856277E+01  (-0.3270913E+01)
 number of electron     376.0000049 magnetization 
 augmentation part      111.3421511 magnetization 

 Broyden mixing:
  rms(total) = 0.17840E+01    rms(broyden)= 0.17829E+01
  rms(prec ) = 0.25384E+01
  weight for this iteration     100.00

 eigenvalues of (default mixing * dielectric matrix)
  average eigenvalue GAMMA=   0.6685
  1.0719  0.2652

 Free energy of the ion-electron system (eV)
  ---------------------------------------------------
  alpha Z        PSCENC =       975.10247152
  Ewald energy   TEWEN  =     91195.57412748
  -Hartree energ DENC   =   -120022.24004250
  -exchange      EXHF   =         0.00000000
  -V(xc)+E(xc)   XCENC  =       179.73921860
  PAW double counting   =     27345.96307672   -26393.28572272
  entropy T*S    EENTRO =        -0.09508258
  eigenvalues    EBANDS =      -778.61639946
  atomic energy  EATOM  =     27259.89416086
  Solvation  Ediel_sol  =         0.00000000
  ---------------------------------------------------
  free energy    TOTEN  =      -237.96419206 eV

  energy without entropy =     -237.86910948  energy(sigma->0) =     -237.93249787


--------------------------------------------------------------------------------------------------------




--------------------------------------- Iteration      1(   8)  ---------------------------------------


    POTLOK:  cpu time    0.1148: real time    0.1154
    SETDIJ:  cpu time    0.0098: real time    0.0098
    EDDIAG:  cpu time    1.2392: real time    1.2476
  RMM-DIIS:  cpu time    4.6157: real time    4.6488
    ORTHCH:  cpu time    0.2241: real time    0.2255
       DOS:  cpu time    0.0010: real time    0.0010
    CHARGE:  cpu time    0.3896: real time    0.3923
    MIXING:  cpu time    0.0039: real time    0.0039
    --------------------------------------------
      LOOP:  cpu time    6.5981: real time    6.6444

 eigenvalue-minimisations  :  1831
 total energy-change (2. order) :-0.6531918E+01  (-0.7992491E+00)
 number of electron     376.0000041 magnetization 
 augmentation part      112.4411383 magnetization 

 Broyden mixing:
  rms(total) = 0.25348E+01    rms(broyden)= 0.25346E+01
  rms(prec ) = 0.47895E+01
  weight for this iteration     100.00

 eigenvalues of (default mixing * dielectric matrix)
  average eigenvalue GAMMA=   0.5556
  1.2295  0.2870  0.1504

 Free energy of the ion-electron system (eV)
  ---------------------------------------------------
  alpha Z        PSCENC =       975.10247152
  Ewald energy   TEWEN  =     91195.57412748
  -Hartree energ DENC   =   -119921.61130321
  -exchange      EXHF   =         0.00000000
  -V(xc)+E(xc)   XCENC  =       178.41617470
  PAW double counting   =     28253.97815864   -27315.85863060
  entropy T*S    EENTRO =         0.06258624
  eigenvalues    EBANDS =      -870.05385549
  atomic energy  EATOM  =     27259.89416086
  Solvation  Ediel_sol  =         0.00000000
  ---------------------------------------------------
  free energy    TOTEN  =      -244.49610985 eV

  energy without entropy =     -244.55869608  energy(sigma->0) =     -244.51697193


--------------------------------------------------------------------------------------------------------




--------------------------------------- Iteration      1(   9)  ---------------------------------------


    POTLOK:  cpu time    0.1270: real time    0.1278
    SETDIJ:  cpu time    0.0098: real time    0.0099
    EDDIAG:  cpu time    1.2564: real time    1.2649
  RMM-DIIS:  cpu time    4.5414: real time    4.5738
    ORTHCH:  cpu time    0.2220: real time    0.2235
       DOS:  cpu time    0.0011: real time    0.0011
    CHARGE:  cpu time    0.3798: real time    0.3824
    MIXING:  cpu time    0.0045: real time    0.0046
    --------------------------------------------
      LOOP:  cpu time    6.5421: real time    6.5880

 eigenvalue-minimisations  :  1832
 total energy-change (2. order) : 0.1287776E+02  (-0.3335319E+00)
 number of electron     376.0000045 magnetization 
 augmentation part      112.6902417 magnetization 

 Broyden mixing:
  rms(total) = 0.92693E+00    rms(broyden)= 0.92667E+00
  rms(prec ) = 0.13805E+01
  weight for this iteration     100.00

 eigenvalues of (default mixing * dielectric matrix)
  average eigenvalue GAMMA=   0.5211
  1.3182  0.3286  0.3286  0.1090

 Free energy of the ion-electron system (eV)
  ---------------------------------------------------
  alpha Z        PSCENC =       975.10247152
  Ewald energy   TEWEN  =     91195.57412748
  -Hartree energ DENC   =   -119914.15982093
  -exchange      EXHF   =         0.00000000
  -V(xc)+E(xc)   XCENC  =       178.07226937
  PAW double counting   =     28681.59300023   -27750.06308158
  entropy T*S    EENTRO =        -0.03164111
  eigenvalues    EBANDS =      -857.59983638
  atomic energy  EATOM  =     27259.89416086
  Solvation  Ediel_sol  =         0.00000000
  ---------------------------------------------------
  free energy    TOTEN  =      -231.61835053 eV

  energy without entropy =     -231.58670942  energy(sigma->0) =     -231.60780349


--------------------------------------------------------------------------------------------------------




--------------------------------------- Iteration      1(  10)  ---------------------------------------


    POTLOK:  cpu time    0.1273: real time    0.1281
    SETDIJ:  cpu time    0.0099: real time    0.0100
    EDDIAG:  cpu time    1.2224: real time    1.2306
  RMM-DIIS:  cpu time    4.3598: real time    4.3907
    ORTHCH:  cpu time    0.2211: real time    0.2225
       DOS:  cpu time    0.0011: real time    0.0011
    CHARGE:  cpu time    0.3514: real time    0.3537
    MIXING:  cpu time    0.0048: real time    0.0048
    --------------------------------------------
      LOOP:  cpu time    6.2978: real time    6.3414

 eigenvalue-minimisations  :  1830
 total energy-change (2. order) : 0.1240257E+01  (-0.1276994E+00)
 number of electron     376.0000044 magnetization 
 augmentation part      112.7639641 magnetization 

 Broyden mixing:
  rms(total) = 0.48359E+00    rms(broyden)= 0.48349E+00
  rms(prec ) = 0.64172E+00
  weight for this iteration     100.00

 eigenvalues of (default mixing * dielectric matrix)
  average eigenvalue GAMMA=   0.5589
  1.4200  0.6254  0.3914  0.2464  0.1111

 Free energy of the ion-electron system (eV)
  ---------------------------------------------------
  alpha Z        PSCENC =       975.10247152
  Ewald energy   TEWEN  =     91195.57412748
  -Hartree energ DENC   =   -119919.85356158
  -exchange      EXHF   =         0.00000000
  -V(xc)+E(xc)   XCENC  =       178.00192077
  PAW double counting   =     28976.09530336   -28048.76164552
  entropy T*S    EENTRO =        -0.02008700
  eigenvalues    EBANDS =      -846.41078372
  atomic energy  EATOM  =     27259.89416086
  Solvation  Ediel_sol  =         0.00000000
  ---------------------------------------------------
  free energy    TOTEN  =      -230.37809382 eV

  energy without entropy =     -230.35800683  energy(sigma->0) =     -230.37139816


--------------------------------------------------------------------------------------------------------




--------------------------------------- Iteration      1(  11)  ---------------------------------------


    POTLOK:  cpu time    0.1153: real time    0.1160
    SETDIJ:  cpu time    0.0097: real time    0.0097
    EDDIAG:  cpu time    1.2201: real time    1.2281
  RMM-DIIS:  cpu time    4.4587: real time    4.4908
    ORTHCH:  cpu time    0.2214: real time    0.2228
       DOS:  cpu time    0.0011: real time    0.0011
    CHARGE:  cpu time    0.3779: real time    0.3805
    MIXING:  cpu time    0.0049: real time    0.0049
    --------------------------------------------
      LOOP:  cpu time    6.4090: real time    6.4539

 eigenvalue-minimisations  :  1830
 total energy-change (2. order) : 0.4238037E+00  (-0.4144357E-01)
 number of electron     376.0000043 magnetization 
 augmentation part      112.9418787 magnetization 

 Broyden mixing:
  rms(total) = 0.30012E+00    rms(broyden)= 0.29986E+00
  rms(prec ) = 0.41335E+00
  weight for this iteration     100.00

 eigenvalues of (default mixing * dielectric matrix)
  average eigenvalue GAMMA=   0.5767
  1.5028  0.7729  0.4158  0.4158  0.2429  0.1099

 Free energy of the ion-electron system (eV)
  ---------------------------------------------------
  alpha Z        PSCENC =       975.10247152
  Ewald energy   TEWEN  =     91195.57412748
  -Hartree energ DENC   =   -119902.39855879
  -exchange      EXHF   =         0.00000000
  -V(xc)+E(xc)   XCENC  =       177.98294914
  PAW double counting   =     29302.93685693   -28379.80467964
  entropy T*S    EENTRO =        -0.03273213
  eigenvalues    EBANDS =      -859.20888545
  atomic energy  EATOM  =     27259.89416086
  Solvation  Ediel_sol  =         0.00000000
  ---------------------------------------------------
  free energy    TOTEN  =      -229.95429008 eV

  energy without entropy =     -229.92155794  energy(sigma->0) =     -229.94337937


--------------------------------------------------------------------------------------------------------




--------------------------------------- Iteration      1(  12)  ---------------------------------------


    POTLOK:  cpu time    0.1276: real time    0.1284
    SETDIJ:  cpu time    0.0098: real time    0.0098
    EDDIAG:  cpu time    1.2278: real time    1.2360
  RMM-DIIS:  cpu time    4.4003: real time    4.4309
    ORTHCH:  cpu time    0.2215: real time    0.2228
       DOS:  cpu time    0.0011: real time    0.0011
    CHARGE:  cpu time    0.3766: real time    0.3793
    MIXING:  cpu time    0.0058: real time    0.0058
    --------------------------------------------
      LOOP:  cpu time    6.3706: real time    6.4142

 eigenvalue-minimisations  :  1836
 total energy-change (2. order) : 0.8912357E-01  (-0.1502740E-01)
 number of electron     376.0000043 magnetization 
 augmentation part      112.9706058 magnetization 

 Broyden mixing:
  rms(total) = 0.23069E+00    rms(broyden)= 0.23066E+00
  rms(prec ) = 0.30859E+00
  weight for this iteration     100.00

 eigenvalues of (default mixing * dielectric matrix)
  average eigenvalue GAMMA=   0.6460
  1.6910  0.9660  0.7854  0.4432  0.1101  0.2428  0.2838

 Free energy of the ion-electron system (eV)
  ---------------------------------------------------
  alpha Z        PSCENC =       975.10247152
  Ewald energy   TEWEN  =     91195.57412748
  -Hartree energ DENC   =   -119898.06018743
  -exchange      EXHF   =         0.00000000
  -V(xc)+E(xc)   XCENC  =       177.93033097
  PAW double counting   =     29502.29451263   -28581.58126157
  entropy T*S    EENTRO =        -0.02381286
  eigenvalues    EBANDS =      -860.99550811
  atomic energy  EATOM  =     27259.89416086
  Solvation  Ediel_sol  =         0.00000000
  ---------------------------------------------------
  free energy    TOTEN  =      -229.86516651 eV

  energy without entropy =     -229.84135365  energy(sigma->0) =     -229.85722889


--------------------------------------------------------------------------------------------------------




--------------------------------------- Iteration      1(  13)  ---------------------------------------


    POTLOK:  cpu time    0.1273: real time    0.1281
    SETDIJ:  cpu time    0.0100: real time    0.0101
    EDDIAG:  cpu time    1.2129: real time    1.2204
  RMM-DIIS:  cpu time    4.5751: real time    4.6079
    ORTHCH:  cpu time    0.2266: real time    0.2281
       DOS:  cpu time    0.0011: real time    0.0011
    CHARGE:  cpu time    0.3926: real time    0.3952
    MIXING:  cpu time    0.0064: real time    0.0064
    --------------------------------------------
      LOOP:  cpu time    6.5521: real time    6.5974

 eigenvalue-minimisations  :  1830
 total energy-change (2. order) : 0.4394811E-01  (-0.1065533E-01)
 number of electron     376.0000043 magnetization 
 augmentation part      112.9629494 magnetization 

 Broyden mixing:
  rms(total) = 0.16662E+00    rms(broyden)= 0.16661E+00
  rms(prec ) = 0.19920E+00
  weight for this iteration     100.00

 eigenvalues of (default mixing * dielectric matrix)
  average eigenvalue GAMMA=   0.7145
  2.1154  1.2407  0.9165  0.4223  0.4223  0.1101  0.2551  0.2332

 Free energy of the ion-electron system (eV)
  ---------------------------------------------------
  alpha Z        PSCENC =       975.10247152
  Ewald energy   TEWEN  =     91195.57412748
  -Hartree energ DENC   =   -119899.45793978
  -exchange      EXHF   =         0.00000000
  -V(xc)+E(xc)   XCENC  =       177.82842693
  PAW double counting   =     29762.67802226   -28845.04005373
  entropy T*S    EENTRO =        -0.02001640
  eigenvalues    EBANDS =      -856.38041754
  atomic energy  EATOM  =     27259.89416086
  Solvation  Ediel_sol  =         0.00000000
  ---------------------------------------------------
  free energy    TOTEN  =      -229.82121840 eV

  energy without entropy =     -229.80120200  energy(sigma->0) =     -229.81454627


--------------------------------------------------------------------------------------------------------




--------------------------------------- Iteration      1(  14)  ---------------------------------------


    POTLOK:  cpu time    0.1376: real time    0.1384
    SETDIJ:  cpu time    0.0098: real time    0.0098
    EDDIAG:  cpu time    1.2849: real time    1.2935
  RMM-DIIS:  cpu time    4.5424: real time    4.5748
    ORTHCH:  cpu time    0.2225: real time    0.2238
       DOS:  cpu time    0.0011: real time    0.0011
    CHARGE:  cpu time    0.3928: real time    0.3957
    MIXING:  cpu time    0.0056: real time    0.0056
    --------------------------------------------
      LOOP:  cpu time    6.5967: real time    6.6428

 eigenvalue-minimisations  :  1831
 total energy-change (2. order) : 0.2053271E-01  (-0.1050513E-01)
 number of electron     376.0000043 magnetization 
 augmentation part      112.9318380 magnetization 

 Broyden mixing:
  rms(total) = 0.14270E+00    rms(broyden)= 0.14258E+00
  rms(prec ) = 0.17543E+00
  weight for this iteration     100.00

 eigenvalues of (default mixing * dielectric matrix)
  average eigenvalue GAMMA=   0.7169
  2.4044  1.2370  0.8763  0.5652  0.4731  0.1101  0.3093  0.2509  0.2257

 Free energy of the ion-electron system (eV)
  ---------------------------------------------------
  alpha Z        PSCENC =       975.10247152
  Ewald energy   TEWEN  =     91195.57412748
  -Hartree energ DENC   =   -119899.22300925
  -exchange      EXHF   =         0.00000000
  -V(xc)+E(xc)   XCENC  =       177.73954282
  PAW double counting   =     29963.04587139   -29047.68961744
  entropy T*S    EENTRO =        -0.01440972
  eigenvalues    EBANDS =      -854.22982336
  atomic energy  EATOM  =     27259.89416086
  Solvation  Ediel_sol  =         0.00000000
  ---------------------------------------------------
  free energy    TOTEN  =      -229.80068569 eV

  energy without entropy =     -229.78627597  energy(sigma->0) =     -229.79588245


--------------------------------------------------------------------------------------------------------




--------------------------------------- Iteration      1(  15)  ---------------------------------------


    POTLOK:  cpu time    0.1321: real time    0.1329
    SETDIJ:  cpu time    0.0093: real time    0.0093
    EDDIAG:  cpu time    1.2762: real time    1.2845
  RMM-DIIS:  cpu time    4.4620: real time    4.4944
    ORTHCH:  cpu time    0.2120: real time    0.2132
       DOS:  cpu time    0.0011: real time    0.0011
    CHARGE:  cpu time    0.3472: real time    0.3495
    MIXING:  cpu time    0.0057: real time    0.0057
    --------------------------------------------
      LOOP:  cpu time    6.4455: real time    6.4906

 eigenvalue-minimisations  :  1831
 total energy-change (2. order) : 0.2117384E-01  (-0.2920336E-02)
 number of electron     376.0000043 magnetization 
 augmentation part      112.9728469 magnetization 

 Broyden mixing:
  rms(total) = 0.57990E-01    rms(broyden)= 0.57904E-01
  rms(prec ) = 0.73240E-01
  weight for this iteration     100.00

 eigenvalues of (default mixing * dielectric matrix)
  average eigenvalue GAMMA=   0.7007
  2.4511  1.2125  0.8001  0.8001  0.4372  0.4372  0.1101  0.2838  0.2522  0.2223

 Free energy of the ion-electron system (eV)
  ---------------------------------------------------
  alpha Z        PSCENC =       975.10247152
  Ewald energy   TEWEN  =     91195.57412748
  -Hartree energ DENC   =   -119898.96233162
  -exchange      EXHF   =         0.00000000
  -V(xc)+E(xc)   XCENC  =       177.74757212
  PAW double counting   =     30036.11833027   -29121.61919913
  entropy T*S    EENTRO =        -0.01771353
  eigenvalues    EBANDS =      -853.61692984
  atomic energy  EATOM  =     27259.89416086
  Solvation  Ediel_sol  =         0.00000000
  ---------------------------------------------------
  free energy    TOTEN  =      -229.77951185 eV

  energy without entropy =     -229.76179833  energy(sigma->0) =     -229.77360734


--------------------------------------------------------------------------------------------------------




--------------------------------------- Iteration      1(  16)  ---------------------------------------


    POTLOK:  cpu time    0.1285: real time    0.1293
    SETDIJ:  cpu time    0.0097: real time    0.0098
    EDDIAG:  cpu time    1.1652: real time    1.1728
  RMM-DIIS:  cpu time    4.4399: real time    4.4710
    ORTHCH:  cpu time    0.2206: real time    0.2221
       DOS:  cpu time    0.0011: real time    0.0011
    CHARGE:  cpu time    0.3761: real time    0.3785
    MIXING:  cpu time    0.0061: real time    0.0061
    --------------------------------------------
      LOOP:  cpu time    6.3472: real time    6.3908

 eigenvalue-minimisations  :  1831
 total energy-change (2. order) : 0.3344352E-02  (-0.8845794E-03)
 number of electron     376.0000043 magnetization 
 augmentation part      112.9725957 magnetization 

 Broyden mixing:
  rms(total) = 0.35350E-01    rms(broyden)= 0.35343E-01
  rms(prec ) = 0.44189E-01
  weight for this iteration     100.00

 eigenvalues of (default mixing * dielectric matrix)
  average eigenvalue GAMMA=   0.7209
  2.4376  1.1100  1.1100  1.0297  0.5578  0.5034  0.1101  0.3366  0.2651  0.2496
  0.2202

 Free energy of the ion-electron system (eV)
  ---------------------------------------------------
  alpha Z        PSCENC =       975.10247152
  Ewald energy   TEWEN  =     91195.57412748
  -Hartree energ DENC   =   -119899.45946817
  -exchange      EXHF   =         0.00000000
  -V(xc)+E(xc)   XCENC  =       177.74975442
  PAW double counting   =     30048.11903634   -29133.72520560
  entropy T*S    EENTRO =        -0.01636068
  eigenvalues    EBANDS =      -853.01468368
  atomic energy  EATOM  =     27259.89416086
  Solvation  Ediel_sol  =         0.00000000
  ---------------------------------------------------
  free energy    TOTEN  =      -229.77616750 eV

  energy without entropy =     -229.75980682  energy(sigma->0) =     -229.77071394


--------------------------------------------------------------------------------------------------------




--------------------------------------- Iteration      1(  17)  ---------------------------------------


    POTLOK:  cpu time    0.1318: real time    0.1326
    SETDIJ:  cpu time    0.0096: real time    0.0097
    EDDIAG:  cpu time    1.2599: real time    1.2683
  RMM-DIIS:  cpu time    4.3098: real time    4.3400
    ORTHCH:  cpu time    0.2210: real time    0.2223
       DOS:  cpu time    0.0011: real time    0.0011
    CHARGE:  cpu time    0.3768: real time    0.3794
    MIXING:  cpu time    0.0065: real time    0.0065
    --------------------------------------------
      LOOP:  cpu time    6.3165: real time    6.3599

 eigenvalue-minimisations  :  1829
 total energy-change (2. order) : 0.1673343E-03  (-0.3748004E-03)
 number of electron     376.0000043 magnetization 
 augmentation part      112.9627363 magnetization 

 Broyden mixing:
  rms(total) = 0.28404E-01    rms(broyden)= 0.28398E-01
  rms(prec ) = 0.34568E-01
  weight for this iteration     100.00

 eigenvalues of (default mixing * dielectric matrix)
  average eigenvalue GAMMA=   0.7274
  2.4424  1.3400  1.3400  0.9731  0.6729  0.4199  0.4199  0.1101  0.2858  0.2640
  0.2398  0.2206

 Free energy of the ion-electron system (eV)
  ---------------------------------------------------
  alpha Z        PSCENC =       975.10247152
  Ewald energy   TEWEN  =     91195.57412748
  -Hartree energ DENC   =   -119901.03718582
  -exchange      EXHF   =         0.00000000
  -V(xc)+E(xc)   XCENC  =       177.75030711
  PAW double counting   =     30049.12095169   -29134.68192587
  entropy T*S    EENTRO =        -0.01716826
  eigenvalues    EBANDS =      -851.48173889
  atomic energy  EATOM  =     27259.89416086
  Solvation  Ediel_sol  =         0.00000000
  ---------------------------------------------------
  free energy    TOTEN  =      -229.77600017 eV

  energy without entropy =     -229.75883191  energy(sigma->0) =     -229.77027741


--------------------------------------------------------------------------------------------------------




--------------------------------------- Iteration      1(  18)  ---------------------------------------


    POTLOK:  cpu time    0.1308: real time    0.1315
    SETDIJ:  cpu time    0.0097: real time    0.0097
    EDDIAG:  cpu time    1.2591: real time    1.2671
  RMM-DIIS:  cpu time    4.4714: real time    4.5035
    ORTHCH:  cpu time    0.2210: real time    0.2223
       DOS:  cpu time    0.0011: real time    0.0011
    CHARGE:  cpu time    0.3770: real time    0.3795
    MIXING:  cpu time    0.0070: real time    0.0070
    --------------------------------------------
      LOOP:  cpu time    6.4770: real time    6.5218

 eigenvalue-minimisations  :  1817
 total energy-change (2. order) : 0.5672161E-03  (-0.1766661E-03)
 number of electron     376.0000043 magnetization 
 augmentation part      112.9595986 magnetization 

 Broyden mixing:
  rms(total) = 0.17572E-01    rms(broyden)= 0.17569E-01
  rms(prec ) = 0.22716E-01
  weight for this iteration     100.00

 eigenvalues of (default mixing * dielectric matrix)
  average eigenvalue GAMMA=   0.7312
  2.5503  1.2921  1.2597  1.2597  0.7455  0.4741  0.4741  0.1101  0.3463  0.2853
  0.2516  0.2374  0.2191

 Free energy of the ion-electron system (eV)
  ---------------------------------------------------
  alpha Z        PSCENC =       975.10247152
  Ewald energy   TEWEN  =     91195.57412748
  -Hartree energ DENC   =   -119902.36218933
  -exchange      EXHF   =         0.00000000
  -V(xc)+E(xc)   XCENC  =       177.75349603
  PAW double counting   =     30049.90517399   -29135.43037245
  entropy T*S    EENTRO =        -0.01628258
  eigenvalues    EBANDS =      -850.19601848
  atomic energy  EATOM  =     27259.89416086
  Solvation  Ediel_sol  =         0.00000000
  ---------------------------------------------------
  free energy    TOTEN  =      -229.77543295 eV

  energy without entropy =     -229.75915037  energy(sigma->0) =     -229.77000542


--------------------------------------------------------------------------------------------------------




--------------------------------------- Iteration      1(  19)  ---------------------------------------


    POTLOK:  cpu time    0.1349: real time    0.1357
    SETDIJ:  cpu time    0.0104: real time    0.0105
    EDDIAG:  cpu time    1.3427: real time    1.3518
  RMM-DIIS:  cpu time    3.7051: real time    3.7316
    ORTHCH:  cpu time    0.2210: real time    0.2224
       DOS:  cpu time    0.0011: real time    0.0011
    CHARGE:  cpu time    0.3825: real time    0.3851
    MIXING:  cpu time    0.0060: real time    0.0060
    --------------------------------------------
      LOOP:  cpu time    5.8036: real time    5.8441

 eigenvalue-minimisations  :  1427
 total energy-change (2. order) : 0.1449003E-03  (-0.4587088E-04)
 number of electron     376.0000043 magnetization 
 augmentation part      112.9619090 magnetization 

 Broyden mixing:
  rms(total) = 0.94742E-02    rms(broyden)= 0.94725E-02
  rms(prec ) = 0.11803E-01
  weight for this iteration     100.00

 eigenvalues of (default mixing * dielectric matrix)
  average eigenvalue GAMMA=   0.7468
  2.6482  1.5237  1.3121  1.3121  0.8018  0.5188  0.5188  0.1101  0.4065  0.3191
  0.2808  0.2503  0.2189  0.2344

 Free energy of the ion-electron system (eV)
  ---------------------------------------------------
  alpha Z        PSCENC =       975.10247152
  Ewald energy   TEWEN  =     91195.57412748
  -Hartree energ DENC   =   -119902.71686171
  -exchange      EXHF   =         0.00000000
  -V(xc)+E(xc)   XCENC  =       177.75786482
  PAW double counting   =     30053.89736396   -29139.44476781
  entropy T*S    EENTRO =        -0.01686092
  eigenvalues    EBANDS =      -849.82278626
  atomic energy  EATOM  =     27259.89416086
  Solvation  Ediel_sol  =         0.00000000
  ---------------------------------------------------
  free energy    TOTEN  =      -229.77528805 eV

  energy without entropy =     -229.75842713  energy(sigma->0) =     -229.76966774


--------------------------------------------------------------------------------------------------------




--------------------------------------- Iteration      1(  20)  ---------------------------------------


    POTLOK:  cpu time    0.1237: real time    0.1245
    SETDIJ:  cpu time    0.0101: real time    0.0101
    EDDIAG:  cpu time    1.2808: real time    1.2892
  RMM-DIIS:  cpu time    2.7847: real time    2.8046
    ORTHCH:  cpu time    0.2197: real time    0.2210
       DOS:  cpu time    0.0011: real time    0.0011
    CHARGE:  cpu time    0.3702: real time    0.3727
    MIXING:  cpu time    0.0072: real time    0.0073
    --------------------------------------------
      LOOP:  cpu time    4.7974: real time    4.8304

 eigenvalue-minimisations  :  1069
 total energy-change (2. order) :-0.1667449E-03  (-0.2005152E-04)
 number of electron     376.0000043 magnetization 
 augmentation part      112.9648934 magnetization 

 Broyden mixing:
  rms(total) = 0.58416E-02    rms(broyden)= 0.58281E-02
  rms(prec ) = 0.75726E-02
  weight for this iteration     100.00

 eigenvalues of (default mixing * dielectric matrix)
  average eigenvalue GAMMA=   0.7472
  2.6512  1.8671  1.2282  1.2282  0.9298  0.6275  0.4739  0.4739  0.1101  0.3509
  0.3030  0.2589  0.2549  0.2191  0.2309

 Free energy of the ion-electron system (eV)
  ---------------------------------------------------
  alpha Z        PSCENC =       975.10247152
  Ewald energy   TEWEN  =     91195.57412748
  -Hartree energ DENC   =   -119903.24917209
  -exchange      EXHF   =         0.00000000
  -V(xc)+E(xc)   XCENC  =       177.76441779
  PAW double counting   =     30055.08739093   -29140.62772637
  entropy T*S    EENTRO =        -0.01665626
  eigenvalues    EBANDS =      -849.30446866
  atomic energy  EATOM  =     27259.89416086
  Solvation  Ediel_sol  =         0.00000000
  ---------------------------------------------------
  free energy    TOTEN  =      -229.77545479 eV

  energy without entropy =     -229.75879853  energy(sigma->0) =     -229.76990271


--------------------------------------------------------------------------------------------------------




--------------------------------------- Iteration      1(  21)  ---------------------------------------


    POTLOK:  cpu time    0.1288: real time    0.1296
    SETDIJ:  cpu time    0.0100: real time    0.0100
    EDDIAG:  cpu time    1.2151: real time    1.2227
  RMM-DIIS:  cpu time    2.5238: real time    2.5411
    ORTHCH:  cpu time    0.1958: real time    0.1968
       DOS:  cpu time    0.0010: real time    0.0010
    CHARGE:  cpu time    0.3568: real time    0.3590
    MIXING:  cpu time    0.0062: real time    0.0062
    --------------------------------------------
      LOOP:  cpu time    4.4375: real time    4.4666

 eigenvalue-minimisations  :  1000
 total energy-change (2. order) :-0.1400996E-03  (-0.8330418E-05)
 number of electron     376.0000043 magnetization 
 augmentation part      112.9637831 magnetization 

 Broyden mixing:
  rms(total) = 0.34365E-02    rms(broyden)= 0.34363E-02
  rms(prec ) = 0.48700E-02
  weight for this iteration     100.00

 eigenvalues of (default mixing * dielectric matrix)
  average eigenvalue GAMMA=   0.7580
  2.5018  2.3571  1.2549  1.1139  1.1139  0.6828  0.5087  0.5087  0.1101  0.4156
  0.3302  0.2838  0.2496  0.2491  0.2188  0.2282

 Free energy of the ion-electron system (eV)
  ---------------------------------------------------
  alpha Z        PSCENC =       975.10247152
  Ewald energy   TEWEN  =     91195.57412748
  -Hartree energ DENC   =   -119903.79814771
  -exchange      EXHF   =         0.00000000
  -V(xc)+E(xc)   XCENC  =       177.76737024
  PAW double counting   =     30053.20127023   -29138.70714798
  entropy T*S    EENTRO =        -0.01668599
  eigenvalues    EBANDS =      -848.79301354
  atomic energy  EATOM  =     27259.89416086
  Solvation  Ediel_sol  =         0.00000000
  ---------------------------------------------------
  free energy    TOTEN  =      -229.77559489 eV

  energy without entropy =     -229.75890891  energy(sigma->0) =     -229.77003290


--------------------------------------------------------------------------------------------------------




--------------------------------------- Iteration      1(  22)  ---------------------------------------


    POTLOK:  cpu time    0.1256: real time    0.1264
    SETDIJ:  cpu time    0.0100: real time    0.0100
    EDDIAG:  cpu time    1.2281: real time    1.2360
  RMM-DIIS:  cpu time    2.6025: real time    2.6209
    ORTHCH:  cpu time    0.2151: real time    0.2165
       DOS:  cpu time    0.0011: real time    0.0011
    CHARGE:  cpu time    0.3681: real time    0.3704
    MIXING:  cpu time    0.0073: real time    0.0074
    --------------------------------------------
      LOOP:  cpu time    4.5579: real time    4.5887

 eigenvalue-minimisations  :   986
 total energy-change (2. order) :-0.1630244E-03  (-0.4024397E-05)
 number of electron     376.0000043 magnetization 
 augmentation part      112.9625789 magnetization 

 Broyden mixing:
  rms(total) = 0.22566E-02    rms(broyden)= 0.22557E-02
  rms(prec ) = 0.35166E-02
  weight for this iteration     100.00

 eigenvalues of (default mixing * dielectric matrix)
  average eigenvalue GAMMA=   0.7629
  2.5054  2.5054  1.3008  1.1680  1.1680  0.6939  0.6191  0.4902  0.4902  0.1101
  0.3671  0.3289  0.2804  0.2538  0.2415  0.2188  0.2269

 Free energy of the ion-electron system (eV)
  ---------------------------------------------------
  alpha Z        PSCENC =       975.10247152
  Ewald energy   TEWEN  =     91195.57412748
  -Hartree energ DENC   =   -119904.43197256
  -exchange      EXHF   =         0.00000000
  -V(xc)+E(xc)   XCENC  =       177.77016163
  PAW double counting   =     30050.19042806   -29135.65324331
  entropy T*S    EENTRO =        -0.01660365
  eigenvalues    EBANDS =      -848.20528796
  atomic energy  EATOM  =     27259.89416086
  Solvation  Ediel_sol  =         0.00000000
  ---------------------------------------------------
  free energy    TOTEN  =      -229.77575792 eV

  energy without entropy =     -229.75915426  energy(sigma->0) =     -229.77022337


--------------------------------------------------------------------------------------------------------




--------------------------------------- Iteration      1(  23)  ---------------------------------------


    POTLOK:  cpu time    0.1287: real time    0.1295
    SETDIJ:  cpu time    0.0100: real time    0.0101
    EDDIAG:  cpu time    1.2838: real time    1.2919
  RMM-DIIS:  cpu time    2.4401: real time    2.4572
    ORTHCH:  cpu time    0.2136: real time    0.2149
       DOS:  cpu time    0.0011: real time    0.0011
    CHARGE:  cpu time    0.3612: real time    0.3635
    MIXING:  cpu time    0.0069: real time    0.0069
    --------------------------------------------
      LOOP:  cpu time    4.4454: real time    4.4750

 eigenvalue-minimisations  :   902
 total energy-change (2. order) :-0.1497028E-03  (-0.2812184E-05)
 number of electron     376.0000043 magnetization 
 augmentation part      112.9627370 magnetization 

 Broyden mixing:
  rms(total) = 0.20191E-02    rms(broyden)= 0.20189E-02
  rms(prec ) = 0.31220E-02
  weight for this iteration     100.00

 eigenvalues of (default mixing * dielectric matrix)
  average eigenvalue GAMMA=   0.7978
  2.7817  2.5632  1.5044  1.2676  1.2676  0.8943  0.6978  0.5055  0.5055  0.1101
  0.4159  0.3329  0.3020  0.2732  0.2529  0.2408  0.2187  0.2266

 Free energy of the ion-electron system (eV)
  ---------------------------------------------------
  alpha Z        PSCENC =       975.10247152
  Ewald energy   TEWEN  =     91195.57412748
  -Hartree energ DENC   =   -119904.87761658
  -exchange      EXHF   =         0.00000000
  -V(xc)+E(xc)   XCENC  =       177.77208037
  PAW double counting   =     30049.38103673   -29134.83387910
  entropy T*S    EENTRO =        -0.01665401
  eigenvalues    EBANDS =      -847.77163489
  atomic energy  EATOM  =     27259.89416086
  Solvation  Ediel_sol  =         0.00000000
  ---------------------------------------------------
  free energy    TOTEN  =      -229.77590762 eV

  energy without entropy =     -229.75925361  energy(sigma->0) =     -229.77035629


--------------------------------------------------------------------------------------------------------




--------------------------------------- Iteration      1(  24)  ---------------------------------------


    POTLOK:  cpu time    0.1107: real time    0.1112
    SETDIJ:  cpu time    0.0095: real time    0.0096
    EDDIAG:  cpu time    1.1944: real time    1.2020
  RMM-DIIS:  cpu time    2.6341: real time    2.6521
    ORTHCH:  cpu time    0.2080: real time    0.2093
       DOS:  cpu time    0.0011: real time    0.0011
    CHARGE:  cpu time    0.3672: real time    0.3697
    MIXING:  cpu time    0.0078: real time    0.0078
    --------------------------------------------
      LOOP:  cpu time    4.5327: real time    4.5629

 eigenvalue-minimisations  :   971
 total energy-change (2. order) :-0.2366439E-03  (-0.4066626E-05)
 number of electron     376.0000043 magnetization 
 augmentation part      112.9627738 magnetization 

 Broyden mixing:
  rms(total) = 0.14119E-02    rms(broyden)= 0.14117E-02
  rms(prec ) = 0.20237E-02
  weight for this iteration     100.00

 eigenvalues of (default mixing * dielectric matrix)
  average eigenvalue GAMMA=   0.7929
  2.9941  2.5399  1.6322  1.2464  1.2464  0.9484  0.6760  0.5584  0.4659  0.4659
  0.1101  0.3443  0.3443  0.2867  0.2703  0.2527  0.2392  0.2189  0.2254

 Free energy of the ion-electron system (eV)
  ---------------------------------------------------
  alpha Z        PSCENC =       975.10247152
  Ewald energy   TEWEN  =     91195.57412748
  -Hartree energ DENC   =   -119905.53722138
  -exchange      EXHF   =         0.00000000
  -V(xc)+E(xc)   XCENC  =       177.77410840
  PAW double counting   =     30048.78081272   -29134.22981533
  entropy T*S    EENTRO =        -0.01662064
  eigenvalues    EBANDS =      -847.11816790
  atomic energy  EATOM  =     27259.89416086
  Solvation  Ediel_sol  =         0.00000000
  ---------------------------------------------------
  free energy    TOTEN  =      -229.77614426 eV

  energy without entropy =     -229.75952362  energy(sigma->0) =     -229.77060405


--------------------------------------------------------------------------------------------------------




--------------------------------------- Iteration      1(  25)  ---------------------------------------


    POTLOK:  cpu time    0.1246: real time    0.1253
    SETDIJ:  cpu time    0.0102: real time    0.0103
    EDDIAG:  cpu time    1.3039: real time    1.3126
  RMM-DIIS:  cpu time    2.1586: real time    2.1735
    ORTHCH:  cpu time    0.2211: real time    0.2225
[...]
     90      -2.1490      2.00000
     91      -2.1199      2.00000
     92      -2.1049      2.00000
     93      -2.0616      2.00000
     94      -1.9944      2.00000
     95      -1.9679      2.00000
     96      -1.9404      2.00000
     97      -1.9122      2.00000
     98      -1.8846      2.00000
     99      -1.8521      2.00000
    100      -1.8241      2.00000
    101      -1.7758      2.00000
    102      -1.7559      2.00000
    103      -1.7359      2.00000
    104      -1.7115      2.00000
    105      -1.7015      2.00000
    106      -1.6724      2.00000
    107      -1.6654      2.00000
    108      -1.6425      2.00000
    109      -1.5981      2.00000
    110      -1.5606      2.00000
    111      -1.5273      2.00000
    112      -1.4606      2.00000
    113      -1.4518      2.00000
    114      -1.3532      2.00000
    115      -1.3110      2.00000
    116      -1.2733      2.00000
    117      -1.2287      2.00000
    118      -1.1922      2.00000
    119      -1.1323      2.00000
    120      -1.0890      2.00000
    121      -1.0585      2.00000
    122      -1.0396      2.00000
    123      -1.0161      2.00000
    124      -1.0118      2.00000
    125      -0.9928      2.00000
    126      -0.9647      2.00000
    127      -0.9539      2.00000
    128      -0.9447      2.00000
    129      -0.9192      2.00000
    130      -0.8941      2.00000
    131      -0.8586      2.00000
    132      -0.8128      2.00000
    133      -0.7634      2.00000
    134      -0.7487      2.00000
    135      -0.7285      2.00000
    136      -0.6890      2.00000
    137      -0.6830      2.00000
    138      -0.6489      2.00000
    139      -0.5966      2.00000
    140      -0.5593      2.00000
    141      -0.4962      2.00000
    142      -0.4606      2.00000
    143      -0.4070      2.00000
    144      -0.2934      2.00000
    145      -0.2615      2.00000
    146      -0.1918      2.00000
    147      -0.1819      2.00000
    148      -0.1468      2.00000
    149      -0.1005      2.00000
    150      -0.0753      2.00000
    151      -0.0495      2.00000
    152       0.0294      2.00000
    153       0.0410      2.00000
    154       0.0765      2.00000
    155       0.0923      2.00000
    156       0.1014      2.00000
    157       0.1264      2.00000
    158       0.1672      2.00000
    159       0.1975      2.00000
    160       0.2217      2.00000
    161       0.2546      2.00000
    162       0.2969      2.00000
    163       0.3110      2.00000
    164       0.3418      2.00000
    165       0.3549      2.00000
    166       0.3990      2.00001
    167       0.5200      2.00039
    168       0.5832      2.00188
    169       0.5971      2.00257
    170       0.6203      2.00421
    171       0.6515      2.00781
    172       0.6686      2.01067
    173       0.7163      2.02303
    174       0.7807      2.04993
    175       0.7885      2.05352
    176       0.8101      2.06264
    177       0.8506      2.07084
    178       0.8676      2.06738
    179       0.9086      2.02928
    180       0.9210      2.00656
    181       0.9356      1.97183
    182       1.0050      1.66735
    183       1.0423      1.41034
    184       1.0863      1.05206
    185       1.1005      0.93258
    186       1.1157      0.80496
    187       1.1321      0.67189
    188       1.1468      0.55828
    189       1.1528      0.51413
    190       1.1752      0.36167
    191       1.3042     -0.06035
    192       1.3304     -0.07051
    193       1.3604     -0.06747
    194       1.3898     -0.05650
    195       1.4206     -0.04239
    196       1.4972     -0.01480
    197       1.6025     -0.00185
    198       1.7111     -0.00011
    199       1.8174     -0.00000
    200       1.9835     -0.00000
    201       2.2636     -0.00000
    202       2.3096     -0.00000
    203       2.8015     -0.00000
    204       2.9425     -0.00000
    205       2.9661     -0.00000
    206       2.9823     -0.00000
    207       3.0006     -0.00000
    208       3.2181     -0.00000
    209       3.3930     -0.00000
    210       3.5149     -0.00000
    211       3.5545     -0.00000
    212       3.6023     -0.00000
    213       3.7247     -0.00000
    214       3.8138     -0.00000
    215       3.9635     -0.00000
    216       4.1617     -0.00000
    217       4.2056     -0.00000
    218       4.3951     -0.00000
    219       4.4564     -0.00000
    220       4.6172     -0.00000
    221       4.6604     -0.00000
    222       4.7973     -0.00000
    223       5.1253     -0.00000
    224       5.4786     -0.00000
    225       5.8951     -0.00000
    226       6.5189     -0.00000
    227       6.5280     -0.00000
    228       6.6001      0.00000


--------------------------------------------------------------------------------------------------------


 soft charge-density along one line, spin component           1
         0         1         2         3         4         5         6         7         8         9
 total charge-density along one line
 
 pseudopotential strength for first ion, spin component:           1
 10.094   0.015   0.004   0.010   0.000  -0.004  -0.009   0.000
  0.015  -0.002  -0.000  -0.000  -0.000  -0.000  -0.000   0.000
  0.004  -0.000  -4.247  -0.006   0.001  -0.009  -0.002   0.000
  0.010  -0.000  -0.006  -4.260   0.003  -0.002  -0.015   0.000
  0.000  -0.000   0.001   0.003  -4.245   0.000   0.000  -0.009
 -0.004  -0.000  -0.009  -0.002   0.000  -0.770  -0.000   0.000
 -0.009  -0.000  -0.002  -0.015   0.000  -0.000  -0.770   0.000
  0.000   0.000   0.000   0.000  -0.009   0.000   0.000  -0.770
 total augmentation occupancy for first ion, spin component:           1
  1.631  -0.838   0.014   0.003  -0.057   0.036   0.082  -0.022
 -0.838   1.176  -0.221  -0.533   0.080  -0.088  -0.221   0.028
  0.014  -0.221   0.847   0.195   0.003   0.114   0.055  -0.005
  0.003  -0.533   0.195   1.300  -0.003   0.056   0.240  -0.008
 -0.057   0.080   0.003  -0.003   0.784  -0.005  -0.009   0.096
  0.036  -0.088   0.114   0.056  -0.005   0.020   0.022  -0.003
  0.082  -0.221   0.055   0.240  -0.009   0.022   0.068  -0.006
 -0.022   0.028  -0.005  -0.008   0.096  -0.003  -0.006   0.013


------------------------ aborting loop because EDIFF is reached ----------------------------------------


    CHARGE:  cpu time    0.3374: real time    0.3394
    FORLOC:  cpu time    0.0388: real time    0.0390
    FORNL :  cpu time    1.8663: real time    1.8775
    STRESS:  cpu time    5.8872: real time    5.9275
    FORCOR:  cpu time    0.1501: real time    0.1510
    FORHAR:  cpu time    0.0703: real time    0.0707
    MIXING:  cpu time    0.0053: real time    0.0053
    OFIELD:  cpu time    0.0000: real time    0.0000

  FORCE on cell =-STRESS in cart. coord.  units (eV):
  Direction    XX          YY          ZZ          XY          YZ          ZX
  --------------------------------------------------------------------------------------
  Alpha Z   975.10247   975.10247   975.10247
  Ewald  110885.70191110891.60095************  -195.41640   244.45946   -82.98333
  Hartree117645.65999117622.74965************  -131.33052   103.55490   -50.05792
  E(xc)   -1665.69862 -1665.43264 -1672.95376    -0.42305     0.71739    -0.20120
  Local  ************************239180.95573   317.83438  -324.78926   127.28524
  n-local   122.75536   121.97330    88.02729    -0.87993     0.65873     0.05833
  augment  1895.67175  1893.65897  1932.59443     2.19853    -3.96477     0.84370
  Kinetic  5523.69475  5513.55985  5598.67834     8.86939   -21.44121     6.46537
  Fock        0.00000     0.00000     0.00000     0.00000     0.00000     0.00000
  -------------------------------------------------------------------------------------
  Total     -36.79067   -39.54790    -6.02029     0.85241    -0.80477     1.41018
  in kB     -43.81829   -47.10220    -7.17026     1.01524    -0.95849     1.67955
  external pressure =      -32.70 kB  Pullay stress =        0.00 kB


 VOLUME and BASIS-vectors are now :
 -----------------------------------------------------------------------------
  energy-cutoff  :      450.00
  volume of cell :     1345.22
      direct lattice vectors                 reciprocal lattice vectors
     7.296955120 -4.212899000  0.000000000     0.137043463  0.000000000  0.000000000
     0.000000000  8.425798000  0.000000000     0.068521732  0.118683121  0.000000000
     0.000000000  0.000000000 21.879635000     0.000000000  0.000000000  0.045704602

  length of vectors
     8.425798004  8.425798000 21.879635000     0.137043463  0.137043463  0.045704602


 FORCES acting on ions
    electron-ion (+dipol)            ewald-force                    non-local-force                 convergence-correction
 -----------------------------------------------------------------------------------------------
   0.176E+02 0.218E+02 -.881E+03   -.186E+02 -.265E+02 0.869E+03   0.845E+00 0.379E+01 0.108E+02   -.200E-02 0.259E-02 0.211E-01
   -.871E+02 0.522E+02 -.159E+04   0.894E+02 -.493E+02 0.161E+04   -.180E+01 -.261E+01 -.229E+02   0.186E-02 -.375E-02 0.138E-01
   0.562E+02 -.108E+03 -.153E+04   -.635E+02 0.130E+03 0.159E+04   0.743E+01 -.223E+02 -.568E+02   -.229E-02 -.565E-02 0.203E-01
   -.102E+00 0.875E+00 0.234E+04   0.324E-01 -.836E+00 -.234E+04   0.266E-01 -.384E-01 -.121E+01   0.572E-01 -.458E-01 0.703E-01
   0.614E+00 -.191E+00 0.234E+04   -.595E+00 0.178E+00 -.234E+04   -.880E-02 -.365E-01 -.111E+01   -.599E-01 0.122E-01 0.660E-01
   -.150E+00 0.525E-01 0.234E+04   0.149E+00 -.478E-01 -.234E+04   0.201E-01 -.211E-03 -.115E+01   -.377E-01 -.365E-01 0.544E-01
   0.397E+00 0.158E+00 0.234E+04   -.420E+00 -.861E-01 -.234E+04   -.378E-02 0.227E-01 -.115E+01   0.491E-01 -.411E-01 0.427E-01
   0.121E-01 0.940E+00 0.234E+04   -.849E-02 -.882E+00 -.234E+04   0.695E-02 0.165E-01 -.127E+01   -.290E-01 -.503E-01 0.507E-01
   0.127E+00 -.140E+00 0.234E+04   -.644E-01 0.116E+00 -.234E+04   0.200E-01 0.170E-01 -.121E+01   -.684E-01 0.764E-02 0.321E-01
   0.130E+00 -.900E+00 0.234E+04   -.559E-01 0.704E+00 -.234E+04   -.700E-01 0.102E+00 -.113E+01   0.115E-01 0.381E-01 0.492E-01
   -.101E+01 0.106E+00 0.234E+04   0.100E+01 -.674E-01 -.234E+04   -.563E-02 -.261E-01 -.123E+01   0.106E-01 0.289E-01 0.441E-01
   0.148E-01 -.100E+01 0.234E+04   -.409E-01 0.921E+00 -.234E+04   -.191E-01 0.837E-02 -.104E+01   0.667E-01 0.868E-01 0.464E-01
   0.327E+01 -.855E+01 0.855E+03   -.343E+01 0.850E+01 -.854E+03   0.617E-01 0.764E-01 -.427E+00   0.264E-01 0.724E-01 -.621E-02
   -.554E+01 -.259E+01 0.862E+03   0.547E+01 0.256E+01 -.862E+03   0.148E+00 0.124E+00 -.304E+00   0.545E-02 0.180E-01 0.345E-01
   -.367E+01 -.137E+01 0.851E+03   0.372E+01 0.119E+01 -.851E+03   0.190E-01 0.107E+00 -.104E+00   0.582E-01 0.653E-01 0.207E-01
   0.657E+00 0.658E+01 0.856E+03   -.667E+00 -.663E+01 -.855E+03   0.289E-01 -.120E-02 -.202E+00   -.289E-01 -.343E-01 0.610E-02
   0.162E+01 -.210E+01 0.860E+03   -.163E+01 0.214E+01 -.860E+03   0.824E-01 0.488E-01 -.336E+00   -.833E-01 -.275E-01 0.271E-01
   0.230E+01 0.453E+01 0.859E+03   -.231E+01 -.448E+01 -.859E+03   -.886E-01 0.469E-02 -.258E+00   0.298E-01 -.808E-01 0.571E-01
   0.145E+01 0.202E+01 0.865E+03   -.147E+01 -.188E+01 -.865E+03   -.490E-01 -.995E-01 -.480E+00   0.232E-01 -.382E-01 0.306E-01
   -.333E+01 0.476E+01 0.860E+03   0.342E+01 -.474E+01 -.860E+03   0.743E-01 -.112E+00 -.392E+00   -.529E-01 0.954E-02 0.303E-01
   0.299E+01 -.333E+01 0.860E+03   -.294E+01 0.350E+01 -.860E+03   -.628E-01 -.552E-01 -.345E+00   0.222E-01 0.155E-01 0.417E-01
   -.243E+01 0.523E+01 -.625E+03   0.228E+01 -.531E+01 0.625E+03   0.200E+00 0.457E-01 0.575E+00   0.111E-01 -.443E-01 -.962E-01
   -.947E+00 0.165E+01 -.616E+03   0.102E+01 -.157E+01 0.615E+03   -.148E+00 -.939E-01 0.719E+00   0.445E-02 -.149E-01 -.257E-01
   -.377E+01 0.378E+01 -.659E+03   0.352E+01 -.346E+01 0.659E+03   0.297E+00 -.304E+00 0.166E+00   0.255E-01 -.133E-01 -.104E+00
   -.111E+01 0.965E+01 -.658E+03   0.637E+00 -.892E+01 0.659E+03   0.348E+00 -.710E+00 -.812E+00   0.146E-01 0.624E-01 -.157E+00
   0.874E+01 -.279E+00 -.628E+03   -.811E+01 0.245E+00 0.628E+03   -.595E+00 -.390E-01 0.258E+00   -.125E-01 0.102E-03 -.114E+00
   -.131E+01 -.122E+02 -.620E+03   0.116E+01 0.121E+02 0.620E+03   0.380E-01 0.147E+00 0.561E+00   0.245E-01 -.179E-01 -.579E-01
   -.354E+01 -.430E+01 -.642E+03   0.363E+01 0.431E+01 0.641E+03   -.112E+00 -.607E-01 0.187E+00   -.257E-01 0.443E-01 -.630E-01
   0.337E+01 -.610E+00 -.641E+03   -.330E+01 0.542E+00 0.641E+03   -.373E-01 0.495E-01 0.108E-01   -.576E-01 0.152E-01 -.962E-01
   0.482E+00 0.591E+00 -.635E+03   -.545E+00 -.756E+00 0.635E+03   0.726E-01 0.144E+00 0.352E+00   0.148E-01 -.317E-01 -.694E-01
   -.226E+02 -.701E+01 -.214E+04   0.231E+02 0.726E+01 0.214E+04   -.438E+00 -.331E+00 0.153E+01   0.100E-01 0.189E-01 -.767E-01
   0.190E+02 0.242E+02 -.216E+04   -.194E+02 -.249E+02 0.216E+04   0.390E+00 0.906E+00 0.126E+01   -.299E-01 0.100E-02 -.581E-01
   0.396E+02 -.884E+01 -.215E+04   -.399E+02 0.872E+01 0.215E+04   0.398E-01 0.177E+00 0.112E+01   0.981E-02 0.199E-01 -.343E-01
   -.100E+02 -.147E+01 -.217E+04   0.989E+01 0.118E+01 0.217E+04   0.106E+00 0.403E+00 0.118E+01   -.542E-02 -.103E-01 -.350E-01
   0.144E+02 0.145E+02 -.214E+04   -.145E+02 -.147E+02 0.214E+04   0.304E-01 0.184E+00 0.114E+01   0.118E-01 -.425E-01 -.645E-01
   0.734E+02 0.623E+02 -.199E+04   -.761E+02 -.605E+02 0.199E+04   0.251E+01 -.155E+01 -.310E+01   0.401E-01 -.359E-02 0.135E-01
   -.558E+02 -.593E+02 -.207E+04   0.571E+02 0.614E+02 0.207E+04   -.143E+01 -.207E+01 0.218E+01   0.925E-02 -.269E-01 -.595E-01
   -.647E+02 0.980E+02 -.203E+04   0.648E+02 -.986E+02 0.203E+04   -.161E+00 0.420E+00 -.726E+00   -.176E-01 0.436E-01 -.312E-01
   0.130E+02 -.674E+02 -.212E+04   -.129E+02 0.685E+02 0.212E+04   -.103E+00 -.865E+00 0.125E+01   -.166E-01 0.338E-02 -.223E-01
 -----------------------------------------------------------------------------------------------
   -.761E+01 0.246E+02 0.749E+02   0.746E-13 0.114E-12 -.682E-11   0.766E+01 -.245E+02 -.745E+02   0.822E-02 -.324E-02 -.398E+00
 
 
 POSITION                                       TOTAL-FORCE (eV/Angst)
 -----------------------------------------------------------------------------------
      5.08134      0.64041     10.43657        -0.171894     -0.941984     -0.524792
      6.66171     -0.52327     10.21127         0.539509      0.363256      0.081360
      4.94868      1.06371     11.51280         0.218601     -0.035297     -0.134214
      7.20031     -1.38846      1.62732         0.012545     -0.048564      0.126306
      2.33567      1.42014      1.62732        -0.051969     -0.040249      0.173421
      4.76799      0.01584      1.62732        -0.020152     -0.035392      0.141275
      7.20031      1.42015      1.62732         0.021433      0.049978      0.117746
      2.33567      4.22875      1.62732        -0.020113      0.021390      0.120442
      4.76799      2.82445      1.62732         0.012592     -0.001870      0.171782
      2.33567      7.03734      1.62732         0.013448     -0.060072      0.017441
      4.76799      5.63304      1.62732        -0.003078      0.037500      0.123721
      7.20031      4.22874      1.62732         0.019780      0.013114      0.053959
      1.52490      0.01584      3.92052        -0.073121      0.096422     -0.116923
      3.95722     -1.38846      3.92052         0.083148      0.108816     -0.145113
      6.38953     -2.79276      3.92052         0.128465     -0.011345      0.065125
      1.52490      2.82445      3.92052        -0.012268     -0.096484      0.029838
      3.95722      1.42015      3.92052        -0.016878      0.063430     -0.015360
      6.38953      0.01585      3.92052        -0.073881     -0.029937      0.036971
      1.52490      5.63305      3.92052        -0.051641      0.002039     -0.308187
      3.95722      4.22874      3.92052         0.105905     -0.080602     -0.101185
      6.38953      2.82445      3.92052         0.016010      0.119013     -0.185486
      0.70015      4.21630      6.18324         0.056695     -0.082347      0.104627
      3.16245      5.63283      6.15126        -0.070636     -0.037284      0.216199
      5.56040     -1.37627      6.23510         0.068024      0.000856      0.069733
      0.70195      1.44710      6.25118        -0.116840      0.074556     -0.147829
      3.15943      0.02615      6.18914         0.023685     -0.076761      0.161205
      0.71632      7.02791      6.16780        -0.087535      0.005251      0.157015
      5.58986      4.22994      6.21080        -0.051757     -0.014110     -0.202481
      3.15612      2.81675      6.21566        -0.034120     -0.006666     -0.213125
      5.57886      1.41793      6.20476         0.022783     -0.056048      0.045445
      2.35762      4.22963      8.42620         0.033945     -0.065353      0.161204
      4.75285      5.58314      8.49735         0.033260      0.205863     -0.226911
      2.33699      1.39570      8.50953        -0.170983      0.069594     -0.209391
      7.21016      4.18190      8.49525        -0.035839      0.100427      0.066370
      2.34080      7.01785      8.42911        -0.004237     -0.058031      0.208859
      4.67507      0.05365      8.63975        -0.209107      0.238207      0.136979
      7.26502      1.42238      8.48007        -0.100094      0.084497     -0.134443
      7.22071     -1.45755      8.58505        -0.057506     -0.078232      0.298044
      4.78739      2.82975      8.50665         0.023822      0.202422     -0.219626
 -----------------------------------------------------------------------------------
    total drift:                                0.064628      0.132964      0.007366
  FORCES: max atom, RMS     1.091919    0.257413
  Number: max atom                 1
  FORCE total and by dimension    1.607545    0.941984


--------------------------------------------------------------------------------------------------------



  FREE ENERGIE OF THE ION-ELECTRON SYSTEM (eV)
  ---------------------------------------------------
  free  energy   TOTEN  =      -230.66212557 eV

  energy  without entropy=     -230.64666146  energy(sigma->0) =     -230.65697086
 
 d Force = 0.2456740E-01[-0.136E-01, 0.628E-01]  d Energy = 0.2324745E-01 0.132E-02
 d Force =-0.3708460E+02[-0.376E+02,-0.365E+02]  d Ewald  =-0.3708726E+02 0.266E-02


--------------------------------------------------------------------------------------------------------


    POTLOK:  cpu time    0.1400: real time    0.2133


--------------------------------------------------------------------------------------------------------


 stress matrix after NEB project (eV)
    -36.79067      0.85241      1.41018
      0.85241    -39.54790     -0.80477
      1.41018     -0.80477     -6.02029
  FORCES: max atom, RMS     1.091919    0.257413
  FORCE total and by dimension    1.607545    0.941984
  Stress total and by dimension   54.411021   39.547901
 Quasi-Newton relaxation of ions (Broydens 2nd method)
  g(Force)  = 0.499E-01   g(Stress)= 0.000E+00

 retain information from N=  4 steps
 eigenvalues of (default step * inverse Hessian matrix)
  average eigenvalue of G=   4.8553
 eigenvalue spectrum of G is  5.1928  0.8797  6.6743  6.6743
  RESET_HESSIAN           0


--------------------------------------------------------------------------------------------------------


    WAVPRE:  cpu time    0.0654: real time    0.2045
    FEWALD:  cpu time    0.0019: real time    0.0019

 real space projection operators:
  total allocation   :      13553.61 KBytes
  max/ min on nodes  :       6784.34       6769.27

    ORTHCH:  cpu time    0.9094: real time    0.9157
     LOOP+:  cpu time   66.7037: real time   67.6995


--------------------------------------- Iteration      6(   1)  ---------------------------------------


    POTLOK:  cpu time    0.1266: real time    0.1993
    SETDIJ:  cpu time    0.0101: real time    0.0102
