 running on    8 total cores
 distrk:  each k-point on    8 cores,    1 groups
 distr:  one band on    2 cores,    4 groups
 using from now: INCAR     
 vasp.5.4.4 16052018 (build Apr 24 2014 20:13:14) complex standard
 Contain Constrained Minimization Technique (TS), Periodic NBO, VASPsol, libbeef, VASP2WANNIER90, Constrained Cell Relaxation
 POSCAR found type information on POSCAR  C  O  Pt
 POSCAR found :  3 types and      39 ions
 scaLAPACK will be used
 LDA part: xc-table for Pade appr. of Perdew
 POSCAR found type information on POSCAR  C  O  Pt
 POSCAR found :  3 types and      39 ions
 POSCAR, INCAR and KPOINTS ok, starting setup
 FFT: planning ...
 WAVECAR not read
 entering main loop
       N       E                     dE             d eps       ncg     rms          rms(c)
DAV:   1     0.241590311332E+04    0.24159E+04   -0.15949E+05  1824   0.129E+03
DAV:   2    -0.641490962246E+02   -0.24801E+04   -0.23039E+04  2120   0.286E+02
DAV:   3    -0.240445096415E+03   -0.17630E+03   -0.15966E+03  2152   0.688E+01
DAV:   4    -0.248123194775E+03   -0.76781E+01   -0.74094E+01  2336   0.137E+01
DAV:   5    -0.248349850421E+03   -0.22666E+00   -0.22426E+00  2456   0.241E+00    0.273E+01
RMM:   6    -0.246820468944E+03    0.15294E+01   -0.53422E+01  1831   0.147E+01    0.303E+01
RMM:   7    -0.237964192064E+03    0.88563E+01   -0.32709E+01  1830   0.898E+00    0.178E+01
RMM:   8    -0.244496109847E+03   -0.65319E+01   -0.79925E+00  1831   0.463E+00    0.253E+01
RMM:   9    -0.231618350529E+03    0.12878E+02   -0.33353E+00  1832   0.287E+00    0.927E+00
RMM:  10    -0.230378093822E+03    0.12403E+01   -0.12770E+00  1830   0.180E+00    0.484E+00
RMM:  11    -0.229954290077E+03    0.42380E+00   -0.41444E-01  1830   0.101E+00    0.300E+00
RMM:  12    -0.229865166508E+03    0.89124E-01   -0.15027E-01  1836   0.616E-01    0.231E+00
RMM:  13    -0.229821218401E+03    0.43948E-01   -0.10655E-01  1830   0.558E-01    0.167E+00
RMM:  14    -0.229800685692E+03    0.20533E-01   -0.10505E-01  1831   0.562E-01    0.143E+00
RMM:  15    -0.229779511852E+03    0.21174E-01   -0.29203E-02  1831   0.278E-01    0.580E-01
RMM:  16    -0.229776167500E+03    0.33444E-02   -0.88458E-03  1831   0.158E-01    0.353E-01
RMM:  17    -0.229776000166E+03    0.16733E-03   -0.37480E-03  1829   0.103E-01    0.284E-01
RMM:  18    -0.229775432950E+03    0.56722E-03   -0.17667E-03  1817   0.722E-02    0.176E-01
RMM:  19    -0.229775288049E+03    0.14490E-03   -0.45871E-04  1427   0.374E-02    0.947E-02
RMM:  20    -0.229775454794E+03   -0.16674E-03   -0.20052E-04  1069   0.246E-02    0.584E-02
RMM:  21    -0.229775594894E+03   -0.14010E-03   -0.83304E-05  1000   0.166E-02    0.344E-02
RMM:  22    -0.229775757918E+03   -0.16302E-03   -0.40244E-05   986   0.111E-02    0.226E-02
RMM:  23    -0.229775907621E+03   -0.14970E-03   -0.28122E-05   902   0.831E-03    0.202E-02
RMM:  24    -0.229776144265E+03   -0.23664E-03   -0.40666E-05   971   0.905E-03    0.141E-02
RMM:  25    -0.229776246287E+03   -0.10202E-03   -0.14774E-05   560   0.586E-03    0.842E-03
RMM:  26    -0.229776435503E+03   -0.18922E-03   -0.25169E-05   796   0.696E-03    0.133E-02
RMM:  27    -0.229776564731E+03   -0.12923E-03   -0.15398E-05   569   0.572E-03    0.524E-03
RMM:  28    -0.229776639132E+03   -0.74401E-04   -0.76620E-06   407   0.474E-03
   1 F= -.22977664E+03 E0= -.22977113E+03  d E =-.229777E+03
 BRION: g(F)=  0.444E+00 g(S)=  0.000E+00
 bond charge predicted
       N       E                     dE             d eps       ncg     rms          rms(c)
DAV:   1    -0.230063335513E+03   -0.28677E+00   -0.39601E+01  1840   0.115E+01    0.108E+00
RMM:   2    -0.230194342689E+03   -0.13101E+00   -0.84625E-01  1841   0.186E+00    0.245E+00
RMM:   3    -0.230147764150E+03    0.46579E-01   -0.66708E-02  1863   0.440E-01    0.134E+00
RMM:   4    -0.230129203460E+03    0.18561E-01   -0.19010E-02  1857   0.229E-01    0.836E-01
RMM:   5    -0.230121294712E+03    0.79087E-02   -0.10384E-02  1831   0.169E-01    0.512E-01
RMM:   6    -0.230121155726E+03    0.13899E-03   -0.12074E-02  1831   0.188E-01    0.418E-01
RMM:   7    -0.230118869000E+03    0.22867E-02   -0.59435E-03  1832   0.132E-01    0.219E-01
RMM:   8    -0.230118361102E+03    0.50790E-03   -0.18217E-03  1824   0.725E-02    0.139E-01
RMM:   9    -0.230118094426E+03    0.26668E-03   -0.46014E-04  1454   0.374E-02    0.681E-02
RMM:  10    -0.230118045168E+03    0.49259E-04   -0.11902E-04   965   0.210E-02
   2 F= -.23011805E+03 E0= -.23011384E+03  d E =-.341406E+00
 BRION: g(F)=  0.425E+00 g(S)=  0.000E+00 retain N=  1 mean eig= 0.83
 eig:   0.829
 bond charge predicted
       N       E                     dE             d eps       ncg     rms          rms(c)
DAV:   1    -0.230228321300E+03   -0.11023E+00   -0.12102E+01  1832   0.656E+00    0.622E-01
RMM:   2    -0.230277549325E+03   -0.49228E-01   -0.46708E-01  1842   0.105E+00    0.913E-01
RMM:   3    -0.230270770729E+03    0.67786E-02   -0.19290E-02  1842   0.220E-01    0.741E-01
RMM:   4    -0.230265392398E+03    0.53783E-02   -0.57726E-03  1851   0.126E-01    0.515E-01
RMM:   5    -0.230262539572E+03    0.28528E-02   -0.46264E-03  1832   0.107E-01    0.403E-01
RMM:   6    -0.230261467752E+03    0.10718E-02   -0.64188E-03  1831   0.129E-01    0.288E-01
RMM:   7    -0.230260237568E+03    0.12302E-02   -0.26301E-03  1826   0.866E-02    0.155E-01
RMM:   8    -0.230259916688E+03    0.32088E-03   -0.63368E-04  1656   0.432E-02    0.828E-02
RMM:   9    -0.230259811355E+03    0.10533E-03   -0.16133E-04  1011   0.238E-02    0.380E-02
RMM:  10    -0.230259796812E+03    0.14543E-04   -0.69957E-05   965   0.166E-02
   3 F= -.23025980E+03 E0= -.23025548E+03  d E =-.141752E+00
 BRION: g(F)=  0.300E+00 g(S)=  0.000E+00 retain N=  2 mean eig= 0.98
 eig:   0.220  1.733
 bond charge predicted
       N       E                     dE             d eps       ncg     rms          rms(c)
DAV:   1    -0.230367512491E+03   -0.10770E+00   -0.17633E+02  1824   0.245E+01    0.224E+00
RMM:   2    -0.230972921802E+03   -0.60541E+00   -0.37891E+00  1836   0.387E+00    0.455E+00
RMM:   3    -0.230783297077E+03    0.18962E+00   -0.29881E-01  1855   0.924E-01    0.291E+00
RMM:   4    -0.230670843992E+03    0.11245E+00   -0.10239E-01  1840   0.537E-01    0.153E+00
RMM:   5    -0.230648652875E+03    0.22191E-01   -0.38376E-02  1834   0.324E-01    0.103E+00
RMM:   6    -0.230649123688E+03   -0.47081E-03   -0.42748E-02  1833   0.351E-01    0.803E-01
RMM:   7    -0.230644012020E+03    0.51117E-02   -0.25571E-02  1834   0.272E-01    0.535E-01
RMM:   8    -0.230640045364E+03    0.39667E-02   -0.73791E-03  1831   0.147E-01    0.239E-01
RMM:   9    -0.230639225253E+03    0.82011E-03   -0.17086E-03  1822   0.702E-02    0.141E-01
RMM:  10    -0.230638927163E+03    0.29809E-03   -0.48980E-04  1559   0.396E-02    0.776E-02
RMM:  11    -0.230638878115E+03    0.49049E-04   -0.22454E-04  1015   0.276E-02
   4 F= -.23063888E+03 E0= -.23063260E+03  d E =-.379081E+00
 BRION: g(F)=  0.109E+00 g(S)=  0.000E+00 retain N=  3 mean eig= 3.67
 eig:   1.354  4.834  4.834
 bond charge predicted
       N       E                     dE             d eps       ncg     rms          rms(c)
DAV:   1    -0.230643816095E+03   -0.48889E-02   -0.10860E+01  1824   0.595E+00    0.546E-01
RMM:   2    -0.230682990511E+03   -0.39174E-01   -0.26006E-01  1838   0.980E-01    0.130E+00
RMM:   3    -0.230669965763E+03    0.13025E-01   -0.19225E-02  1859   0.235E-01    0.691E-01
RMM:   4    -0.230665579858E+03    0.43859E-02   -0.63184E-03  1843   0.133E-01    0.460E-01
RMM:   5    -0.230662758394E+03    0.28215E-02   -0.26886E-03  1834   0.855E-02    0.254E-01
RMM:   6    -0.230662618366E+03    0.14003E-03   -0.24189E-03  1824   0.850E-02    0.182E-01
RMM:   7    -0.230662459297E+03    0.15907E-03   -0.15919E-03  1824   0.687E-02    0.138E-01
RMM:   8    -0.230662167281E+03    0.29202E-03   -0.47373E-04  1474   0.383E-02    0.565E-02
RMM:   9    -0.230662125569E+03    0.41712E-04   -0.10993E-04   969   0.195E-02
   5 F= -.23066213E+03 E0= -.23065697E+03  d E =-.232475E-01
 BRION: g(F)=  0.499E-01 g(S)=  0.000E+00 retain N=  4 mean eig= 4.86
 eig:   5.193  0.880  6.674  6.674
 bond charge predicted
       N       E                     dE             d eps       ncg     rms          rms(c)
[mpiexec@node06] Sending Ctrl-C to processes as requested
[mpiexec@node06] Press Ctrl-C again to force abort
