<?xml version="1.0" encoding="ISO-8859-1"?>
<modeling>
 <generator>
  <i name="program" type="string"> vasp </i>
  <i name="version" type="string">5.4.4  </i>
  <i name="subversion" type="string">16052018 (build Apr 24 2014 20:13:14) complex standard parallel Constrained Minimization Technique (TS), Periodic NBO, VASPsol, libbeef, VASP2WANNIER90, Constrained Cell Relaxation </i>
  <i name="platform" type="string">Center for Computational Chemistry </i>
  <i name="user" type="string">phu </i>
  <i name="host" type="string">node06 </i>
  <i name="date" type="string">2025 09 27 </i>
  <i name="time" type="string">23:23:51 </i>
 </generator>
 <incar>
  <i type="string" name="SYSTEM"> metal</i>
  <i type="int" name="ISTART">     0</i>
  <i type="string" name="PREC">normal</i>
  <i type="string" name="ALGO">Fast</i>
  <i type="int" name="NSIM">     4</i>
  <i type="int" name="ISPIN">     1</i>
  <i type="int" name="NELMIN">     8</i>
  <i type="int" name="IBRION">     1</i>
  <i name="EDIFFG">     -0.05000000</i>
  <i type="int" name="NSW">  5000</i>
  <i type="int" name="ISIF">     2</i>
  <i type="int" name="ISYM">     0</i>
  <i name="ENCUT">    450.00000000</i>
  <i name="POTIM">      0.20000000</i>
  <i type="string" name="LREAL">A</i>
  <i type="int" name="ISMEAR">     1</i>
  <i name="SIGMA">      0.20000000</i>
  <i type="logical" name="LWAVE"> F  </i>
  <i type="logical" name="LCHARG"> F  </i>
  <v type="int" name="KPOINT_BSE">    -1     0     0     0</v>
  <i type="int" name="VOSKOWN">     0</i>
 </incar>
 <structure name="primitive_cell" >
  <crystal>
   <varray name="basis" >
    <v>       7.29695512      -4.21289900       0.00000000 </v>
    <v>       0.00000000       8.42579800       0.00000000 </v>
    <v>       0.00000000       0.00000000      21.87963500 </v>
   </varray>
   <i name="volume">   1345.21837528 </i>
   <varray name="rec_basis" >
    <v>       0.13704346       0.00000000       0.00000000 </v>
    <v>       0.06852173       0.11868312       0.00000000 </v>
    <v>       0.00000000       0.00000000       0.04570460 </v>
   </varray>
  </crystal>
  <varray name="positions" >
   <v>      -0.29877561       0.43875846       0.48016351 </v>
   <v>      -0.32691216       0.46561434      -0.46994796 </v>
   <v>      -0.09364155       0.38744674       0.46813794 </v>
   <v>      -0.36121143       0.31846862       0.39020950 </v>
   <v>      -0.34690954      -0.33847160       0.38904347 </v>
   <v>      -0.00168215      -0.33438710       0.38889526 </v>
   <v>       0.32267034       0.32679125       0.38951936 </v>
   <v>      -0.00589787       0.32089956       0.38818527 </v>
   <v>       0.32131179      -0.00360901       0.38450658 </v>
   <v>      -0.34827112      -0.01482163       0.39022339 </v>
   <v>      -0.23852194      -0.45179067       0.28296809 </v>
   <v>      -0.01159419      -0.00781567       0.38719787 </v>
   <v>      -0.24067705       0.21759259       0.28470584 </v>
   <v>       0.43357999       0.22101932       0.28196479 </v>
   <v>       0.32222651      -0.33765705       0.38427284 </v>
   <v>       0.43400211      -0.45014087       0.28671417 </v>
   <v>       0.09384869      -0.45054437       0.28208095 </v>
   <v>      -0.23141813      -0.11293559       0.28570165 </v>
   <v>       0.10231731      -0.11381452       0.27971148 </v>
   <v>       0.43437380      -0.11159575       0.27791043 </v>
   <v>       0.09781085       0.21743483       0.28849573 </v>
   <v>      -0.45768900       0.43970300       0.17918600 </v>
   <v>      -0.12435600       0.43970300       0.17918600 </v>
   <v>      -0.45768900       0.10636900       0.17918600 </v>
   <v>      -0.12435600      -0.22696400       0.17918600 </v>
   <v>       0.20897700       0.10636900       0.17918600 </v>
   <v>      -0.45768900      -0.22696400       0.17918600 </v>
   <v>      -0.12435600       0.10636900       0.17918600 </v>
   <v>       0.20897700      -0.22696400       0.17918600 </v>
   <v>       0.20897700       0.43970300       0.17918600 </v>
   <v>      -0.34657800       0.32859100       0.07437600 </v>
   <v>      -0.34657800      -0.33807500       0.07437600 </v>
   <v>      -0.01324500      -0.33807500       0.07437600 </v>
   <v>       0.32008800       0.32859100       0.07437600 </v>
   <v>      -0.01324500       0.32859100       0.07437600 </v>
   <v>       0.32008800      -0.00474200       0.07437600 </v>
   <v>      -0.34657800      -0.00474200       0.07437600 </v>
   <v>      -0.01324500      -0.00474200       0.07437600 </v>
   <v>       0.32008800      -0.33807500       0.07437600 </v>
  </varray>
 </structure>
 <varray name="primitive_index" >
  <v type="int" >        1 </v>
  <v type="int" >        3 </v>
  <v type="int" >        2 </v>
  <v type="int" >       36 </v>
  <v type="int" >       39 </v>
  <v type="int" >       37 </v>
  <v type="int" >       33 </v>
  <v type="int" >       38 </v>
  <v type="int" >       35 </v>
  <v type="int" >       32 </v>
  <v type="int" >       30 </v>
  <v type="int" >       34 </v>
  <v type="int" >       24 </v>
  <v type="int" >       26 </v>
  <v type="int" >       31 </v>
  <v type="int" >       29 </v>
  <v type="int" >       22 </v>
  <v type="int" >       28 </v>
  <v type="int" >       27 </v>
  <v type="int" >       23 </v>
  <v type="int" >       25 </v>
  <v type="int" >       17 </v>
  <v type="int" >       18 </v>
  <v type="int" >       14 </v>
  <v type="int" >       21 </v>
  <v type="int" >       13 </v>
  <v type="int" >       20 </v>
  <v type="int" >       15 </v>
  <v type="int" >       19 </v>
  <v type="int" >       16 </v>
  <v type="int" >        6 </v>
  <v type="int" >        9 </v>
  <v type="int" >        7 </v>
  <v type="int" >        5 </v>
  <v type="int" >        4 </v>
  <v type="int" >       10 </v>
  <v type="int" >       11 </v>
  <v type="int" >       12 </v>
  <v type="int" >        8 </v>
 </varray>
 <kpoints>
  <generation param="Gamma">
   <v type="int" name="divisions">       2        2        1 </v>
   <v name="usershift">      0.00000000       0.00000000       0.00000000 </v>
   <v name="genvec1">      0.50000000       0.00000000       0.00000000 </v>
   <v name="genvec2">     -0.00000000       0.50000000       0.00000000 </v>
   <v name="genvec3">      0.00000000       0.00000000       1.00000000 </v>
   <v name="shift">      0.00000000       0.00000000       0.00000000 </v>
  </generation>
  <varray name="kpointlist" >
   <v>       0.00000000       0.00000000       0.00000000 </v>
   <v>       0.50000000       0.00000000       0.00000000 </v>
   <v>      -0.00000000       0.50000000       0.00000000 </v>
   <v>       0.50000000       0.50000000       0.00000000 </v>
  </varray>
  <varray name="weights" >
   <v>       0.25000000 </v>
   <v>       0.25000000 </v>
   <v>       0.25000000 </v>
   <v>       0.25000000 </v>
  </varray>
 </kpoints>
 <parameters>
  <separator name="general" >
   <i type="string" name="SYSTEM">metal</i>
   <i type="logical" name="LCOMPAT"> F  </i>
  </separator>
  <separator name="electronic" >
   <i type="string" name="PREC">normal</i>
   <i name="ENMAX">    450.00000000</i>
   <i name="ENAUG">    644.87300000</i>
   <i name="EDIFF">      0.00010000</i>
   <i type="int" name="IALGO">    68</i>
   <i type="int" name="IWAVPR">    11</i>
   <i type="int" name="NBANDS">   228</i>
   <i name="NELECT">    376.00000000</i>
   <i type="int" name="TURBO">     0</i>
   <i type="int" name="IRESTART">     0</i>
   <i type="int" name="NREBOOT">     0</i>
   <i type="int" name="NMIN">     0</i>
   <i name="EREF">      0.00000000</i>
   <separator name="electronic smearing" >
    <i type="int" name="ISMEAR">     1</i>
    <i name="SIGMA">      0.20000000</i>
    <i name="KSPACING">      0.50000000</i>
    <i type="logical" name="KGAMMA"> T  </i>
   </separator>
   <separator name="electronic projectors" >
    <i type="logical" name="LREAL"> T  </i>
    <v name="ROPT">     -0.00050000     -0.00050000     -0.00050000</v>
    <i type="int" name="LMAXPAW">  -100</i>
    <i type="int" name="LMAXMIX">     2</i>
    <i type="logical" name="NLSPLINE"> F  </i>
   </separator>
   <separator name="electronic startup" >
    <i type="int" name="ISTART">     0</i>
    <i type="int" name="ICHARG">     2</i>
    <i type="int" name="INIWAV">     1</i>
   </separator>
   <separator name="electronic spin" >
    <i type="int" name="ISPIN">     1</i>
    <i type="logical" name="LNONCOLLINEAR"> F  </i>
    <v name="MAGMOM">      1.00000000      1.00000000      1.00000000      1.00000000      1.00000000      1.00000000      1.00000000      1.00000000      1.00000000      1.00000000      1.00000000      1.00000000      1.00000000      1.00000000      1.00000000      1.00000000      1.00000000      1.00000000      1.00000000      1.00000000
      1.00000000      1.00000000      1.00000000      1.00000000      1.00000000      1.00000000      1.00000000      1.00000000      1.00000000      1.00000000      1.00000000      1.00000000      1.00000000      1.00000000      1.00000000      1.00000000      1.00000000      1.00000000      1.00000000</v>
    <i name="NUPDOWN">     -1.00000000</i>
    <i type="logical" name="LSORBIT"> F  </i>
    <v name="SAXIS">      0.00000000      0.00000000      1.00000000</v>
    <i type="logical" name="LSPIRAL"> F  </i>
    <v name="QSPIRAL">      0.00000000      0.00000000      0.00000000</v>
    <i type="logical" name="LZEROZ"> F  </i>
   </separator>
   <separator name="electronic exchange-correlation" >
    <i type="logical" name="LASPH"> F  </i>
    <i type="logical" name="LMETAGGA"> F  </i>
   </separator>
   <separator name="electronic convergence" >
    <i type="int" name="NELM">    60</i>
    <i type="int" name="NELMDL">    -5</i>
    <i type="int" name="NELMIN">     8</i>
    <i name="ENINI">    450.00000000</i>
    <separator name="electronic convergence detail" >
     <i type="logical" name="LDIAG"> T  </i>
     <i type="logical" name="LSUBROT"> F  </i>
     <i name="WEIMIN">      0.00100000</i>
     <i name="EBREAK">      0.00000011</i>
     <i name="DEPER">      0.30000000</i>
     <i type="int" name="NRMM">     4</i>
     <i name="TIME">      0.40000000</i>
    </separator>
   </separator>
   <separator name="electronic mixer" >
    <i name="AMIX">      0.40000000</i>
    <i name="BMIX">      1.00000000</i>
    <i name="AMIN">      0.10000000</i>
    <i name="AMIX_MAG">      1.60000000</i>
    <i name="BMIX_MAG">      1.00000000</i>
    <separator name="electronic mixer details" >
     <i type="int" name="IMIX">     4</i>
     <i type="logical" name="MIXFIRST"> F  </i>
     <i type="int" name="MAXMIX">   -45</i>
     <i name="WC">    100.00000000</i>
     <i type="int" name="INIMIX">     1</i>
     <i type="int" name="MIXPRE">     1</i>
     <i type="int" name="MREMOVE">     5</i>
    </separator>
   </separator>
   <separator name="electronic dipolcorrection" >
    <i type="logical" name="LDIPOL"> F  </i>
    <i type="logical" name="LMONO"> F  </i>
    <i type="int" name="IDIPOL">     0</i>
    <i name="EPSILON">      1.00000000</i>
    <v name="DIPOL">   -100.00000000   -100.00000000   -100.00000000</v>
    <i name="EFIELD">      0.00000000</i>
   </separator>
  </separator>
  <separator name="grids" >
   <i type="int" name="NGX">    48</i>
   <i type="int" name="NGY">    48</i>
   <i type="int" name="NGZ">   120</i>
   <i type="int" name="NGXF">    96</i>
   <i type="int" name="NGYF">    96</i>
   <i type="int" name="NGZF">   240</i>
   <i type="logical" name="ADDGRID"> F  </i>
  </separator>
  <separator name="ionic" >
   <i type="int" name="NSW">  5000</i>
   <i type="int" name="IBRION">     1</i>
   <i type="int" name="MDALGO">     0</i>
   <i type="int" name="ISIF">     2</i>
   <i name="PSTRESS">      0.00000000</i>
   <i name="EDIFFG">     -0.05000000</i>
   <i type="int" name="NFREE">     0</i>
   <i name="POTIM">      0.20000000</i>
   <i name="SMASS">     -3.00000000</i>
   <i name="SCALEE">      1.00000000</i>
  </separator>
  <separator name="ionic md" >
   <i name="TEBEG">      0.00010000</i>
   <i name="TEEND">      0.00010000</i>
   <i type="int" name="NBLOCK">     1</i>
   <i type="int" name="KBLOCK">  5000</i>
   <i type="int" name="NPACO">   256</i>
   <i name="APACO">     16.00000000</i>
  </separator>
  <separator name="symmetry" >
   <i type="int" name="ISYM">     0</i>
   <i name="SYMPREC">      0.00001000</i>
  </separator>
  <separator name="dos" >
   <i type="int" name="LORBIT">     0</i>
   <v name="RWIGS">     -1.00000000     -1.00000000     -1.00000000</v>
   <i type="int" name="NEDOS">   301</i>
   <i name="EMIN">     10.00000000</i>
   <i name="EMAX">    -10.00000000</i>
   <i name="EFERMI">      0.00000000</i>
  </separator>
  <separator name="writing" >
   <i type="int" name="NWRITE">     2</i>
   <i type="logical" name="LWAVE"> F  </i>
   <i type="logical" name="LDOWNSAMPLE"> F  </i>
   <i type="logical" name="LCHARG"> F  </i>
   <i type="logical" name="LPARD"> F  </i>
   <i type="logical" name="LVTOT"> F  </i>
   <i type="logical" name="LVHAR"> F  </i>
   <i type="logical" name="LELF"> F  </i>
   <i type="logical" name="LOPTICS"> F  </i>
   <v name="STM">      0.00000000      0.00000000      0.00000000      0.00000000      0.00000000      0.00000000      0.00000000</v>
  </separator>
  <separator name="performance" >
   <i type="int" name="NPAR">     4</i>
   <i type="int" name="NSIM">     4</i>
   <i type="int" name="NBLK">    -1</i>
   <i type="logical" name="LPLANE"> T  </i>
   <i type="logical" name="LSCALAPACK"> T  </i>
   <i type="logical" name="LSCAAWARE"> F  </i>
   <i type="logical" name="LSCALU"> F  </i>
   <i type="logical" name="LASYNC"> F  </i>
   <i type="logical" name="LORBITALREAL"> F  </i>
  </separator>
  <separator name="miscellaneous" >
   <i type="int" name="IDIOT">     3</i>
   <i type="int" name="ISPECIAL">     0</i>
   <i type="logical" name="LMUSIC"> F  </i>
   <v name="POMASS">     12.01100000     16.00000000    195.08000000</v>
   <v name="DARWINR">      0.00000000      0.00000000      0.00000000</v>
   <v name="DARWINV">      1.00000000      1.00000000      1.00000000</v>
   <i type="logical" name="LCORR"> T  </i>
  </separator>
  <i type="logical" name="GGA_COMPAT"> T  </i>
  <i type="logical" name="LBERRY"> F  </i>
  <i type="int" name="ICORELEVEL">     0</i>
  <i type="logical" name="LDAU"> F  </i>
  <i type="int" name="I_CONSTRAINED_M">     0</i>
  <separator name="electronic exchange-correlation" >
   <i type="string" name="GGA">--</i>
   <i type="int" name="VOSKOWN">     0</i>
   <i type="logical" name="LHFCALC"> F  </i>
   <i type="string" name="PRECFOCK"></i>
   <i type="logical" name="LSYMGRAD"> F  </i>
   <i type="logical" name="LHFONE"> F  </i>
   <i type="logical" name="LRHFCALC"> F  </i>
   <i type="logical" name="LTHOMAS"> F  </i>
   <i type="logical" name="LMODELHF"> F  </i>
   <i name="ENCUT4O">     -1.00000000</i>
   <i type="int" name="EXXOEP">     0</i>
   <i type="int" name="FOURORBIT">     0</i>
   <i name="AEXX">      0.00000000</i>
   <i name="HFALPHA">      0.00000000</i>
   <i name="MCALPHA">      0.00000000</i>
   <i name="ALDAX">      1.00000000</i>
   <i name="AGGAX">      1.00000000</i>
   <i name="ALDAC">      1.00000000</i>
   <i name="AGGAC">      1.00000000</i>
   <i type="int" name="NKREDX">     1</i>
   <i type="int" name="NKREDY">     1</i>
   <i type="int" name="NKREDZ">     1</i>
   <i type="logical" name="SHIFTRED"> F  </i>
   <i type="logical" name="ODDONLY"> F  </i>
   <i type="logical" name="EVENONLY"> F  </i>
   <i type="int" name="LMAXFOCK">     0</i>
   <i type="int" name="NMAXFOCKAE">     0</i>
   <i type="logical" name="LFOCKAEDFT"> F  </i>
   <i name="HFSCREEN">      0.00000000</i>
   <i name="HFSCREENC">      0.00000000</i>
   <i type="int" name="NBANDSGWLOW">     0</i>
  </separator>
  <separator name="vdW DFT" >
   <i type="logical" name="LUSE_VDW"> F  </i>
   <i name="Zab_VDW">     -0.84910000</i>
   <i name="PARAM1">      0.12340000</i>
   <i name="PARAM2">      1.00000000</i>
   <i name="PARAM3">      0.00000000</i>
  </separator>
  <separator name="model GW" >
   <i type="int" name="MODEL_GW">     0</i>
   <i name="MODEL_EPS0">     20.69566731</i>
   <i name="MODEL_ALPHA">      1.00000000</i>
  </separator>
  <separator name="linear response parameters" >
   <i type="logical" name="LEPSILON"> F  </i>
   <i type="logical" name="LRPA"> F  </i>
   <i type="logical" name="LNABLA"> F  </i>
   <i type="logical" name="LVEL"> F  </i>
   <i type="int" name="KINTER">     0</i>
   <i name="CSHIFT">      0.10000000</i>
   <i name="OMEGAMAX">     -1.00000000</i>
   <i name="DEG_THRESHOLD">      0.00200000</i>
   <i name="RTIME">     -0.10000000</i>
   <i name="WPLASMAI">      0.00000000</i>
   <v name="DFIELD">      0.00000000      0.00000000      0.00000000</v>
   <v name="WPLASMA">      0.00000000      0.00000000      0.00000000      0.00000000      0.00000000      0.00000000      0.00000000      0.00000000      0.00000000</v>
  </separator>
  <separator name="orbital magnetization" >
   <i type="logical" name="NUCIND"> F  </i>
   <v name="MAGPOS">      0.00000000      0.00000000      0.00000000</v>
   <i type="logical" name="LNICSALL"> T  </i>
   <i type="logical" name="ORBITALMAG"> F  </i>
   <i type="logical" name="LMAGBLOCH"> F  </i>
   <i type="logical" name="LCHIMAG"> F  </i>
   <i type="logical" name="LGAUGE"> T  </i>
   <i type="int" name="MAGATOM">     0</i>
   <v name="MAGDIPOL">      0.00000000      0.00000000      0.00000000</v>
   <v name="AVECCONST">      0.00000000      0.00000000      0.00000000</v>
  </separator>
  <separator name="response functions" >
   <i type="logical" name="LADDER"> F  </i>
   <i type="logical" name="LRPAFORCE"> F  </i>
   <i type="logical" name="LFXC"> F  </i>
   <i type="logical" name="LHARTREE"> T  </i>
   <i type="int" name="IBSE">     0</i>
   <v type="int" name="KPOINT">    -1     0     0     0</v>
   <i type="logical" name="LTCTE"> F  </i>
   <i type="logical" name="LTETE"> F  </i>
   <i type="logical" name="LTRIPLET"> F  </i>
   <i type="logical" name="LFXCEPS"> F  </i>
   <i type="logical" name="LFXHEG"> F  </i>
   <i type="int" name="NATURALO">     2</i>
   <i type="logical" name="L2ORDER"> F  </i>
   <i type="logical" name="LMP2LT"> F  </i>
   <i type="logical" name="LUSEW"> F  </i>
   <i name="ENCUTGW">     -2.00000000</i>
   <i name="ENCUTGWSOFT">     -2.00000000</i>
   <i name="ENCUTLF">     -1.00000000</i>
   <i type="int" name="LMAXMP2">    -1</i>
   <i name="SCISSOR">      0.00000000</i>
   <i type="int" name="NOMEGA">     0</i>
   <i type="int" name="NOMEGAR">     0</i>
   <i type="int" name="NBANDSGW">    -1</i>
   <i type="int" name="NBANDSO">    -1</i>
   <i type="int" name="NBANDSV">    -1</i>
   <i type="int" name="NELM">     1</i>
   <i type="int" name="NELMHF">     1</i>
   <i type="int" name="DIM">     3</i>
   <i type="int" name="ANTIRES">     0</i>
   <i name="OMEGAMAX">    -30.00000000</i>
   <i name="OMEGAMIN">    -30.00000000</i>
   <i name="OMEGATL">   -200.00000000</i>
   <i type="int" name="OMEGAGRID">   140</i>
   <i name="CSHIFT">     -0.10000000</i>
   <i type="logical" name="SELFENERGY"> F  </i>
   <i type="logical" name="LSPECTRAL"> F  </i>
   <i type="logical" name="LSPECTRALGW"> F  </i>
   <i type="logical" name="LSINGLES"> F  </i>
   <i type="logical" name="LFERMIGW"> F  </i>
   <i type="logical" name="ODDONLYGW"> F  </i>
   <i type="logical" name="EVENONLYGW"> F  </i>
   <i type="int" name="NKREDLFX">     1</i>
   <i type="int" name="NKREDLFY">     1</i>
   <i type="int" name="NKREDLFZ">     1</i>
   <i type="int" name="MAXMEM">  2800</i>
   <i type="int" name="TELESCOPE">     0</i>
   <i type="int" name="TAUPAR">     1</i>
   <i type="int" name="OMEGAPAR">    -1</i>
   <i name="LAMBDA">      1.00000000</i>
  </separator>
  <separator name="External order field" >
   <i name="OFIELD_KAPPA">      0.00000000</i>
   <v name="OFIELD_K">      0.00000000      0.00000000      0.00000000</v>
   <i name="OFIELD_Q6_NEAR">      0.00000000</i>
   <i name="OFIELD_Q6_FAR">      0.00000000</i>
   <i name="OFIELD_A">      0.00000000</i>
  </separator>
  <separator name="solvation model" >
   <i type="logical" name="LSOL"> F  </i>
  </separator>
 </parameters>
 <atominfo>
  <atoms>      39 </atoms>
  <types>       3 </types>
  <array name="atoms" >
   <dimension dim="1">ion</dimension>
   <field type="string">element</field>
   <field type="int">atomtype</field>
   <set>
    <rc><c>C </c><c>   1</c></rc>
    <rc><c>O </c><c>   2</c></rc>
    <rc><c>O </c><c>   2</c></rc>
    <rc><c>Pt</c><c>   3</c></rc>
    <rc><c>Pt</c><c>   3</c></rc>
    <rc><c>Pt</c><c>   3</c></rc>
    <rc><c>Pt</c><c>   3</c></rc>
    <rc><c>Pt</c><c>   3</c></rc>
    <rc><c>Pt</c><c>   3</c></rc>
    <rc><c>Pt</c><c>   3</c></rc>
    <rc><c>Pt</c><c>   3</c></rc>
    <rc><c>Pt</c><c>   3</c></rc>
    <rc><c>Pt</c><c>   3</c></rc>
    <rc><c>Pt</c><c>   3</c></rc>
    <rc><c>Pt</c><c>   3</c></rc>
    <rc><c>Pt</c><c>   3</c></rc>
    <rc><c>Pt</c><c>   3</c></rc>
    <rc><c>Pt</c><c>   3</c></rc>
    <rc><c>Pt</c><c>   3</c></rc>
    <rc><c>Pt</c><c>   3</c></rc>
    <rc><c>Pt</c><c>   3</c></rc>
    <rc><c>Pt</c><c>   3</c></rc>
    <rc><c>Pt</c><c>   3</c></rc>
    <rc><c>Pt</c><c>   3</c></rc>
    <rc><c>Pt</c><c>   3</c></rc>
    <rc><c>Pt</c><c>   3</c></rc>
    <rc><c>Pt</c><c>   3</c></rc>
    <rc><c>Pt</c><c>   3</c></rc>
    <rc><c>Pt</c><c>   3</c></rc>
    <rc><c>Pt</c><c>   3</c></rc>
    <rc><c>Pt</c><c>   3</c></rc>
    <rc><c>Pt</c><c>   3</c></rc>
    <rc><c>Pt</c><c>   3</c></rc>
    <rc><c>Pt</c><c>   3</c></rc>
    <rc><c>Pt</c><c>   3</c></rc>
    <rc><c>Pt</c><c>   3</c></rc>
    <rc><c>Pt</c><c>   3</c></rc>
    <rc><c>Pt</c><c>   3</c></rc>
    <rc><c>Pt</c><c>   3</c></rc>
   </set>
  </array>
  <array name="atomtypes" >
   <dimension dim="1">type</dimension>
   <field type="int">atomspertype</field>
   <field type="string">element</field>
   <field>mass</field>
   <field>valence</field>
   <field type="string">pseudopotential</field>
   <set>
    <rc><c>   1</c><c>C </c><c>     12.01100000</c><c>      4.00000000</c><c> PAW_PBE C 08Apr2002                    </c></rc>
    <rc><c>   2</c><c>O </c><c>     16.00000000</c><c>      6.00000000</c><c> PAW_PBE O 08Apr2002                    </c></rc>
    <rc><c>  36</c><c>Pt</c><c>    195.08000000</c><c>     10.00000000</c><c>  PAW_PBE Pt 04Feb2005                  </c></rc>
   </set>
  </array>
 </atominfo>
 <structure name="initialpos" >
  <crystal>
   <varray name="basis" >
    <v>       7.29695512      -4.21289900       0.00000000 </v>
    <v>       0.00000000       8.42579800       0.00000000 </v>
    <v>       0.00000000       0.00000000      21.87963500 </v>
   </varray>
   <i name="volume">   1345.21837528 </i>
   <varray name="rec_basis" >
    <v>       0.13704346       0.00000000       0.00000000 </v>
    <v>       0.06852173       0.11868312       0.00000000 </v>
    <v>       0.00000000       0.00000000       0.04570460 </v>
   </varray>
  </crystal>
  <varray name="positions" >
   <v>       0.70122439       0.43875846       0.48016351 </v>
   <v>       0.90635845       0.38744674       0.46813794 </v>
   <v>       0.67308784       0.46561434       0.53005204 </v>
   <v>       0.98675500       0.32859100       0.07437600 </v>
   <v>       0.32008800       0.32859100       0.07437600 </v>
   <v>       0.65342200       0.32859100       0.07437600 </v>
   <v>       0.98675500       0.66192500       0.07437600 </v>
   <v>       0.32008800       0.66192500       0.07437600 </v>
   <v>       0.65342200       0.66192500       0.07437600 </v>
   <v>       0.32008800       0.99525800       0.07437600 </v>
   <v>       0.65342200       0.99525800       0.07437600 </v>
   <v>       0.98675500       0.99525800       0.07437600 </v>
   <v>       0.20897700       0.10636900       0.17918600 </v>
   <v>       0.54231100       0.10636900       0.17918600 </v>
   <v>       0.87564400       0.10636900       0.17918600 </v>
   <v>       0.20897700       0.43970300       0.17918600 </v>
   <v>       0.54231100       0.43970300       0.17918600 </v>
   <v>       0.87564400       0.43970300       0.17918600 </v>
   <v>       0.20897700       0.77303600       0.17918600 </v>
   <v>       0.54231100       0.77303600       0.17918600 </v>
   <v>       0.87564400       0.77303600       0.17918600 </v>
   <v>       0.09384869       0.54945563       0.28208095 </v>
   <v>       0.43437380       0.88840425       0.27791043 </v>
   <v>       0.75932295       0.21759259       0.28470584 </v>
   <v>       0.09781085       0.21743483       0.28849573 </v>
   <v>       0.43357999       0.22101932       0.28196479 </v>
   <v>       0.10231731       0.88618548       0.27971148 </v>
   <v>       0.76858187       0.88706441       0.28570165 </v>
   <v>       0.43400211       0.54985913       0.28671417 </v>
   <v>       0.76147806       0.54820933       0.28296809 </v>
   <v>       0.32222651       0.66234295       0.38427284 </v>
   <v>       0.65172888       0.98517837       0.39022339 </v>
   <v>       0.32267034       0.32679125       0.38951936 </v>
   <v>       0.98840581       0.99218433       0.38719787 </v>
   <v>       0.32131179       0.99639099       0.38450658 </v>
   <v>       0.63878857       0.31846862       0.39020950 </v>
   <v>       0.99831785       0.66561290       0.38889526 </v>
   <v>       0.99410213       0.32089956       0.38818527 </v>
   <v>       0.65309046       0.66152840       0.38904347 </v>
  </varray>
  <varray name="selective"  type="logical" >
   <v type="logical" >  T  T  T </v>
   <v type="logical" >  T  T  T </v>
   <v type="logical" >  T  T  T </v>
   <v type="logical" >  F  F  F </v>
   <v type="logical" >  F  F  F </v>
   <v type="logical" >  F  F  F </v>
   <v type="logical" >  F  F  F </v>
   <v type="logical" >  F  F  F </v>
   <v type="logical" >  F  F  F </v>
   <v type="logical" >  F  F  F </v>
   <v type="logical" >  F  F  F </v>
   <v type="logical" >  F  F  F </v>
   <v type="logical" >  F  F  F </v>
   <v type="logical" >  F  F  F </v>
   <v type="logical" >  F  F  F </v>
   <v type="logical" >  F  F  F </v>
   <v type="logical" >  F  F  F </v>
   <v type="logical" >  F  F  F </v>
   <v type="logical" >  F  F  F </v>
   <v type="logical" >  F  F  F </v>
   <v type="logical" >  F  F  F </v>
   <v type="logical" >  T  T  T </v>
   <v type="logical" >  T  T  T </v>
   <v type="logical" >  T  T  T </v>
   <v type="logical" >  T  T  T </v>
   <v type="logical" >  T  T  T </v>
   <v type="logical" >  T  T  T </v>
   <v type="logical" >  T  T  T </v>
   <v type="logical" >  T  T  T </v>
   <v type="logical" >  T  T  T </v>
   <v type="logical" >  T  T  T </v>
   <v type="logical" >  T  T  T </v>
   <v type="logical" >  T  T  T </v>
   <v type="logical" >  T  T  T </v>
   <v type="logical" >  T  T  T </v>
   <v type="logical" >  T  T  T </v>
   <v type="logical" >  T  T  T </v>
   <v type="logical" >  T  T  T </v>
   <v type="logical" >  T  T  T </v>
  </varray>
  <nose>
   <v>      -3.00000000       0.00000000       0.00010000       0.00010000 </v>
  </nose>
 </structure>
 <calculation>
  <scstep>
   <time name="dav">    8.31    8.37</time>
   <time name="total">    8.45    8.70</time>
   <energy>
    <i name="alphaZ">    975.10247152 </i>
    <i name="ewald">  91195.57412748 </i>
    <i name="hartreedc">-120289.85891016 </i>
    <i name="XCdc">    189.28248116 </i>
    <i name="pawpsdc">  24789.08602224 </i>
    <i name="pawaedc"> -23775.73976456 </i>
    <i name="eentropy">      0.01450793 </i>
    <i name="bandstr">   2072.54801685 </i>
    <i name="atom">  27259.89416086 </i>
    <i name="e_fr_energy">   2415.90311332 </i>
    <i name="e_wo_entrp">   2415.88860539 </i>
    <i name="e_0_energy">   2415.89827735 </i>
   </energy>
  </scstep>
  <scstep>
   <time name="dav">    8.84    8.90</time>
   <time name="total">    8.84    8.90</time>
   <energy>
    <i name="e_fr_energy">    -64.14909622 </i>
    <i name="e_wo_entrp">    -64.11763287 </i>
    <i name="e_0_energy">    -64.13860844 </i>
   </energy>
  </scstep>
  <scstep>
   <time name="dav">    9.16    9.23</time>
   <time name="total">    9.17    9.23</time>
   <energy>
    <i name="e_fr_energy">   -240.44509642 </i>
    <i name="e_wo_entrp">   -240.44901391 </i>
    <i name="e_0_energy">   -240.44640225 </i>
   </energy>
  </scstep>
  <scstep>
   <time name="dav">   10.02   10.09</time>
   <time name="total">   10.02   10.09</time>
   <energy>
    <i name="e_fr_energy">   -248.12319477 </i>
    <i name="e_wo_entrp">   -248.12881878 </i>
    <i name="e_0_energy">   -248.12506944 </i>
   </energy>
  </scstep>
  <scstep>
   <time name="dav">   10.25   10.32</time>
   <time name="total">   10.63   10.70</time>
   <energy>
    <i name="e_fr_energy">   -248.34985042 </i>
    <i name="e_wo_entrp">   -248.35565121 </i>
    <i name="e_0_energy">   -248.35178402 </i>
   </energy>
  </scstep>
  <scstep>
   <time name="diag">    1.23    1.23</time>
   <time name="diis">    4.52    4.55</time>
   <time name="orth">    0.22    0.22</time>
   <time name="total">    6.48    6.53</time>
   <energy>
    <i name="e_fr_energy">   -246.82046894 </i>
    <i name="e_wo_entrp">   -246.63367258 </i>
    <i name="e_0_energy">   -246.75820349 </i>
   </energy>
  </scstep>
  <scstep>
   <time name="diag">    1.26    1.27</time>
   <time name="diis">    4.38    4.41</time>
   <time name="orth">    0.22    0.22</time>
   <time name="total">    6.37    6.41</time>
   <energy>
    <i name="e_fr_energy">   -237.96419206 </i>
    <i name="e_wo_entrp">   -237.86910948 </i>
    <i name="e_0_energy">   -237.93249787 </i>
   </energy>
  </scstep>
  <scstep>
   <time name="diag">    1.24    1.25</time>
   <time name="diis">    4.62    4.65</time>
   <time name="orth">    0.22    0.23</time>
   <time name="total">    6.60    6.64</time>
   <energy>
    <i name="e_fr_energy">   -244.49610985 </i>
    <i name="e_wo_entrp">   -244.55869608 </i>
    <i name="e_0_energy">   -244.51697193 </i>
   </energy>
  </scstep>
  <scstep>
   <time name="diag">    1.26    1.26</time>
   <time name="diis">    4.54    4.57</time>
   <time name="orth">    0.22    0.22</time>
   <time name="total">    6.54    6.59</time>
   <energy>
    <i name="e_fr_energy">   -231.61835053 </i>
    <i name="e_wo_entrp">   -231.58670942 </i>
    <i name="e_0_energy">   -231.60780349 </i>
   </energy>
  </scstep>
  <scstep>
   <time name="diag">    1.22    1.23</time>
   <time name="diis">    4.36    4.39</time>
   <time name="orth">    0.22    0.22</time>
   <time name="total">    6.30    6.34</time>
   <energy>
    <i name="e_fr_energy">   -230.37809382 </i>
    <i name="e_wo_entrp">   -230.35800683 </i>
    <i name="e_0_energy">   -230.37139816 </i>
   </energy>
  </scstep>
  <scstep>
   <time name="diag">    1.22    1.23</time>
   <time name="diis">    4.46    4.49</time>
   <time name="orth">    0.22    0.22</time>
   <time name="total">    6.41    6.45</time>
   <energy>
    <i name="e_fr_energy">   -229.95429008 </i>
    <i name="e_wo_entrp">   -229.92155794 </i>
    <i name="e_0_energy">   -229.94337937 </i>
   </energy>
  </scstep>
  <scstep>
   <time name="diag">    1.23    1.24</time>
   <time name="diis">    4.40    4.43</time>
   <time name="orth">    0.22    0.22</time>
   <time name="total">    6.37    6.41</time>
   <energy>
    <i name="e_fr_energy">   -229.86516651 </i>
    <i name="e_wo_entrp">   -229.84135365 </i>
    <i name="e_0_energy">   -229.85722889 </i>
   </energy>
  </scstep>
  <scstep>
   <time name="diag">    1.21    1.22</time>
   <time name="diis">    4.58    4.61</time>
   <time name="orth">    0.23    0.23</time>
   <time name="total">    6.55    6.60</time>
   <energy>
    <i name="e_fr_energy">   -229.82121840 </i>
    <i name="e_wo_entrp">   -229.80120200 </i>
    <i name="e_0_energy">   -229.81454627 </i>
   </energy>
  </scstep>
  <scstep>
   <time name="diag">    1.28    1.29</time>
   <time name="diis">    4.54    4.57</time>
   <time name="orth">    0.22    0.22</time>
   <time name="total">    6.60    6.64</time>
   <energy>
    <i name="e_fr_energy">   -229.80068569 </i>
    <i name="e_wo_entrp">   -229.78627597 </i>
    <i name="e_0_energy">   -229.79588245 </i>
   </energy>
  </scstep>
  <scstep>
   <time name="diag">    1.28    1.28</time>
   <time name="diis">    4.46    4.49</time>
   <time name="orth">    0.21    0.21</time>
   <time name="total">    6.45    6.49</time>
   <energy>
    <i name="e_fr_energy">   -229.77951185 </i>
    <i name="e_wo_entrp">   -229.76179833 </i>
    <i name="e_0_energy">   -229.77360734 </i>
   </energy>
  </scstep>
  <scstep>
   <time name="diag">    1.17    1.17</time>
   <time name="diis">    4.44    4.47</time>
   <time name="orth">    0.22    0.22</time>
   <time name="total">    6.35    6.39</time>
   <energy>
    <i name="e_fr_energy">   -229.77616750 </i>
    <i name="e_wo_entrp">   -229.75980682 </i>
    <i name="e_0_energy">   -229.77071394 </i>
   </energy>
  </scstep>
  <scstep>
   <time name="diag">    1.26    1.27</time>
   <time name="diis">    4.31    4.34</time>
   <time name="orth">    0.22    0.22</time>
   <time name="total">    6.32    6.36</time>
   <energy>
    <i name="e_fr_energy">   -229.77600017 </i>
    <i name="e_wo_entrp">   -229.75883191 </i>
    <i name="e_0_energy">   -229.77027741 </i>
   </energy>
  </scstep>
  <scstep>
   <time name="diag">    1.26    1.27</time>
   <time name="diis">    4.47    4.50</time>
   <time name="orth">    0.22    0.22</time>
   <time name="total">    6.48    6.52</time>
   <energy>
    <i name="e_fr_energy">   -229.77543295 </i>
    <i name="e_wo_entrp">   -229.75915037 </i>
    <i name="e_0_energy">   -229.77000542 </i>
   </energy>
  </scstep>
  <scstep>
   <time name="diag">    1.34    1.35</time>
   <time name="diis">    3.71    3.73</time>
   <time name="orth">    0.22    0.22</time>
   <time name="total">    5.80    5.84</time>
   <energy>
    <i name="e_fr_energy">   -229.77528805 </i>
    <i name="e_wo_entrp">   -229.75842713 </i>
    <i name="e_0_energy">   -229.76966774 </i>
   </energy>
  </scstep>
  <scstep>
   <time name="diag">    1.28    1.29</time>
   <time name="diis">    2.78    2.80</time>
   <time name="orth">    0.22    0.22</time>
   <time name="total">    4.80    4.83</time>
   <energy>
    <i name="e_fr_energy">   -229.77545479 </i>
    <i name="e_wo_entrp">   -229.75879853 </i>
    <i name="e_0_energy">   -229.76990271 </i>
   </energy>
  </scstep>
  <scstep>
   <time name="diag">    1.22    1.22</time>
   <time name="diis">    2.52    2.54</time>
   <time name="orth">    0.20    0.20</time>
   <time name="total">    4.44    4.47</time>
   <energy>
    <i name="e_fr_energy">   -229.77559489 </i>
    <i name="e_wo_entrp">   -229.75890891 </i>
    <i name="e_0_energy">   -229.77003290 </i>
   </energy>
  </scstep>
  <scstep>
   <time name="diag">    1.23    1.24</time>
   <time name="diis">    2.60    2.62</time>
   <time name="orth">    0.22    0.22</time>
   <time name="total">    4.56    4.59</time>
   <energy>
    <i name="e_fr_energy">   -229.77575792 </i>
    <i name="e_wo_entrp">   -229.75915426 </i>
    <i name="e_0_energy">   -229.77022337 </i>
   </energy>
  </scstep>
  <scstep>
   <time name="diag">    1.28    1.29</time>
   <time name="diis">    2.44    2.46</time>
   <time name="orth">    0.21    0.21</time>
   <time name="total">    4.45    4.48</time>
   <energy>
    <i name="e_fr_energy">   -229.77590762 </i>
    <i name="e_wo_entrp">   -229.75925361 </i>
    <i name="e_0_energy">   -229.77035629 </i>
   </energy>
  </scstep>
  <scstep>
   <time name="diag">    1.19    1.20</time>
   <time name="diis">    2.63    2.65</time>
   <time name="orth">    0.21    0.21</time>
   <time name="total">    4.53    4.56</time>
   <energy>
    <i name="e_fr_energy">   -229.77614426 </i>
    <i name="e_wo_entrp">   -229.75952362 </i>
    <i name="e_0_energy">   -229.77060405 </i>
   </energy>
  </scstep>
  <scstep>
   <time name="diag">    1.30    1.31</time>
   <time name="diis">    2.16    2.17</time>
   <time name="orth">    0.22    0.22</time>
   <time name="total">    4.21    4.24</time>
   <energy>
    <i name="e_fr_energy">   -229.77624629 </i>
    <i name="e_wo_entrp">   -229.75971110 </i>
    <i name="e_0_energy">   -229.77073456 </i>
   </energy>
  </scstep>
  <scstep>
   <time name="diag">    1.55    1.56</time>
   <time name="diis">    2.60    2.62</time>
   <time name="orth">    0.25    0.25</time>
   <time name="total">    4.96    4.99</time>
   <energy>
    <i name="e_fr_energy">   -229.77643550 </i>
    <i name="e_wo_entrp">   -229.75983589 </i>
    <i name="e_0_energy">   -229.77090230 </i>
   </energy>
  </scstep>
  <scstep>
   <time name="diag">    1.36    1.37</time>
   <time name="diis">    2.40    2.42</time>
   <time name="orth">    0.21    0.22</time>
   <time name="total">    4.52    4.55</time>
   <energy>
    <i name="e_fr_energy">   -229.77656473 </i>
    <i name="e_wo_entrp">   -229.76002527 </i>
    <i name="e_0_energy">   -229.77105158 </i>
   </energy>
  </scstep>
  <scstep>
   <time name="diag">    1.42    1.43</time>
   <time name="diis">    2.28    2.29</time>
   <time name="orth">    0.24    0.24</time>
   <time name="total">    4.07    4.10</time>
   <energy>
    <i name="alphaZ">    975.10247152 </i>
    <i name="ewald">  91195.57412748 </i>
    <i name="hartreedc">-119906.60697742 </i>
    <i name="XCdc">    177.77583263 </i>
    <i name="pawpsdc">  30049.00953773 </i>
    <i name="pawaedc"> -29134.47460145 </i>
    <i name="eentropy">     -0.01653307 </i>
    <i name="bandstr">   -846.03465742 </i>
    <i name="atom">  27259.89416086 </i>
    <i name="e_fr_energy">   -229.77663913 </i>
    <i name="e_wo_entrp">   -229.76010607 </i>
    <i name="e_0_energy">   -229.77112811 </i>
   </energy>
  </scstep>
  <structure>
   <crystal>
    <varray name="basis" >
     <v>       7.29695512      -4.21289900       0.00000000 </v>
     <v>       0.00000000       8.42579800       0.00000000 </v>
     <v>       0.00000000       0.00000000      21.87963500 </v>
    </varray>
    <i name="volume">   1345.21837528 </i>
    <varray name="rec_basis" >
     <v>       0.13704346       0.00000000       0.00000000 </v>
     <v>       0.06852173       0.11868312       0.00000000 </v>
     <v>       0.00000000       0.00000000       0.04570460 </v>
    </varray>
   </crystal>
   <varray name="positions" >
    <v>       0.70122439       0.43875846       0.48016351 </v>
    <v>       0.90635845       0.38744674       0.46813794 </v>
    <v>       0.67308784       0.46561434       0.53005204 </v>
    <v>       0.98675500       0.32859100       0.07437600 </v>
    <v>       0.32008800       0.32859100       0.07437600 </v>
    <v>       0.65342200       0.32859100       0.07437600 </v>
    <v>       0.98675500       0.66192500       0.07437600 </v>
    <v>       0.32008800       0.66192500       0.07437600 </v>
    <v>       0.65342200       0.66192500       0.07437600 </v>
    <v>       0.32008800       0.99525800       0.07437600 </v>
    <v>       0.65342200       0.99525800       0.07437600 </v>
    <v>       0.98675500       0.99525800       0.07437600 </v>
    <v>       0.20897700       0.10636900       0.17918600 </v>
    <v>       0.54231100       0.10636900       0.17918600 </v>
    <v>       0.87564400       0.10636900       0.17918600 </v>
    <v>       0.20897700       0.43970300       0.17918600 </v>
    <v>       0.54231100       0.43970300       0.17918600 </v>
    <v>       0.87564400       0.43970300       0.17918600 </v>
    <v>       0.20897700       0.77303600       0.17918600 </v>
    <v>       0.54231100       0.77303600       0.17918600 </v>
    <v>       0.87564400       0.77303600       0.17918600 </v>
    <v>       0.09384869       0.54945563       0.28208095 </v>
    <v>       0.43437380       0.88840425       0.27791043 </v>
    <v>       0.75932295       0.21759259       0.28470584 </v>
    <v>       0.09781085       0.21743483       0.28849573 </v>
    <v>       0.43357999       0.22101932       0.28196479 </v>
    <v>       0.10231731       0.88618548       0.27971148 </v>
    <v>       0.76858187       0.88706441       0.28570165 </v>
    <v>       0.43400211       0.54985913       0.28671417 </v>
    <v>       0.76147806       0.54820933       0.28296809 </v>
    <v>       0.32222651       0.66234295       0.38427284 </v>
    <v>       0.65172888       0.98517837       0.39022339 </v>
    <v>       0.32267034       0.32679125       0.38951936 </v>
    <v>       0.98840581       0.99218433       0.38719787 </v>
    <v>       0.32131179       0.99639099       0.38450658 </v>
    <v>       0.63878857       0.31846862       0.39020950 </v>
    <v>       0.99831785       0.66561290       0.38889526 </v>
    <v>       0.99410213       0.32089956       0.38818527 </v>
    <v>       0.65309046       0.66152840       0.38904347 </v>
   </varray>
  </structure>
  <varray name="forces" >
   <v>      -0.25305238      -1.50882816      -1.89196770 </v>
   <v>       0.46655292       0.29336565      -0.85228899 </v>
   <v>       0.29483199      -0.02893314      -0.30487924 </v>
   <v>       0.00216819      -0.05203186       0.10088986 </v>
   <v>      -0.06678534      -0.04660351       0.21949332 </v>
   <v>      -0.00345628      -0.06774816       0.14680714 </v>
   <v>       0.03280848       0.04640882       0.13373082 </v>
   <v>      -0.02237269       0.02592856       0.09133829 </v>
   <v>       0.00505346       0.01719498       0.22288878 </v>
   <v>       0.02349045      -0.08107019      -0.02407345 </v>
   <v>       0.00321888       0.03832554       0.09176981 </v>
   <v>       0.02504987       0.02069265       0.06291903 </v>
   <v>      -0.04254381       0.27536338      -0.17713391 </v>
   <v>       0.18911278       0.22826566      -0.50800385 </v>
   <v>       0.17175162      -0.02228591       0.27932706 </v>
   <v>       0.02916306      -0.14729124       0.30086517 </v>
   <v>      -0.07986261       0.19479605      -0.06120809 </v>
   <v>      -0.07590145      -0.04326402      -0.08285566 </v>
   <v>      -0.13465257      -0.12201444      -0.64492411 </v>
   <v>       0.20442440      -0.28332552      -0.03955117 </v>
   <v>      -0.08587661       0.16162371      -0.10522987 </v>
   <v>       0.24667423      -0.24474733       0.09921710 </v>
   <v>      -0.08266292      -0.41801658       1.16683858 </v>
   <v>       0.31434706      -0.23610304      -0.00375697 </v>
   <v>      -0.06717878       0.41235424      -1.17648147 </v>
   <v>      -0.17316141      -0.12052584       0.15475351 </v>
   <v>      -0.48149768      -0.16405508       0.79324385 </v>
   <v>      -0.32537310      -0.10916248      -0.60817859 </v>
   <v>      -0.19508900       0.25910916      -0.94277758 </v>
   <v>       0.44912182       0.20577275       0.21361469 </v>
   <v>       0.08552866       0.23079312       0.19379373 </v>
   <v>      -0.10036293       0.34525736      -0.55201333 </v>
   <v>      -0.15173520      -0.02786257       0.00575417 </v>
   <v>      -0.01724299      -0.42607302       0.43284357 </v>
   <v>      -0.15156850      -0.45802137       0.11510915 </v>
   <v>       0.53757362       0.92177205       1.77835685 </v>
   <v>      -0.29062688       0.25325026      -0.38843954 </v>
   <v>      -0.68328060       0.74494253       1.66850360 </v>
   <v>       0.40341223      -0.06725298       0.09170545 </v>
  </varray>
  <varray name="stress" >
   <v>     -42.31173983       1.63672214       1.57720758 </v>
   <v>       1.63672219     -46.18798601      -1.91389242 </v>
   <v>       1.57720757      -1.91389237     -10.63769551 </v>
  </varray>
  <energy>
   <i name="e_fr_energy">   -229.77663913 </i>
   <i name="e_wo_entrp">   -229.77112811 </i>
   <i name="e_0_energy">     -0.01653307 </i>
  </energy>
  <time name="totalsc">  188.49  190.46</time>
 </calculation>
 <calculation>
  <scstep>
   <time name="dav">    9.44    9.50</time>
   <time name="total">   10.02   10.10</time>
   <energy>
    <i name="alphaZ">    975.10247152 </i>
    <i name="ewald">  91138.95540736 </i>
    <i name="hartreedc">-119852.71902184 </i>
    <i name="XCdc">    177.68076591 </i>
    <i name="pawpsdc">  30049.15468912 </i>
    <i name="pawaedc"> -29134.62223680 </i>
    <i name="eentropy">     -0.01582922 </i>
    <i name="bandstr">   -843.49374243 </i>
    <i name="atom">  27259.89416086 </i>
    <i name="e_fr_energy">   -230.06333551 </i>
    <i name="e_wo_entrp">   -230.04750629 </i>
    <i name="e_0_energy">   -230.05805911 </i>
   </energy>
  </scstep>
  <scstep>
   <time name="diag">    1.42    1.43</time>
   <time name="diis">    4.49    4.52</time>
   <time name="orth">    0.22    0.22</time>
   <time name="total">    6.67    6.72</time>
   <energy>
    <i name="e_fr_energy">   -230.19434269 </i>
    <i name="e_wo_entrp">   -230.19351359 </i>
    <i name="e_0_energy">   -230.19406632 </i>
   </energy>
  </scstep>
  <scstep>
   <time name="diag">    1.31    1.32</time>
   <time name="diis">    4.93    4.96</time>
   <time name="orth">    0.22    0.22</time>
   <time name="total">    6.99    7.04</time>
   <energy>
    <i name="e_fr_energy">   -230.14776415 </i>
    <i name="e_wo_entrp">   -230.13121194 </i>
    <i name="e_0_energy">   -230.14224675 </i>
   </energy>
  </scstep>
  <scstep>
   <time name="diag">    1.17    1.18</time>
   <time name="diis">    4.41    4.44</time>
   <time name="orth">    0.21    0.21</time>
   <time name="total">    6.30    6.34</time>
   <energy>
    <i name="e_fr_energy">   -230.12920346 </i>
    <i name="e_wo_entrp">   -230.11494317 </i>
    <i name="e_0_energy">   -230.12445003 </i>
   </energy>
  </scstep>
  <scstep>
   <time name="diag">    1.30    1.30</time>
   <time name="diis">    4.31    4.34</time>
   <time name="orth">    0.21    0.21</time>
   <time name="total">    6.32    6.37</time>
   <energy>
    <i name="e_fr_energy">   -230.12129471 </i>
    <i name="e_wo_entrp">   -230.10965487 </i>
    <i name="e_0_energy">   -230.11741477 </i>
   </energy>
  </scstep>
  <scstep>
   <time name="diag">    1.28    1.29</time>
   <time name="diis">    4.53    4.56</time>
   <time name="orth">    0.22    0.22</time>
   <time name="total">    6.54    6.59</time>
   <energy>
    <i name="e_fr_energy">   -230.12115573 </i>
    <i name="e_wo_entrp">   -230.10892655 </i>
    <i name="e_0_energy">   -230.11707933 </i>
   </energy>
  </scstep>
  <scstep>
   <time name="diag">    1.37    1.38</time>
   <time name="diis">    4.53    4.56</time>
   <time name="orth">    0.22    0.22</time>
   <time name="total">    6.64    6.68</time>
   <energy>
    <i name="e_fr_energy">   -230.11886900 </i>
    <i name="e_wo_entrp">   -230.10675934 </i>
    <i name="e_0_energy">   -230.11483245 </i>
   </energy>
  </scstep>
  <scstep>
   <time name="diag">    1.33    1.34</time>
   <time name="diis">    4.41    4.44</time>
   <time name="orth">    0.22    0.22</time>
   <time name="total">    6.48    6.53</time>
   <energy>
    <i name="e_fr_energy">   -230.11836110 </i>
    <i name="e_wo_entrp">   -230.10517606 </i>
    <i name="e_0_energy">   -230.11396609 </i>
   </energy>
  </scstep>
  <scstep>
   <time name="diag">    1.28    1.29</time>
   <time name="diis">    3.45    3.48</time>
   <time name="orth">    0.22    0.22</time>
   <time name="total">    5.47    5.51</time>
   <energy>
    <i name="e_fr_energy">   -230.11809443 </i>
    <i name="e_wo_entrp">   -230.10523612 </i>
    <i name="e_0_energy">   -230.11380832 </i>
   </energy>
  </scstep>
  <scstep>
   <time name="diag">    1.22    1.23</time>
   <time name="diis">    2.63    2.65</time>
   <time name="orth">    0.21    0.21</time>
   <time name="total">    4.19    4.22</time>
   <energy>
    <i name="alphaZ">    975.10247152 </i>
    <i name="ewald">  91138.95540736 </i>
    <i name="hartreedc">-119847.21813573 </i>
    <i name="XCdc">    177.61840230 </i>
    <i name="pawpsdc">  30036.18234666 </i>
    <i name="pawaedc"> -29121.58681153 </i>
    <i name="eentropy">     -0.01262521 </i>
    <i name="bandstr">   -849.05326139 </i>
    <i name="atom">  27259.89416086 </i>
    <i name="e_fr_energy">   -230.11804517 </i>
    <i name="e_wo_entrp">   -230.10541995 </i>
    <i name="e_0_energy">   -230.11383676 </i>
   </energy>
  </scstep>
  <structure>
   <crystal>
    <varray name="basis" >
     <v>       7.29695512      -4.21289900       0.00000000 </v>
     <v>       0.00000000       8.42579800       0.00000000 </v>
     <v>       0.00000000       0.00000000      21.87963500 </v>
    </varray>
    <i name="volume">   1345.21837528 </i>
    <varray name="rec_basis" >
     <v>       0.13704346       0.00000000       0.00000000 </v>
     <v>       0.06852173       0.11868312       0.00000000 </v>
     <v>       0.00000000       0.00000000       0.04570460 </v>
    </varray>
   </crystal>
   <varray name="positions" >
    <v>       0.70055518       0.43496829       0.47849486 </v>
    <v>       0.90759227       0.38873552       0.46738626 </v>
    <v>       0.67386754       0.46593793       0.52978315 </v>
    <v>       0.98675500       0.32859100       0.07437600 </v>
    <v>       0.32008800       0.32859100       0.07437600 </v>
    <v>       0.65342200       0.32859100       0.07437600 </v>
    <v>       0.98675500       0.66192500       0.07437600 </v>
    <v>       0.32008800       0.66192500       0.07437600 </v>
    <v>       0.65342200       0.66192500       0.07437600 </v>
    <v>       0.32008800       0.99525800       0.07437600 </v>
    <v>       0.65342200       0.99525800       0.07437600 </v>
    <v>       0.98675500       0.99525800       0.07437600 </v>
    <v>       0.20897700       0.10636900       0.17918600 </v>
    <v>       0.54231100       0.10636900       0.17918600 </v>
    <v>       0.87564400       0.10636900       0.17918600 </v>
    <v>       0.20897700       0.43970300       0.17918600 </v>
    <v>       0.54231100       0.43970300       0.17918600 </v>
    <v>       0.87564400       0.43970300       0.17918600 </v>
    <v>       0.20897700       0.77303600       0.17918600 </v>
    <v>       0.54231100       0.77303600       0.17918600 </v>
    <v>       0.87564400       0.77303600       0.17918600 </v>
    <v>       0.09450103       0.54922127       0.28216846 </v>
    <v>       0.43415520       0.88733759       0.27893954 </v>
    <v>       0.76015425       0.21746751       0.28470253 </v>
    <v>       0.09763320       0.21829039       0.28745812 </v>
    <v>       0.43312205       0.22051432       0.28210128 </v>
    <v>       0.10104397       0.88517309       0.28041110 </v>
    <v>       0.76772141       0.88638417       0.28516526 </v>
    <v>       0.43348619       0.55019459       0.28588268 </v>
    <v>       0.76266578       0.54927446       0.28315649 </v>
    <v>       0.32245270       0.66298461       0.38444376 </v>
    <v>       0.65146347       0.98583639       0.38973654 </v>
    <v>       0.32226907       0.32652681       0.38952444 </v>
    <v>       0.98836021       0.99118573       0.38757963 </v>
    <v>       0.32091096       0.99514160       0.38460810 </v>
    <v>       0.64021020       0.32129051       0.39177794 </v>
    <v>       0.99754928       0.66580861       0.38855267 </v>
    <v>       0.99229517       0.32170217       0.38965683 </v>
    <v>       0.65415730       0.66190780       0.38912435 </v>
   </varray>
  </structure>
  <varray name="forces" >
   <v>      -0.67781134      -0.55996839       1.07394737 </v>
   <v>       0.44412190       0.34088661      -0.44501455 </v>
   <v>       0.76372741      -0.95447324      -3.09152182 </v>
   <v>       0.00642351      -0.05153830       0.10656064 </v>
   <v>      -0.06276758      -0.04279524       0.20658577 </v>
   <v>      -0.00932137      -0.05740745       0.14406725 </v>
   <v>       0.02715543       0.04482576       0.12761193 </v>
   <v>      -0.02352260       0.02275227       0.10156832 </v>
   <v>       0.00529090       0.01004930       0.20969900 </v>
   <v>       0.02156395      -0.07562069      -0.01332488 </v>
   <v>      -0.00207703       0.03747220       0.10714293 </v>
   <v>       0.02210749       0.01770688       0.06266276 </v>
   <v>      -0.06232685       0.20932016      -0.18164567 </v>
   <v>       0.15213607       0.18098003      -0.38886215 </v>
   <v>       0.16099152      -0.02634936       0.20744803 </v>
   <v>       0.01880475      -0.13405683       0.21222650 </v>
   <v>      -0.05883984       0.15961771      -0.04576682 </v>
   <v>      -0.08076278      -0.03824914      -0.04890189 </v>
   <v>      -0.10244329      -0.07849041      -0.54179529 </v>
   <v>       0.17403359      -0.21983572      -0.05377498 </v>
   <v>      -0.05224925       0.15380237      -0.13076348 </v>
   <v>       0.18723676      -0.21792323       0.12301665 </v>
   <v>      -0.07394606      -0.28353898       0.85859466 </v>
   <v>       0.23711801      -0.14124983       0.05769730 </v>
   <v>      -0.13009985       0.34544768      -0.73069263 </v>
   <v>      -0.06390384      -0.10625444       0.21047855 </v>
   <v>      -0.36988734      -0.10333558       0.57817727 </v>
   <v>      -0.22449355      -0.08001127      -0.46480144 </v>
   <v>      -0.12949812       0.16608239      -0.68530912 </v>
   <v>       0.28566880       0.10589380       0.15793910 </v>
   <v>       0.07399707       0.09594518       0.19086564 </v>
   <v>      -0.04904414       0.31101611      -0.47374070 </v>
   <v>      -0.18919821       0.00553019      -0.12219735 </v>
   <v>      -0.01971598      -0.20518202       0.27779241 </v>
   <v>      -0.05018200      -0.29762332       0.15633124 </v>
   <v>       0.26444229       0.78911969       1.44001056 </v>
   <v>      -0.23676394       0.23797616      -0.33385557 </v>
   <v>      -0.45102436       0.40355339       1.14907393 </v>
   <v>       0.27505984       0.03592553      -0.00752947 </v>
  </varray>
  <varray name="stress" >
   <v>     -43.42602971       1.79738174       2.30891880 </v>
   <v>       1.79738167     -47.44561436      -3.12357169 </v>
   <v>       2.30891905      -3.12357173     -14.23679615 </v>
  </varray>
  <energy>
   <i name="e_fr_energy">   -230.11804517 </i>
   <i name="e_wo_entrp">   -230.11383676 </i>
   <i name="e_0_energy">     -0.01262521 </i>
  </energy>
  <time name="totalsc">   75.94   76.79</time>
 </calculation>
 <calculation>
  <scstep>
   <time name="dav">    8.26    8.32</time>
   <time name="total">    8.80    8.96</time>
   <energy>
    <i name="alphaZ">    975.10247152 </i>
    <i name="ewald">  91142.04788795 </i>
    <i name="hartreedc">-119845.90315703 </i>
    <i name="XCdc">    177.78566053 </i>
    <i name="pawpsdc">  30036.17685441 </i>
    <i name="pawaedc"> -29121.58045986 </i>
    <i name="eentropy">     -0.01470443 </i>
    <i name="bandstr">   -853.73703525 </i>
    <i name="atom">  27259.89416086 </i>
    <i name="e_fr_energy">   -230.22832130 </i>
    <i name="e_wo_entrp">   -230.21361687 </i>
    <i name="e_0_energy">   -230.22341982 </i>
   </energy>
  </scstep>
  <scstep>
   <time name="diag">    1.29    1.30</time>
   <time name="diis">    4.32    4.35</time>
   <time name="orth">    0.20    0.20</time>
   <time name="total">    6.33    6.38</time>
   <energy>
    <i name="e_fr_energy">   -230.27754932 </i>
    <i name="e_wo_entrp">   -230.26933198 </i>
    <i name="e_0_energy">   -230.27481021 </i>
   </energy>
  </scstep>
  <scstep>
   <time name="diag">    1.22    1.22</time>
   <time name="diis">    4.42    4.45</time>
   <time name="orth">    0.22    0.22</time>
   <time name="total">    6.38    6.42</time>
   <energy>
    <i name="e_fr_energy">   -230.27077073 </i>
    <i name="e_wo_entrp">   -230.25519349 </i>
    <i name="e_0_energy">   -230.26557832 </i>
   </energy>
  </scstep>
  <scstep>
   <time name="diag">    1.11    1.12</time>
   <time name="diis">    4.50    4.53</time>
   <time name="orth">    0.22    0.22</time>
   <time name="total">    6.35    6.40</time>
   <energy>
    <i name="e_fr_energy">   -230.26539240 </i>
    <i name="e_wo_entrp">   -230.25061386 </i>
    <i name="e_0_energy">   -230.26046622 </i>
   </energy>
  </scstep>
  <scstep>
   <time name="diag">    1.31    1.32</time>
   <time name="diis">    4.56    4.59</time>
   <time name="orth">    0.22    0.22</time>
   <time name="total">    6.62    6.67</time>
   <energy>
    <i name="e_fr_energy">   -230.26253957 </i>
    <i name="e_wo_entrp">   -230.25105085 </i>
    <i name="e_0_energy">   -230.25871000 </i>
   </energy>
  </scstep>
  <scstep>
   <time name="diag">    1.32    1.33</time>
   <time name="diis">    4.51    4.54</time>
   <time name="orth">    0.21    0.22</time>
   <time name="total">    6.55    6.59</time>
   <energy>
    <i name="e_fr_energy">   -230.26146775 </i>
    <i name="e_wo_entrp">   -230.24876675 </i>
    <i name="e_0_energy">   -230.25723409 </i>
   </energy>
  </scstep>
  <scstep>
   <time name="diag">    1.34    1.35</time>
   <time name="diis">    4.35    4.39</time>
   <time name="orth">    0.20    0.20</time>
   <time name="total">    6.38    6.43</time>
   <energy>
    <i name="e_fr_energy">   -230.26023757 </i>
    <i name="e_wo_entrp">   -230.24708900 </i>
    <i name="e_0_energy">   -230.25585471 </i>
   </energy>
  </scstep>
  <scstep>
   <time name="diag">    1.24    1.25</time>
   <time name="diis">    3.97    3.99</time>
   <time name="orth">    0.22    0.22</time>
   <time name="total">    5.95    5.99</time>
   <energy>
    <i name="e_fr_energy">   -230.25991669 </i>
    <i name="e_wo_entrp">   -230.24685071 </i>
    <i name="e_0_energy">   -230.25556136 </i>
   </energy>
  </scstep>
  <scstep>
   <time name="diag">    1.31    1.32</time>
   <time name="diis">    2.56    2.58</time>
   <time name="orth">    0.22    0.22</time>
   <time name="total">    4.61    4.64</time>
   <energy>
    <i name="e_fr_energy">   -230.25981136 </i>
    <i name="e_wo_entrp">   -230.24671523 </i>
    <i name="e_0_energy">   -230.25544598 </i>
   </energy>
  </scstep>
  <scstep>
   <time name="diag">    1.22    1.23</time>
   <time name="diis">    2.67    2.68</time>
   <time name="orth">    0.22    0.22</time>
   <time name="total">    4.24    4.27</time>
   <energy>
    <i name="alphaZ">    975.10247152 </i>
    <i name="ewald">  91142.04788795 </i>
    <i name="hartreedc">-119854.89182188 </i>
    <i name="XCdc">    177.90642310 </i>
    <i name="pawpsdc">  30047.68641458 </i>
    <i name="pawaedc"> -29133.13101317 </i>
    <i name="eentropy">     -0.01295604 </i>
    <i name="bandstr">   -844.86136373 </i>
    <i name="atom">  27259.89416086 </i>
    <i name="e_fr_energy">   -230.25979681 </i>
    <i name="e_wo_entrp">   -230.24684077 </i>
    <i name="e_0_energy">   -230.25547813 </i>
   </energy>
  </scstep>
  <structure>
   <crystal>
    <varray name="basis" >
     <v>       7.29695512      -4.21289900       0.00000000 </v>
     <v>       0.00000000       8.42579800       0.00000000 </v>
     <v>       0.00000000       0.00000000      21.87963500 </v>
    </varray>
    <i name="volume">   1345.21837528 </i>
    <varray name="rec_basis" >
     <v>       0.13704346       0.00000000       0.00000000 </v>
     <v>       0.06852173       0.11868312       0.00000000 </v>
     <v>       0.00000000       0.00000000       0.04570460 </v>
    </varray>
   </crystal>
   <varray name="positions" >
    <v>       0.69961576       0.43382646       0.47899127 </v>
    <v>       0.90820780       0.38945244       0.46718056 </v>
    <v>       0.67492603       0.46532154       0.52835418 </v>
    <v>       0.98675500       0.32859100       0.07437600 </v>
    <v>       0.32008800       0.32859100       0.07437600 </v>
    <v>       0.65342200       0.32859100       0.07437600 </v>
    <v>       0.98675500       0.66192500       0.07437600 </v>
    <v>       0.32008800       0.66192500       0.07437600 </v>
    <v>       0.65342200       0.66192500       0.07437600 </v>
    <v>       0.32008800       0.99525800       0.07437600 </v>
    <v>       0.65342200       0.99525800       0.07437600 </v>
    <v>       0.98675500       0.99525800       0.07437600 </v>
    <v>       0.20897700       0.10636900       0.17918600 </v>
    <v>       0.54231100       0.10636900       0.17918600 </v>
    <v>       0.87564400       0.10636900       0.17918600 </v>
    <v>       0.20897700       0.43970300       0.17918600 </v>
    <v>       0.54231100       0.43970300       0.17918600 </v>
    <v>       0.87564400       0.43970300       0.17918600 </v>
    <v>       0.20897700       0.77303600       0.17918600 </v>
    <v>       0.54231100       0.77303600       0.17918600 </v>
    <v>       0.87564400       0.77303600       0.17918600 </v>
    <v>       0.09476053       0.54908946       0.28222532 </v>
    <v>       0.43405271       0.88694602       0.27933640 </v>
    <v>       0.76048289       0.21746229       0.28472920 </v>
    <v>       0.09745288       0.21861486       0.28712037 </v>
    <v>       0.43303349       0.22034250       0.28219857 </v>
    <v>       0.10053133       0.88479273       0.28067834 </v>
    <v>       0.76741027       0.88613257       0.28495042 </v>
    <v>       0.43330671       0.55030420       0.28556591 </v>
    <v>       0.76306171       0.54959952       0.28322949 </v>
    <v>       0.32255525       0.66315105       0.38453198 </v>
    <v>       0.65139549       0.98617571       0.38951756 </v>
    <v>       0.32200685       0.32640233       0.38946795 </v>
    <v>       0.98833289       0.99092579       0.38770803 </v>
    <v>       0.32084141       0.99474959       0.38468036 </v>
    <v>       0.64057671       0.32242093       0.39244355 </v>
    <v>       0.99722114       0.66593018       0.38839836 </v>
    <v>       0.99167007       0.32187399       0.39018796 </v>
    <v>       0.65453852       0.66214153       0.38912087 </v>
   </varray>
  </structure>
  <varray name="forces" >
   <v>      -0.25684651      -1.60604417      -2.32511170 </v>
   <v>       0.54414663       0.25835235      -0.39577355 </v>
   <v>       0.18915629       0.21535206       0.45435179 </v>
   <v>       0.00744838      -0.05105670       0.10854794 </v>
   <v>      -0.05978029      -0.04174536       0.20173543 </v>
   <v>      -0.01114613      -0.05302778       0.14292778 </v>
   <v>       0.02597358       0.04553822       0.12653133 </v>
   <v>      -0.02315520       0.02190347       0.10582541 </v>
   <v>       0.00717029       0.00701402       0.20298271 </v>
   <v>       0.02109056      -0.07304911      -0.00947089 </v>
   <v>      -0.00129544       0.03759341       0.10976171 </v>
   <v>       0.02197318       0.01727336       0.06000703 </v>
   <v>      -0.06340042       0.18719249      -0.16826608 </v>
   <v>       0.13831701       0.16607638      -0.34482940 </v>
   <v>       0.15686148      -0.02313738       0.18591501 </v>
   <v>       0.01390298      -0.12732512       0.17886651 </v>
   <v>      -0.04925626       0.14445184      -0.03906696 </v>
   <v>      -0.07936584      -0.03518223      -0.03407007 </v>
   <v>      -0.09104013      -0.06292861      -0.50075818 </v>
   <v>       0.16228259      -0.19470035      -0.05914190 </v>
   <v>      -0.03964391       0.14815571      -0.13970271 </v>
   <v>       0.16555009      -0.19412641       0.12417783 </v>
   <v>      -0.07530674      -0.24091548       0.74487434 </v>
   <v>       0.20653093      -0.10782382       0.07582546 </v>
   <v>      -0.14665935       0.30406845      -0.60510531 </v>
   <v>      -0.03037069      -0.09871859       0.23093229 </v>
   <v>      -0.32584898      -0.08437072       0.50167691 </v>
   <v>      -0.19150808      -0.06840516      -0.42024824 </v>
   <v>      -0.11134523       0.12679424      -0.59794997 </v>
   <v>       0.23055080       0.07561424       0.14305409 </v>
   <v>       0.06631088       0.05636204       0.18920844 </v>
   <v>      -0.02714715       0.29626096      -0.43564949 </v>
   <v>      -0.19231448       0.01819844      -0.15499312 </v>
   <v>      -0.02406241      -0.13367599       0.23326746 </v>
   <v>      -0.02345039      -0.24333326       0.17404572 </v>
   <v>       0.19389884       0.73050088       1.31674476 </v>
   <v>      -0.20960609       0.21399338      -0.31694032 </v>
   <v>      -0.34677349       0.28633412       1.00603070 </v>
   <v>       0.22815871       0.08253617      -0.07021274 </v>
  </varray>
  <varray name="stress" >
   <v>     -43.44993369       1.31245480       1.35166475 </v>
   <v>       1.31245475     -46.99549913      -1.54698503 </v>
   <v>       1.35166483      -1.54698508      -9.32098949 </v>
  </varray>
  <energy>
   <i name="e_fr_energy">   -230.25979681 </i>
   <i name="e_wo_entrp">   -230.25547813 </i>
   <i name="e_0_energy">     -0.01295604 </i>
  </energy>
  <time name="totalsc">   72.71   73.60</time>
 </calculation>
 <calculation>
  <scstep>
   <time name="dav">    7.94    7.99</time>
   <time name="total">    8.45    8.56</time>
   <energy>
    <i name="alphaZ">    975.10247152 </i>
    <i name="ewald">  91078.05514827 </i>
    <i name="hartreedc">-119789.66567257 </i>
    <i name="XCdc">    178.08660518 </i>
    <i name="pawpsdc">  30047.55356960 </i>
    <i name="pawaedc"> -29132.99899181 </i>
    <i name="eentropy">     -0.02805346 </i>
    <i name="bandstr">   -846.36675010 </i>
    <i name="atom">  27259.89416086 </i>
    <i name="e_fr_energy">   -230.36751249 </i>
    <i name="e_wo_entrp">   -230.33945903 </i>
    <i name="e_0_energy">   -230.35816134 </i>
   </energy>
  </scstep>
  <scstep>
   <time name="diag">    1.22    1.23</time>
   <time name="diis">    4.44    4.48</time>
   <time name="orth">    0.22    0.22</time>
   <time name="total">    6.37    6.41</time>
   <energy>
    <i name="e_fr_energy">   -230.97292180 </i>
    <i name="e_wo_entrp">   -230.97465274 </i>
    <i name="e_0_energy">   -230.97349878 </i>
   </energy>
  </scstep>
  <scstep>
   <time name="diag">    0.99    1.00</time>
   <time name="diis">    4.33    4.36</time>
   <time name="orth">    0.22    0.22</time>
   <time name="total">    6.03    6.07</time>
   <energy>
    <i name="e_fr_energy">   -230.78329708 </i>
    <i name="e_wo_entrp">   -230.75623523 </i>
    <i name="e_0_energy">   -230.77427646 </i>
   </energy>
  </scstep>
  <scstep>
   <time name="diag">    1.22    1.23</time>
   <time name="diis">    4.67    4.70</time>
   <time name="orth">    0.22    0.22</time>
   <time name="total">    6.64    6.69</time>
   <energy>
    <i name="e_fr_energy">   -230.67084399 </i>
    <i name="e_wo_entrp">   -230.64317079 </i>
    <i name="e_0_energy">   -230.66161959 </i>
   </energy>
  </scstep>
  <scstep>
   <time name="diag">    1.24    1.25</time>
   <time name="diis">    4.59    4.62</time>
   <time name="orth">    0.22    0.22</time>
   <time name="total">    6.56    6.61</time>
   <energy>
    <i name="e_fr_energy">   -230.64865288 </i>
    <i name="e_wo_entrp">   -230.63588194 </i>
    <i name="e_0_energy">   -230.64439590 </i>
   </energy>
  </scstep>
  <scstep>
   <time name="diag">    1.26    1.27</time>
   <time name="diis">    4.43    4.46</time>
   <time name="orth">    0.20    0.20</time>
   <time name="total">    6.39    6.44</time>
   <energy>
    <i name="e_fr_energy">   -230.64912369 </i>
    <i name="e_wo_entrp">   -230.62892964 </i>
    <i name="e_0_energy">   -230.64239234 </i>
   </energy>
  </scstep>
  <scstep>
   <time name="diag">    1.01    1.02</time>
   <time name="diis">    4.42    4.46</time>
   <time name="orth">    0.22    0.22</time>
   <time name="total">    6.17    6.21</time>
   <energy>
    <i name="e_fr_energy">   -230.64401202 </i>
    <i name="e_wo_entrp">   -230.62726632 </i>
    <i name="e_0_energy">   -230.63843012 </i>
   </energy>
  </scstep>
  <scstep>
   <time name="diag">    1.27    1.28</time>
   <time name="diis">    4.27    4.30</time>
   <time name="orth">    0.22    0.22</time>
   <time name="total">    6.28    6.32</time>
   <energy>
    <i name="e_fr_energy">   -230.64004536 </i>
    <i name="e_wo_entrp">   -230.61988200 </i>
    <i name="e_0_energy">   -230.63332424 </i>
   </energy>
  </scstep>
  <scstep>
   <time name="diag">    1.28    1.29</time>
   <time name="diis">    4.46    4.49</time>
   <time name="orth">    0.21    0.21</time>
   <time name="total">    6.46    6.51</time>
   <energy>
    <i name="e_fr_energy">   -230.63922525 </i>
    <i name="e_wo_entrp">   -230.62006142 </i>
    <i name="e_0_energy">   -230.63283731 </i>
   </energy>
  </scstep>
  <scstep>
   <time name="diag">    1.34    1.35</time>
   <time name="diis">    3.93    3.95</time>
   <time name="orth">    0.21    0.21</time>
   <time name="total">    5.99    6.03</time>
   <energy>
    <i name="e_fr_energy">   -230.63892716 </i>
    <i name="e_wo_entrp">   -230.62040971 </i>
    <i name="e_0_energy">   -230.63275468 </i>
   </energy>
  </scstep>
  <scstep>
   <time name="diag">    1.23    1.24</time>
   <time name="diis">    2.69    2.71</time>
   <time name="orth">    0.22    0.22</time>
   <time name="total">    4.28    4.31</time>
   <energy>
    <i name="alphaZ">    975.10247152 </i>
    <i name="ewald">  91078.05514827 </i>
    <i name="hartreedc">-119785.67309541 </i>
    <i name="XCdc">    178.11334286 </i>
    <i name="pawpsdc">  30086.55478299 </i>
    <i name="pawaedc"> -29172.34897727 </i>
    <i name="eentropy">     -0.01883822 </i>
    <i name="bandstr">   -850.31787372 </i>
    <i name="atom">  27259.89416086 </i>
    <i name="e_fr_energy">   -230.63887811 </i>
    <i name="e_wo_entrp">   -230.62003989 </i>
    <i name="e_0_energy">   -230.63259871 </i>
   </energy>
  </scstep>
  <structure>
   <crystal>
    <varray name="basis" >
     <v>       7.29695512      -4.21289900       0.00000000 </v>
     <v>       0.00000000       8.42579800       0.00000000 </v>
     <v>       0.00000000       0.00000000      21.87963500 </v>
    </varray>
    <i name="volume">   1345.21837528 </i>
    <varray name="rec_basis" >
     <v>       0.13704346       0.00000000       0.00000000 </v>
     <v>       0.06852173       0.11868312       0.00000000 </v>
     <v>       0.00000000       0.00000000       0.04570460 </v>
    </varray>
   </crystal>
   <varray name="positions" >
    <v>       0.69630363       0.42382300       0.47622934 </v>
    <v>       0.91223926       0.39346475       0.46608020 </v>
    <v>       0.67816156       0.46537482       0.52600114 </v>
    <v>       0.98675500       0.32859100       0.07437600 </v>
    <v>       0.32008800       0.32859100       0.07437600 </v>
    <v>       0.65342200       0.32859100       0.07437600 </v>
    <v>       0.98675500       0.66192500       0.07437600 </v>
    <v>       0.32008800       0.66192500       0.07437600 </v>
    <v>       0.65342200       0.66192500       0.07437600 </v>
    <v>       0.32008800       0.99525800       0.07437600 </v>
    <v>       0.65342200       0.99525800       0.07437600 </v>
    <v>       0.98675500       0.99525800       0.07437600 </v>
    <v>       0.20897700       0.10636900       0.17918600 </v>
    <v>       0.54231100       0.10636900       0.17918600 </v>
    <v>       0.87564400       0.10636900       0.17918600 </v>
    <v>       0.20897700       0.43970300       0.17918600 </v>
    <v>       0.54231100       0.43970300       0.17918600 </v>
    <v>       0.87564400       0.43970300       0.17918600 </v>
    <v>       0.20897700       0.77303600       0.17918600 </v>
    <v>       0.54231100       0.77303600       0.17918600 </v>
    <v>       0.87564400       0.77303600       0.17918600 </v>
    <v>       0.09614393       0.54838055       0.28255389 </v>
    <v>       0.43345721       0.88487596       0.28142848 </v>
    <v>       0.76221937       0.21749991       0.28491235 </v>
    <v>       0.09633502       0.22026045       0.28538752 </v>
    <v>       0.43269074       0.21947078       0.28279125 </v>
    <v>       0.09780434       0.88279803       0.28208728 </v>
    <v>       0.76578619       0.88481859       0.28378977 </v>
    <v>       0.43236553       0.55081031       0.28389043 </v>
    <v>       0.76506327       0.55120062       0.28362430 </v>
    <v>       0.32310636       0.66391843       0.38503607 </v>
    <v>       0.65111344       0.98811596       0.38832251 </v>
    <v>       0.32048501       0.32573388       0.38908931 </v>
    <v>       0.98815438       0.98972840       0.38837214 </v>
    <v>       0.32057423       0.99279661       0.38512474 </v>
    <v>       0.64233288       0.32848888       0.39606375 </v>
    <v>       0.99547049       0.66659293       0.38753978 </v>
    <v>       0.98859524       0.32261651       0.39300295 </v>
    <v>       0.65649631       0.66356804       0.38899735 </v>
   </varray>
  </structure>
  <varray name="forces" >
   <v>      -0.31143445      -0.25649955       1.19874331 </v>
   <v>       0.54033571       0.43808150       0.50891229 </v>
   <v>       0.37807459      -0.44061576      -1.15002957 </v>
   <v>       0.01176410      -0.04795151       0.12596966 </v>
   <v>      -0.04845593      -0.03898432       0.16717688 </v>
   <v>      -0.02115078      -0.03209488       0.13753327 </v>
   <v>       0.01875265       0.04848052       0.11425792 </v>
   <v>      -0.02181697       0.02074238       0.11965229 </v>
   <v>       0.01444956      -0.00543959       0.16714316 </v>
   <v>       0.01356235      -0.05938848       0.01855035 </v>
   <v>      -0.00258576       0.03730584       0.12426621 </v>
   <v>       0.02098215       0.01038408       0.06049023 </v>
   <v>      -0.08359193       0.08064551      -0.13126825 </v>
   <v>       0.07405282       0.09884803      -0.12516082 </v>
   <v>       0.12499517      -0.01861139       0.03438698 </v>
   <v>      -0.01665143      -0.09267221      -0.00429177 </v>
   <v>      -0.00711988       0.05809631      -0.01433134 </v>
   <v>      -0.07687467      -0.02690451       0.03957500 </v>
   <v>      -0.04506706       0.01639517      -0.28898760 </v>
   <v>       0.10391878      -0.06676354      -0.10776697 </v>
   <v>       0.02486577       0.12275842      -0.20015942 </v>
   <v>       0.02419181      -0.07462808       0.12716290 </v>
   <v>      -0.06680941       0.02103612       0.11878733 </v>
   <v>       0.04680002       0.05033192       0.10690581 </v>
   <v>      -0.12927572       0.02654494      -0.00714118 </v>
   <v>       0.08375096      -0.06868783       0.21677563 </v>
   <v>      -0.05501437       0.03700922       0.08367677 </v>
   <v>      -0.01359784       0.00178764      -0.16631713 </v>
   <v>      -0.00568397      -0.06353709      -0.13797747 </v>
   <v>      -0.05465796      -0.12308348       0.04033907 </v>
   <v>       0.03627181      -0.12707933       0.20273292 </v>
   <v>       0.06920115       0.20178190      -0.20476358 </v>
   <v>      -0.19228989       0.07637220      -0.26988596 </v>
   <v>      -0.03129045       0.20439513       0.02902353 </v>
   <v>       0.06209207       0.02158058       0.23880765 </v>
   <v>      -0.52284285      -0.01181612      -0.64639383 </v>
   <v>      -0.06712449       0.10874666      -0.13721653 </v>
   <v>       0.14469544      -0.39451762      -0.13226988 </v>
   <v>      -0.01942110       0.26795122      -0.25690782 </v>
  </varray>
  <varray name="stress" >
   <v>     -43.73497015       0.90036613       1.90232953 </v>
   <v>       0.90036611     -47.01922825      -0.81207484 </v>
   <v>       1.90232962      -0.81207494      -6.47029320 </v>
  </varray>
  <energy>
   <i name="e_fr_energy">   -230.63887811 </i>
   <i name="e_wo_entrp">   -230.63259871 </i>
   <i name="e_0_energy">     -0.01883822 </i>
  </energy>
  <time name="totalsc">   79.77   80.71</time>
 </calculation>
 <calculation>
  <scstep>
   <time name="dav">    8.02    8.08</time>
   <time name="total">    8.56    8.70</time>
   <energy>
    <i name="alphaZ">    975.10247152 </i>
    <i name="ewald">  91115.14240919 </i>
    <i name="hartreedc">-119822.63160995 </i>
    <i name="XCdc">    178.08114585 </i>
    <i name="pawpsdc">  30086.34694076 </i>
    <i name="pawaedc"> -29172.14347633 </i>
    <i name="eentropy">     -0.01257459 </i>
    <i name="bandstr">   -850.42328341 </i>
    <i name="atom">  27259.89416086 </i>
    <i name="e_fr_energy">   -230.64381609 </i>
    <i name="e_wo_entrp">   -230.63124151 </i>
    <i name="e_0_energy">   -230.63962456 </i>
   </energy>
  </scstep>
  <scstep>
   <time name="diag">    1.36    1.37</time>
   <time name="diis">    4.57    4.60</time>
   <time name="orth">    0.22    0.22</time>
   <time name="total">    6.68    6.73</time>
   <energy>
    <i name="e_fr_energy">   -230.68299051 </i>
    <i name="e_wo_entrp">   -230.65477014 </i>
    <i name="e_0_energy">   -230.67358372 </i>
   </energy>
  </scstep>
  <scstep>
   <time name="diag">    1.35    1.35</time>
   <time name="diis">    4.58    4.61</time>
   <time name="orth">    0.22    0.22</time>
   <time name="total">    6.67    6.72</time>
   <energy>
    <i name="e_fr_energy">   -230.66996576 </i>
    <i name="e_wo_entrp">   -230.65565862 </i>
    <i name="e_0_energy">   -230.66519672 </i>
   </energy>
  </scstep>
  <scstep>
   <time name="diag">    1.27    1.27</time>
   <time name="diis">    4.29    4.32</time>
   <time name="orth">    0.21    0.21</time>
   <time name="total">    6.29    6.33</time>
   <energy>
    <i name="e_fr_energy">   -230.66557986 </i>
    <i name="e_wo_entrp">   -230.65203041 </i>
    <i name="e_0_energy">   -230.66106338 </i>
   </energy>
  </scstep>
  <scstep>
   <time name="diag">    1.22    1.23</time>
   <time name="diis">    4.47    4.51</time>
   <time name="orth">    0.22    0.22</time>
   <time name="total">    6.43    6.48</time>
   <energy>
    <i name="e_fr_energy">   -230.66275839 </i>
    <i name="e_wo_entrp">   -230.64616881 </i>
    <i name="e_0_energy">   -230.65722853 </i>
   </energy>
  </scstep>
  <scstep>
   <time name="diag">    1.17    1.18</time>
   <time name="diis">    4.34    4.37</time>
   <time name="orth">    0.22    0.22</time>
   <time name="total">    6.24    6.29</time>
   <energy>
    <i name="e_fr_energy">   -230.66261837 </i>
    <i name="e_wo_entrp">   -230.64698886 </i>
    <i name="e_0_energy">   -230.65740853 </i>
   </energy>
  </scstep>
  <scstep>
   <time name="diag">    1.24    1.25</time>
   <time name="diis">    4.57    4.60</time>
   <time name="orth">    0.22    0.23</time>
   <time name="total">    6.54    6.59</time>
   <energy>
    <i name="e_fr_energy">   -230.66245930 </i>
    <i name="e_wo_entrp">   -230.64618483 </i>
    <i name="e_0_energy">   -230.65703447 </i>
   </energy>
  </scstep>
  <scstep>
   <time name="diag">    1.21    1.22</time>
   <time name="diis">    3.77    3.79</time>
   <time name="orth">    0.22    0.22</time>
   <time name="total">    5.72    5.76</time>
   <energy>
    <i name="e_fr_energy">   -230.66216728 </i>
    <i name="e_wo_entrp">   -230.64687488 </i>
    <i name="e_0_energy">   -230.65706981 </i>
   </energy>
  </scstep>
  <scstep>
   <time name="diag">    1.23    1.24</time>
   <time name="diis">    2.51    2.53</time>
   <time name="orth">    0.20    0.20</time>
   <time name="total">    4.08    4.11</time>
   <energy>
    <i name="alphaZ">    975.10247152 </i>
    <i name="ewald">  91115.14240919 </i>
    <i name="hartreedc">-119823.98102054 </i>
    <i name="XCdc">    178.07900754 </i>
    <i name="pawpsdc">  30071.56431466 </i>
    <i name="pawaedc"> -29157.27471068 </i>
    <i name="eentropy">     -0.01546411 </i>
    <i name="bandstr">   -849.17329400 </i>
    <i name="atom">  27259.89416086 </i>
    <i name="e_fr_energy">   -230.66212557 </i>
    <i name="e_wo_entrp">   -230.64666146 </i>
    <i name="e_0_energy">   -230.65697086 </i>
   </energy>
  </scstep>
  <structure>
   <crystal>
    <varray name="basis" >
     <v>       7.29695512      -4.21289900       0.00000000 </v>
     <v>       0.00000000       8.42579800       0.00000000 </v>
     <v>       0.00000000       0.00000000      21.87963500 </v>
    </varray>
    <i name="volume">   1345.21837528 </i>
    <varray name="rec_basis" >
     <v>       0.13704346       0.00000000       0.00000000 </v>
     <v>       0.06852173       0.11868312       0.00000000 </v>
     <v>       0.00000000       0.00000000       0.04570460 </v>
    </varray>
   </crystal>
   <varray name="positions" >
    <v>       0.69636446       0.42418755       0.47699910 </v>
    <v>       0.91294408       0.39436887       0.46670216 </v>
    <v>       0.67818444       0.46533639       0.52618774 </v>
    <v>       0.98675500       0.32859100       0.07437600 </v>
    <v>       0.32008800       0.32859100       0.07437600 </v>
    <v>       0.65342200       0.32859100       0.07437600 </v>
    <v>       0.98675500       0.66192500       0.07437600 </v>
    <v>       0.32008800       0.66192500       0.07437600 </v>
    <v>       0.65342200       0.66192500       0.07437600 </v>
    <v>       0.32008800       0.99525800       0.07437600 </v>
    <v>       0.65342200       0.99525800       0.07437600 </v>
    <v>       0.98675500       0.99525800       0.07437600 </v>
    <v>       0.20897700       0.10636900       0.17918600 </v>
    <v>       0.54231100       0.10636900       0.17918600 </v>
    <v>       0.87564400       0.10636900       0.17918600 </v>
    <v>       0.20897700       0.43970300       0.17918600 </v>
    <v>       0.54231100       0.43970300       0.17918600 </v>
    <v>       0.87564400       0.43970300       0.17918600 </v>
    <v>       0.20897700       0.77303600       0.17918600 </v>
    <v>       0.54231100       0.77303600       0.17918600 </v>
    <v>       0.87564400       0.77303600       0.17918600 </v>
    <v>       0.09595100       0.54837896       0.28260249 </v>
    <v>       0.43339367       0.88521914       0.28114108 </v>
    <v>       0.76201591       0.21766810       0.28497286 </v>
    <v>       0.09619750       0.21984484       0.28570758 </v>
    <v>       0.43297869       0.21959243       0.28287227 </v>
    <v>       0.09816725       0.88317850       0.28189679 </v>
    <v>       0.76605407       0.88504951       0.28386228 </v>
    <v>       0.43252563       0.55056362       0.28408437 </v>
    <v>       0.76454692       0.55055771       0.28358625 </v>
    <v>       0.32309620       0.66353383       0.38511625 </v>
    <v>       0.65134758       0.98829844       0.38836782 </v>
    <v>       0.32026936       0.32578098       0.38892472 </v>
    <v>       0.98810495       0.99037320       0.38827198 </v>
    <v>       0.32079114       0.99329559       0.38524911 </v>
    <v>       0.64068745       0.32671065       0.39487637 </v>
    <v>       0.99562384       0.66662416       0.38757836 </v>
    <v>       0.98955129       0.32178896       0.39237649 </v>
    <v>       0.65608008       0.66388332       0.38879316 </v>
   </varray>
  </structure>
  <varray name="forces" >
   <v>      -0.17189422      -0.94198372      -0.52479203 </v>
   <v>       0.53950885       0.36325583       0.08135950 </v>
   <v>       0.21860134      -0.03529682      -0.13421418 </v>
   <v>       0.01254465      -0.04856360       0.12630577 </v>
   <v>      -0.05196923      -0.04024890       0.17342135 </v>
   <v>      -0.02015219      -0.03539237       0.14127541 </v>
   <v>       0.02143250       0.04997753       0.11774624 </v>
   <v>      -0.02011260       0.02138950       0.12044220 </v>
   <v>       0.01259186      -0.00186976       0.17178232 </v>
   <v>       0.01344835      -0.06007210       0.01744067 </v>
   <v>      -0.00307788       0.03749974       0.12372109 </v>
   <v>       0.01977970       0.01311378       0.05395914 </v>
   <v>      -0.07312117       0.09642177      -0.11692319 </v>
   <v>       0.08314792       0.10881589      -0.14511338 </v>
   <v>       0.12846491      -0.01134527       0.06512531 </v>
   <v>      -0.01226771      -0.09648413       0.02983824 </v>
   <v>      -0.01687788       0.06342982      -0.01536033 </v>
   <v>      -0.07388096      -0.02993651       0.03697114 </v>
   <v>      -0.05164093       0.00203897      -0.30818730 </v>
   <v>       0.10590455      -0.08060170      -0.10118454 </v>
   <v>       0.01601036       0.11901268      -0.18548645 </v>
   <v>       0.05669495      -0.08234663       0.10462672 </v>
   <v>      -0.07063559      -0.03728354       0.21619860 </v>
   <v>       0.06802433       0.00085619       0.06973284 </v>
   <v>      -0.11684004       0.07455609      -0.14782944 </v>
   <v>       0.02368503      -0.07676140       0.16120531 </v>
   <v>      -0.08753546       0.00525060       0.15701537 </v>
   <v>      -0.05175687      -0.01411035      -0.20248081 </v>
   <v>      -0.03412043      -0.00666632      -0.21312472 </v>
   <v>       0.02278272      -0.05604772       0.04544462 </v>
   <v>       0.03394485      -0.06535294       0.16120373 </v>
   <v>       0.03326038       0.20586286      -0.22691107 </v>
   <v>      -0.17098310       0.06959422      -0.20939137 </v>
   <v>      -0.03583922       0.10042653       0.06636959 </v>
   <v>      -0.00423694      -0.05803115       0.20885920 </v>
   <v>      -0.20910682       0.23820678       0.13697930 </v>
   <v>      -0.10009393       0.08449669      -0.13444296 </v>
   <v>      -0.05750641      -0.07823216       0.29804370 </v>
   <v>       0.02382231       0.20242163      -0.21962561 </v>
  </varray>
  <varray name="stress" >
   <v>     -43.81829243       1.01524028       1.67954627 </v>
   <v>       1.01524030     -47.10220410      -0.95849316 </v>
   <v>       1.67954632      -0.95849315      -7.17026174 </v>
  </varray>
  <energy>
   <i name="e_fr_energy">   -230.66212557 </i>
   <i name="e_wo_entrp">   -230.65697086 </i>
   <i name="e_0_energy">     -0.01546411 </i>
  </energy>
  <time name="totalsc">   66.70   67.70</time>
 </calculation>
 <calculation>
  <scstep>
