metal                                   
           1
     7.296955   -4.212899    0.000000
     0.000000    8.425798    0.000000
     0.000000    0.000000   21.879635
   C    O    Pt
   1   2  36
Direct configuration=     1
   0.70122439  0.43875846  0.48016351
   0.90635845  0.38744674  0.46813794
   0.67308784  0.46561434  0.53005204
   0.98675500  0.32859100  0.07437600
   0.32008800  0.32859100  0.07437600
   0.65342200  0.32859100  0.07437600
   0.98675500  0.66192500  0.07437600
   0.32008800  0.66192500  0.07437600
   0.65342200  0.66192500  0.07437600
   0.32008800  0.99525800  0.07437600
   0.65342200  0.99525800  0.07437600
   0.98675500  0.99525800  0.07437600
   0.20897700  0.10636900  0.17918600
   0.54231100  0.10636900  0.17918600
   0.87564400  0.10636900  0.17918600
   0.20897700  0.43970300  0.17918600
   0.54231100  0.43970300  0.17918600
   0.87564400  0.43970300  0.17918600
   0.20897700  0.77303600  0.17918600
   0.54231100  0.77303600  0.17918600
   0.87564400  0.77303600  0.17918600
   0.09384869  0.54945563  0.28208095
   0.43437380  0.88840425  0.27791043
   0.75932295  0.21759259  0.28470584
   0.09781085  0.21743483  0.28849573
   0.43357999  0.22101932  0.28196479
   0.10231731  0.88618548  0.27971148
   0.76858187  0.88706441  0.28570165
   0.43400211  0.54985913  0.28671417
   0.76147806  0.54820933  0.28296809
   0.32222651  0.66234295  0.38427284
   0.65172888  0.98517837  0.39022339
   0.32267034  0.32679125  0.38951936
   0.98840581  0.99218433  0.38719787
   0.32131179  0.99639099  0.38450658
   0.63878857  0.31846862  0.39020950
   0.99831785  0.66561290  0.38889526
   0.99410213  0.32089956  0.38818527
   0.65309046  0.66152840  0.38904347
Direct configuration=     2
   0.70055518  0.43496829  0.47849486
   0.90759227  0.38873552  0.46738626
   0.67386754  0.46593793  0.52978315
   0.98675500  0.32859100  0.07437600
   0.32008800  0.32859100  0.07437600
   0.65342200  0.32859100  0.07437600
   0.98675500  0.66192500  0.07437600
   0.32008800  0.66192500  0.07437600
   0.65342200  0.66192500  0.07437600
   0.32008800  0.99525800  0.07437600
   0.65342200  0.99525800  0.07437600
   0.98675500  0.99525800  0.07437600
   0.20897700  0.10636900  0.17918600
   0.54231100  0.10636900  0.17918600
   0.87564400  0.10636900  0.17918600
   0.20897700  0.43970300  0.17918600
   0.54231100  0.43970300  0.17918600
   0.87564400  0.43970300  0.17918600
   0.20897700  0.77303600  0.17918600
   0.54231100  0.77303600  0.17918600
   0.87564400  0.77303600  0.17918600
   0.09450103  0.54922127  0.28216846
   0.43415520  0.88733759  0.27893954
   0.76015425  0.21746751  0.28470253
   0.09763320  0.21829039  0.28745812
   0.43312205  0.22051432  0.28210128
   0.10104397  0.88517309  0.28041110
   0.76772141  0.88638417  0.28516526
   0.43348619  0.55019459  0.28588268
   0.76266578  0.54927446  0.28315649
   0.32245270  0.66298461  0.38444376
   0.65146347  0.98583639  0.38973654
   0.32226907  0.32652681  0.38952444
   0.98836021  0.99118573  0.38757963
   0.32091096  0.99514160  0.38460810
   0.64021020  0.32129051  0.39177794
   0.99754928  0.66580861  0.38855267
   0.99229517  0.32170217  0.38965683
   0.65415730  0.66190780  0.38912435
Direct configuration=     3
   0.69961576  0.43382646  0.47899127
   0.90820780  0.38945244  0.46718056
   0.67492603  0.46532154  0.52835418
   0.98675500  0.32859100  0.07437600
   0.32008800  0.32859100  0.07437600
   0.65342200  0.32859100  0.07437600
   0.98675500  0.66192500  0.07437600
   0.32008800  0.66192500  0.07437600
   0.65342200  0.66192500  0.07437600
   0.32008800  0.99525800  0.07437600
   0.65342200  0.99525800  0.07437600
   0.98675500  0.99525800  0.07437600
   0.20897700  0.10636900  0.17918600
   0.54231100  0.10636900  0.17918600
   0.87564400  0.10636900  0.17918600
   0.20897700  0.43970300  0.17918600
   0.54231100  0.43970300  0.17918600
   0.87564400  0.43970300  0.17918600
   0.20897700  0.77303600  0.17918600
   0.54231100  0.77303600  0.17918600
   0.87564400  0.77303600  0.17918600
   0.09476053  0.54908946  0.28222532
   0.43405271  0.88694602  0.27933640
   0.76048289  0.21746229  0.28472920
   0.09745288  0.21861486  0.28712037
   0.43303349  0.22034250  0.28219857
   0.10053133  0.88479273  0.28067834
   0.76741027  0.88613257  0.28495042
   0.43330671  0.55030420  0.28556591
   0.76306171  0.54959952  0.28322949
   0.32255525  0.66315105  0.38453198
   0.65139549  0.98617571  0.38951756
   0.32200685  0.32640233  0.38946795
   0.98833289  0.99092579  0.38770803
   0.32084141  0.99474959  0.38468036
   0.64057671  0.32242093  0.39244355
   0.99722114  0.66593018  0.38839836
   0.99167007  0.32187399  0.39018796
   0.65453852  0.66214153  0.38912087
Direct configuration=     4
   0.69630363  0.42382300  0.47622934
   0.91223926  0.39346475  0.46608020
   0.67816156  0.46537482  0.52600114
   0.98675500  0.32859100  0.07437600
   0.32008800  0.32859100  0.07437600
   0.65342200  0.32859100  0.07437600
   0.98675500  0.66192500  0.07437600
   0.32008800  0.66192500  0.07437600
   0.65342200  0.66192500  0.07437600
   0.32008800  0.99525800  0.07437600
   0.65342200  0.99525800  0.07437600
   0.98675500  0.99525800  0.07437600
   0.20897700  0.10636900  0.17918600
   0.54231100  0.10636900  0.17918600
   0.87564400  0.10636900  0.17918600
   0.20897700  0.43970300  0.17918600
   0.54231100  0.43970300  0.17918600
   0.87564400  0.43970300  0.17918600
   0.20897700  0.77303600  0.17918600
   0.54231100  0.77303600  0.17918600
   0.87564400  0.77303600  0.17918600
   0.09614393  0.54838055  0.28255389
   0.43345721  0.88487596  0.28142848
   0.76221937  0.21749991  0.28491235
   0.09633502  0.22026045  0.28538752
   0.43269074  0.21947078  0.28279125
   0.09780434  0.88279803  0.28208728
   0.76578619  0.88481859  0.28378977
   0.43236553  0.55081031  0.28389043
   0.76506327  0.55120062  0.28362430
   0.32310636  0.66391843  0.38503607
   0.65111344  0.98811596  0.38832251
   0.32048501  0.32573388  0.38908931
   0.98815438  0.98972840  0.38837214
   0.32057423  0.99279661  0.38512474
   0.64233288  0.32848888  0.39606375
   0.99547049  0.66659293  0.38753978
   0.98859524  0.32261651  0.39300295
   0.65649631  0.66356804  0.38899735
Direct configuration=     5
   0.69636446  0.42418755  0.47699910
   0.91294408  0.39436887  0.46670216
   0.67818444  0.46533639  0.52618774
   0.98675500  0.32859100  0.07437600
   0.32008800  0.32859100  0.07437600
   0.65342200  0.32859100  0.07437600
   0.98675500  0.66192500  0.07437600
   0.32008800  0.66192500  0.07437600
   0.65342200  0.66192500  0.07437600
   0.32008800  0.99525800  0.07437600
   0.65342200  0.99525800  0.07437600
   0.98675500  0.99525800  0.07437600
   0.20897700  0.10636900  0.17918600
   0.54231100  0.10636900  0.17918600
   0.87564400  0.10636900  0.17918600
   0.20897700  0.43970300  0.17918600
   0.54231100  0.43970300  0.17918600
   0.87564400  0.43970300  0.17918600
   0.20897700  0.77303600  0.17918600
   0.54231100  0.77303600  0.17918600
   0.87564400  0.77303600  0.17918600
   0.09595100  0.54837896  0.28260249
   0.43339367  0.88521914  0.28114108
   0.76201591  0.21766810  0.28497286
   0.09619750  0.21984484  0.28570758
   0.43297869  0.21959243  0.28287227
   0.09816725  0.88317850  0.28189679
   0.76605407  0.88504951  0.28386228
   0.43252563  0.55056362  0.28408437
   0.76454692  0.55055771  0.28358625
   0.32309620  0.66353383  0.38511625
   0.65134758  0.98829844  0.38836782
   0.32026936  0.32578098  0.38892472
   0.98810495  0.99037320  0.38827198
   0.32079114  0.99329559  0.38524911
   0.64068745  0.32671065  0.39487637
   0.99562384  0.66662416  0.38757836
   0.98955129  0.32178896  0.39237649
   0.65608008  0.66388332  0.38879316
