       N       E                     dE             d eps       ncg     rms          rms(c)
DAV:   1     0.241923430518E+04    0.24192E+04   -0.15950E+05  1824   0.129E+03
DAV:   2    -0.638370692389E+02   -0.24831E+04   -0.23066E+04  2120   0.286E+02
DAV:   3    -0.240404908305E+03   -0.17657E+03   -0.16014E+03  2152   0.689E+01
DAV:   4    -0.248186940072E+03   -0.77820E+01   -0.74915E+01  2328   0.138E+01
DAV:   5    -0.248426921350E+03   -0.23998E+00   -0.23772E+00  2456   0.246E+00    0.273E+01
RMM:   6    -0.245509915340E+03    0.29170E+01   -0.53994E+01  1832   0.148E+01    0.287E+01
RMM:   7    -0.239036865905E+03    0.64730E+01   -0.31706E+01  1831   0.886E+00    0.186E+01
RMM:   8    -0.243946233064E+03   -0.49094E+01   -0.84491E+00  1828   0.471E+00    0.242E+01
RMM:   9    -0.232106006648E+03    0.11840E+02   -0.34844E+00  1832   0.295E+00    0.938E+00
RMM:  10    -0.230719001133E+03    0.13870E+01   -0.13575E+00  1831   0.188E+00    0.469E+00
RMM:  11    -0.230347428637E+03    0.37157E+00   -0.35410E-01  1831   0.939E-01    0.298E+00
RMM:  12    -0.230249322732E+03    0.98106E-01   -0.18404E-01  1832   0.672E-01    0.232E+00
RMM:  13    -0.230212068043E+03    0.37255E-01   -0.14180E-01  1832   0.628E-01    0.181E+00
RMM:  14    -0.230171116413E+03    0.40952E-01   -0.88386E-02  1831   0.509E-01    0.899E-01
RMM:  15    -0.230163230190E+03    0.78862E-02   -0.24145E-02  1832   0.260E-01    0.537E-01
RMM:  16    -0.230159741642E+03    0.34885E-02   -0.72282E-03  1831   0.145E-01    0.296E-01
RMM:  17    -0.230159327128E+03    0.41451E-03   -0.26673E-03  1821   0.869E-02    0.220E-01
RMM:  18    -0.230159149727E+03    0.17740E-03   -0.11806E-03  1803   0.592E-02    0.127E-01
RMM:  19    -0.230159095164E+03    0.54564E-04   -0.42351E-04  1374   0.364E-02
   1 F= -.23015910E+03 E0= -.23015558E+03  d E =-.230159E+03
       N       E                     dE             d eps       ncg     rms          rms(c)
DAV:   1    -0.230322972853E+03   -0.16382E+00   -0.23814E+01  1852   0.883E+00    0.647E-01
RMM:   2    -0.230362851432E+03   -0.39879E-01   -0.40960E-01  1836   0.138E+00    0.739E-01
RMM:   3    -0.230366097332E+03   -0.32459E-02   -0.28306E-02  1865   0.297E-01    0.895E-01
RMM:   4    -0.230357019201E+03    0.90781E-02   -0.59718E-03  1860   0.129E-01    0.509E-01
RMM:   5    -0.230354014019E+03    0.30052E-02   -0.48761E-03  1834   0.118E-01    0.323E-01
RMM:   6    -0.230354141640E+03   -0.12762E-03   -0.63925E-03  1828   0.136E-01    0.321E-01
RMM:   7    -0.230352772084E+03    0.13696E-02   -0.29859E-03  1826   0.935E-02    0.131E-01
RMM:   8    -0.230352641193E+03    0.13089E-03   -0.67397E-04  1714   0.449E-02    0.833E-02
RMM:   9    -0.230352602590E+03    0.38604E-04   -0.14764E-04   995   0.225E-02
   2 F= -.23035260E+03 E0= -.23034881E+03  d E =-.193507E+00
       N       E                     dE             d eps       ncg     rms          rms(c)
DAV:   1    -0.230410945945E+03   -0.58305E-01   -0.65930E+00  1840   0.481E+00    0.447E-01
RMM:   2    -0.230432446789E+03   -0.21501E-01   -0.23337E-01  1841   0.799E-01    0.449E-01
RMM:   3    -0.230429263079E+03    0.31837E-02   -0.87020E-03  1844   0.156E-01    0.344E-01
RMM:   4    -0.230429002229E+03    0.26085E-03   -0.37984E-03  1836   0.103E-01    0.347E-01
RMM:   5    -0.230433159925E+03   -0.41577E-02   -0.33393E-03  1830   0.917E-02    0.611E-01
RMM:   6    -0.230427725900E+03    0.54340E-02   -0.25613E-03  1826   0.821E-02    0.225E-01
RMM:   7    -0.230426978070E+03    0.74783E-03   -0.12547E-03  1810   0.588E-02    0.904E-02
RMM:   8    -0.230426882352E+03    0.95718E-04   -0.20608E-04  1036   0.259E-02
   3 F= -.23042688E+03 E0= -.23042333E+03  d E =-.742798E-01
       N       E                     dE             d eps       ncg     rms          rms(c)
