metal                                   
           1
     7.296955   -4.212899    0.000000
     0.000000    8.425798    0.000000
     0.000000    0.000000   21.879635
   C    O    Pt
   1   2  36
Direct configuration=     1
   0.70154302  0.43117583  0.47817677
   0.90245271  0.38589991  0.46737384
   0.67340648  0.45803171  0.52806531
   0.98675500  0.32859100  0.07437600
   0.32008800  0.32859100  0.07437600
   0.65342200  0.32859100  0.07437600
   0.98675500  0.66192500  0.07437600
   0.32008800  0.66192500  0.07437600
   0.65342200  0.66192500  0.07437600
   0.32008800  0.99525800  0.07437600
   0.65342200  0.99525800  0.07437600
   0.98675500  0.99525800  0.07437600
   0.20897700  0.10636900  0.17918600
   0.54231100  0.10636900  0.17918600
   0.87564400  0.10636900  0.17918600
   0.20897700  0.43970300  0.17918600
   0.54231100  0.43970300  0.17918600
   0.87564400  0.43970300  0.17918600
   0.20897700  0.77303600  0.17918600
   0.54231100  0.77303600  0.17918600
   0.87564400  0.77303600  0.17918600
   0.09284688  0.54726823  0.27812301
   0.42873841  0.88605186  0.27970132
   0.76849389  0.21885735  0.28369050
   0.09803242  0.21754265  0.28531359
   0.43787938  0.21360584  0.28617555
   0.09774573  0.88708327  0.28298662
   0.76346375  0.87843072  0.28165693
   0.42919517  0.54925421  0.28538584
   0.76219382  0.54923389  0.28546409
   0.32820240  0.66144583  0.38224939
   0.65516806  0.98931399  0.38829187
   0.31784402  0.32526014  0.39078441
   0.98552942  0.98645132  0.38972055
   0.32332399  0.99378769  0.38391719
   0.64791520  0.32086084  0.39570559
   0.98978195  0.67157457  0.38598536
   0.99609833  0.32510026  0.39251490
   0.65974363  0.66674194  0.38966497
Direct configuration=     2
   0.70070374  0.42776914  0.47725087
   0.90370769  0.38691947  0.46731907
   0.67418890  0.45884418  0.52805450
   0.98675500  0.32859100  0.07437600
   0.32008800  0.32859100  0.07437600
   0.65342200  0.32859100  0.07437600
   0.98675500  0.66192500  0.07437600
   0.32008800  0.66192500  0.07437600
   0.65342200  0.66192500  0.07437600
   0.32008800  0.99525800  0.07437600
   0.65342200  0.99525800  0.07437600
   0.98675500  0.99525800  0.07437600
   0.20897700  0.10636900  0.17918600
   0.54231100  0.10636900  0.17918600
   0.87564400  0.10636900  0.17918600
   0.20897700  0.43970300  0.17918600
   0.54231100  0.43970300  0.17918600
   0.87564400  0.43970300  0.17918600
   0.20897700  0.77303600  0.17918600
   0.54231100  0.77303600  0.17918600
   0.87564400  0.77303600  0.17918600
   0.09356722  0.54774641  0.27923180
   0.42982695  0.88531786  0.28009673
   0.76771122  0.21816547  0.28400029
   0.09768276  0.21779822  0.28538944
   0.43781282  0.21575634  0.28566199
   0.09726473  0.88627637  0.28272061
   0.76347043  0.87953026  0.28194330
   0.42987718  0.54842130  0.28472372
   0.76205612  0.54867412  0.28508397
   0.32701532  0.66199353  0.38275030
   0.65512817  0.98958068  0.38785974
   0.31835211  0.32497901  0.39047879
   0.98601398  0.98816425  0.38963869
   0.32267173  0.99279116  0.38459656
   0.64686201  0.32237481  0.39613279
   0.99114393  0.67085063  0.38592616
   0.99568943  0.32497319  0.39276740
   0.65886686  0.66612074  0.38957829
Direct configuration=     3
   0.70006119  0.42684529  0.47790359
   0.90431068  0.38751816  0.46734942
   0.67502315  0.45864816  0.52711476
   0.98675500  0.32859100  0.07437600
   0.32008800  0.32859100  0.07437600
   0.65342200  0.32859100  0.07437600
   0.98675500  0.66192500  0.07437600
   0.32008800  0.66192500  0.07437600
   0.65342200  0.66192500  0.07437600
   0.32008800  0.99525800  0.07437600
   0.65342200  0.99525800  0.07437600
   0.98675500  0.99525800  0.07437600
   0.20897700  0.10636900  0.17918600
   0.54231100  0.10636900  0.17918600
   0.87564400  0.10636900  0.17918600
   0.20897700  0.43970300  0.17918600
   0.54231100  0.43970300  0.17918600
   0.87564400  0.43970300  0.17918600
   0.20897700  0.77303600  0.17918600
   0.54231100  0.77303600  0.17918600
   0.87564400  0.77303600  0.17918600
   0.09384498  0.54787432  0.27965958
   0.43021067  0.88510641  0.28026718
   0.76739081  0.21796219  0.28412635
   0.09751972  0.21790673  0.28541283
   0.43765036  0.21635638  0.28548580
   0.09715225  0.88599524  0.28263869
   0.76351412  0.87993494  0.28205611
   0.43010579  0.54817713  0.28449985
   0.76209592  0.54852839  0.28494015
   0.32659695  0.66216602  0.38294512
   0.65506540  0.98970156  0.38769340
   0.31856446  0.32487451  0.39033219
   0.98620795  0.98876685  0.38959427
   0.32245676  0.99250733  0.38483609
   0.64616925  0.32280855  0.39614715
   0.99163629  0.67058566  0.38590011
   0.99548957  0.32486852  0.39286752
   0.65853069  0.66591878  0.38949901
