 vasp.5.4.4 16052018 (build Apr 24 2014 20:13:14) complex standard
 Contain Constrained Minimization Technique (TS), Periodic NBO, VASPsol, libbeef, VASP2WANNIER90, Constrained Cell Relaxation
 executed on Center for Computational Chemistry by phu@node09 date 2025.11.24 21:29:54
 running on    8 total cores
 distrk:  each k-point on    8 cores,    1 groups
 distr:  one band on NCORES_PER_BAND=   2 cores,    4 groups


--------------------------------------------------------------------------------------------------------


 INCAR:
 POTCAR:   PAW_PBE C 08Apr2002                    
 POTCAR:   PAW_PBE O 08Apr2002                    
 POTCAR:    PAW_PBE Pt 04Feb2005                  
 POTCAR:   PAW_PBE C 08Apr2002                    
   VRHFIN =C: s2p2                                                              
   LEXCH  = PE                                                                  
   EATOM  =   147.1560 eV,   10.8157 Ry                                         
                                                                                
   TITEL  = PAW_PBE C 08Apr2002                                                 
   LULTRA =        F    use ultrasoft PP ?                                      
   IUNSCR =        0    unscreen: 0-lin 1-nonlin 2-no                           
   RPACOR =     .000    partial core radius                                     
   POMASS =   12.011; ZVAL   =    4.000    mass and valenz                      
   RCORE  =    1.500    outmost cutoff radius                                   
   RWIGS  =    1.630; RWIGS  =     .863    wigner-seitz radius (au A)           
   ENMAX  =  400.000; ENMIN  =  300.000 eV                                      
   ICORE  =        2    local potential                                         
   LCOR   =        T    correct aug charges                                     
   LPAW   =        T    paw PP                                                  
   EAUG   =  644.873                                                            
   DEXC   =     .000                                                            
   RMAX   =    2.266    core radius for proj-oper                               
   RAUG   =    1.300    factor for augmentation sphere                          
   RDEP   =    1.501    radius for radial grids                                 
   RDEPT  =    1.300    core radius for aug-charge                              
   QCUT   =   -5.516; QGAM   =   11.032    optimization parameters              
                                                                                
   Description                                                                  
     l     E      TYP  RCUT    TYP  RCUT                                        
     0   .000     23  1.200                                                     
     0   .000     23  1.200                                                     
     1   .000     23  1.500                                                     
     1  2.500     23  1.500                                                     
     2   .000      7  1.500                                                     
  local pseudopotential read in
  atomic valenz-charges read in
  non local Contribution for L=           0  read in
    real space projection operators read in
  non local Contribution for L=           0  read in
    real space projection operators read in
  non local Contribution for L=           1  read in
    real space projection operators read in
  non local Contribution for L=           1  read in
    real space projection operators read in
    PAW grid and wavefunctions read in
 
   number of l-projection  operators is LMAX  =           4
   number of lm-projection operators is LMMAX =           8
 
 POTCAR:   PAW_PBE O 08Apr2002                    
   VRHFIN =O: s2p4                                                              
   LEXCH  = PE                                                                  
   EATOM  =   432.3788 eV,   31.7789 Ry                                         
                                                                                
   TITEL  = PAW_PBE O 08Apr2002                                                 
   LULTRA =        F    use ultrasoft PP ?                                      
   IUNSCR =        0    unscreen: 0-lin 1-nonlin 2-no                           
   RPACOR =     .000    partial core radius                                     
   POMASS =   16.000; ZVAL   =    6.000    mass and valenz                      
   RCORE  =    1.520    outmost cutoff radius                                   
   RWIGS  =    1.550; RWIGS  =     .820    wigner-seitz radius (au A)           
   ENMAX  =  400.000; ENMIN  =  300.000 eV                                      
   ICORE  =        2    local potential                                         
   LCOR   =        T    correct aug charges                                     
   LPAW   =        T    paw PP                                                  
   EAUG   =  605.392                                                            
   DEXC   =     .000                                                            
   RMAX   =    2.264    core radius for proj-oper                               
   RAUG   =    1.300    factor for augmentation sphere                          
   RDEP   =    1.550    radius for radial grids                                 
   QCUT   =   -5.520; QGAM   =   11.041    optimization parameters              
                                                                                
   Description                                                                  
     l     E      TYP  RCUT    TYP  RCUT                                        
     0   .000     23  1.200                                                     
     0  -.700     23  1.200                                                     
     1   .000     23  1.520                                                     
     1   .600     23  1.520                                                     
     2   .000      7  1.500                                                     
  local pseudopotential read in
  atomic valenz-charges read in
  non local Contribution for L=           0  read in
    real space projection operators read in
  non local Contribution for L=           0  read in
    real space projection operators read in
  non local Contribution for L=           1  read in
    real space projection operators read in
  non local Contribution for L=           1  read in
    real space projection operators read in
    PAW grid and wavefunctions read in
 
   number of l-projection  operators is LMAX  =           4
   number of lm-projection operators is LMMAX =           8
 
 POTCAR:    PAW_PBE Pt 04Feb2005                  
   VRHFIN =Pt: s1d9                                                             
   LEXCH  = PE                                                                  
   EATOM  =   729.1182 eV,   53.5887 Ry                                         
                                                                                
   TITEL  = PAW_PBE Pt 04Feb2005                                                
   LULTRA =        F    use ultrasoft PP ?                                      
   IUNSCR =        1    unscreen: 0-lin 1-nonlin 2-no                           
   RPACOR =    2.330    partial core radius                                     
   POMASS =  195.080; ZVAL   =   10.000    mass and valenz                      
   RCORE  =    2.600    outmost cutoff radius                                   
   RWIGS  =    2.750; RWIGS  =    1.455    wigner-seitz radius (au A)           
   ENMAX  =  230.283; ENMIN  =  172.712 eV                                      
   ICORE  =        3    local potential                                         
   LCOR   =        T    correct aug charges                                     
   LPAW   =        T    paw PP                                                  
   EAUG   =  358.966                                                            
   DEXC   =     .000                                                            
   RMAX   =    3.038    core radius for proj-oper                               
   RAUG   =    1.300    factor for augmentation sphere                          
   RDEP   =    2.761    radius for radial grids                                 
   QCUT   =   -4.114; QGAM   =    8.228    optimization parameters              
                                                                                
   Description                                                                  
     l     E      TYP  RCUT    TYP  RCUT                                        
     2   .000     23  2.500                                                     
     2   .000     23  2.500                                                     
     0   .000     23  2.500                                                     
     0   .000     23  2.500                                                     
     1  -.200     23  2.600                                                     
     1  1.500     23  2.600                                                     
     3   .000     23  2.500                                                     
  local pseudopotential read in
  partial core-charges read in
  atomic valenz-charges read in
  non local Contribution for L=           2  read in
    real space projection operators read in
  non local Contribution for L=           2  read in
    real space projection operators read in
  non local Contribution for L=           0  read in
    real space projection operators read in
  non local Contribution for L=           0  read in
    real space projection operators read in
  non local Contribution for L=           1  read in
    real space projection operators read in
  non local Contribution for L=           1  read in
    real space projection operators read in
    PAW grid and wavefunctions read in
 
   number of l-projection  operators is LMAX  =           6
   number of lm-projection operators is LMMAX =          18
 
 Optimization of the real space projectors (new method)

 maximal supplied QI-value         = 25.13
 optimisation between [QCUT,QGAM] = [ 10.81, 21.61] = [ 32.71,130.83] Ry 
 Optimized for a Real-space Cutoff    1.23 Angstroem

   l    n(q)    QCUT    max X(q) W(low)/X(q) W(high)/X(q)  e(spline) 
   0      8    10.807     5.582    0.53E-04    0.84E-04    0.44E-07
   0      8    10.807    69.432    0.35E-03    0.71E-03    0.24E-06
   1      7    10.807     2.780    0.44E-04    0.88E-04    0.89E-07
   1      7    10.807     4.549    0.14E-03    0.28E-03    0.13E-06
 Optimization of the real space projectors (new method)

 maximal supplied QI-value         = 24.76
 optimisation between [QCUT,QGAM] = [ 10.64, 21.54] = [ 31.73,129.89] Ry 
 Optimized for a Real-space Cutoff    1.23 Angstroem

   l    n(q)    QCUT    max X(q) W(low)/X(q) W(high)/X(q)  e(spline) 
   0      8    10.645     4.192    0.69E-04    0.93E-04    0.58E-07
   0      8    10.645     8.473    0.40E-03    0.65E-03    0.17E-06
   1      7    10.645     2.474    0.80E-04    0.12E-03    0.30E-07
   1      7    10.645     3.912    0.24E-03    0.53E-03    0.16E-06
 Optimization of the real space projectors (new method)

 maximal supplied QI-value         = 14.36
 optimisation between [QCUT,QGAM] = [ 10.77, 21.69] = [ 32.49,131.70] Ry 
 Optimized for a Real-space Cutoff    1.46 Angstroem

   l    n(q)    QCUT    max X(q) W(low)/X(q) W(high)/X(q)  e(spline) 
   2      9    10.771     3.903    0.38E-04    0.12E-03    0.82E-07
   2      9    10.771    18.372    0.13E-03    0.32E-03    0.28E-06
   0     10    10.771    13.697    0.11E-04    0.86E-05    0.85E-08
   0     10    10.771    65.529    0.40E-04    0.12E-03    0.14E-06
   1      9    10.771     7.604    0.48E-04    0.31E-04    0.38E-07
   1      9    10.771    12.136    0.35E-03    0.16E-03    0.23E-06
 PAW_PBE C 08Apr2002                    :
 energy of atom  1       EATOM= -147.1560
 kinetic energy error for atom=    0.0116 (will be added to EATOM!!)
 PAW_PBE O 08Apr2002                    :
 energy of atom  2       EATOM= -432.3788
 kinetic energy error for atom=    0.0389 (will be added to EATOM!!)
  PAW_PBE Pt 04Feb2005                  :
 energy of atom  3       EATOM= -729.1182
 kinetic energy error for atom=    0.0051 (will be added to EATOM!!)
 
 
 POSCAR: C    O    Pt                            
  positions in direct lattice
  No initial velocities read in
 exchange correlation table for  LEXCH =        8
   RHO(1)=    0.500       N(1)  =     2000
   RHO(2)=  100.500       N(2)  =     4000

 VTST: version 3.2, (02/03/18)

 CHAIN: initializing optimizer
 
 OPT: Using VASP QUASI-newton optimizer
 CHAIN: Read ICHAIN            0
 
 POSCAR: C    O    Pt                            
  positions in direct lattice
  No initial velocities read in
 


--------------------------------------------------------------------------------------------------------


 ion  position               nearest neighbor table
   1  0.700  0.431  0.477-   3 1.16  36 1.98   2 2.00
   2  0.907  0.383  0.465-  38 1.91   1 2.00  36 2.54
   3  0.672  0.458  0.527-   1 1.16
   4  0.987  0.329  0.074-  15 2.81  16 2.81  12 2.81   5 2.81  11 2.81   6 2.81  18 2.81   8 2.81
                             7 2.81
   5  0.320  0.329  0.074-  13 2.81  10 2.81   4 2.81  12 2.81  16 2.81  17 2.81   8 2.81   9 2.81
                             6 2.81
   6  0.653  0.329  0.074-  14 2.81  18 2.81  11 2.81   4 2.81  17 2.81   7 2.81  10 2.81   9 2.81
                             5 2.81
   7  0.987  0.662  0.074-  18 2.81  21 2.81  19 2.81  12 2.81   8 2.81  10 2.81   9 2.81   6 2.81
                             4 2.81
   8  0.320  0.662  0.074-  16 2.81  19 2.81  10 2.81   7 2.81  20 2.81   4 2.81  11 2.81   5 2.81
                             9 2.81
   9  0.653  0.662  0.074-  17 2.81  20 2.81  21 2.81  11 2.81  12 2.81   7 2.81   6 2.81   5 2.81
                             8 2.81
  10  0.320  0.995  0.074-  13 2.81  19 2.81   5 2.81   8 2.81  12 2.81   7 2.81  14 2.81   6 2.81
                            11 2.81
  11  0.653  0.995  0.074-  14 2.81  20 2.81  15 2.81   9 2.81   6 2.81  12 2.81   4 2.81   8 2.81
                            10 2.81
  12  0.987  0.995  0.074-  15 2.81  21 2.81  13 2.81   7 2.81   4 2.81  10 2.81   5 2.81  11 2.81
                             9 2.81
  13  0.209  0.106  0.179-  27 2.72  25 2.80   5 2.81  10 2.81  12 2.81  19 2.81  15 2.81  21 2.81
                            16 2.81  14 2.81  17 2.81  26 2.82
  14  0.542  0.106  0.179-  23 2.70  24 2.75  26 2.78  11 2.81   6 2.81  20 2.81  15 2.81  10 2.81
                            18 2.81  19 2.81  17 2.81  13 2.81
  15  0.876  0.106  0.179-  25 2.78  24 2.80  28 2.80  12 2.81   4 2.81  11 2.81  21 2.81  13 2.81
                            14 2.81  20 2.81  16 2.81  18 2.81
  16  0.209  0.440  0.179-  22 2.71  29 2.75  25 2.78   8 2.81   4 2.81  19 2.81  18 2.81   5 2.81
                            15 2.81  20 2.81  13 2.81  17 2.81
  17  0.542  0.440  0.179-  29 2.71  30 2.72  26 2.78   9 2.81  20 2.81  21 2.81  18 2.81   6 2.81
                             5 2.81  14 2.81  13 2.81  16 2.81
  18  0.876  0.440  0.179-  22 2.71  30 2.71  24 2.75   7 2.81   6 2.81  21 2.81  16 2.81  19 2.81
                            17 2.81   4 2.81  14 2.81  15 2.81
  19  0.209  0.773  0.179-  27 2.67  22 2.73  23 2.73  10 2.81   8 2.81   7 2.81  16 2.81  13 2.81
                            21 2.81  18 2.81  14 2.81  20 2.81
  20  0.542  0.773  0.179-  23 2.71  29 2.75  28 2.76  11 2.81   9 2.81  17 2.81  14 2.81  21 2.81
                            15 2.81   8 2.81  16 2.81  19 2.81
  21  0.876  0.773  0.179-  27 2.73  30 2.73  28 2.77  12 2.81   7 2.81   9 2.81  18 2.81  15 2.81
                            19 2.81  13 2.81  17 2.81  20 2.81
  22  0.096  0.547  0.279-  16 2.71  18 2.71  19 2.73  25 2.76  37 2.78  24 2.78  27 2.79  30 2.80
                            29 2.84  23 2.86  38 2.96  31 2.98
  23  0.436  0.887  0.279-  14 2.70  20 2.71  19 2.73  32 2.75  28 2.78  27 2.78  24 2.79  26 2.80
                            35 2.83  29 2.85  22 2.86  31 2.98
  24  0.762  0.222  0.282-  26 2.73  30 2.74  18 2.75  14 2.75  32 2.78  22 2.78  23 2.79  15 2.80
                            25 2.83  28 2.89  36 2.94  38 2.96
  25  0.097  0.219  0.283-  22 2.76  16 2.78  15 2.78  13 2.80  33 2.80  29 2.81  38 2.83  24 2.83
                            28 2.85  34 2.86  26 2.87  27 2.88
  26  0.438  0.221  0.283-  24 2.73  33 2.76  30 2.76  35 2.77  29 2.78  17 2.78  14 2.78  23 2.80
                            13 2.82  27 2.84  36 2.85  25 2.87
  27  0.103  0.881  0.278-  19 2.67  13 2.72  21 2.73  37 2.75  23 2.78  22 2.79  35 2.82  30 2.83
                            26 2.84  28 2.87  25 2.88  34 2.92
  28  0.761  0.879  0.282-  32 2.70  39 2.76  20 2.76  29 2.77  21 2.77  23 2.78  15 2.80  30 2.80
                            25 2.85  34 2.86  27 2.87  24 2.89
  29  0.434  0.548  0.280-  17 2.71  20 2.75  16 2.75  28 2.77  26 2.78  30 2.78  25 2.81  33 2.83
                            22 2.84  39 2.85  23 2.85  31 2.91
  30  0.765  0.549  0.279-  18 2.71  17 2.72  21 2.73  24 2.74  26 2.76  29 2.78  22 2.80  28 2.80
                            37 2.81  27 2.83  39 2.87  36 3.02
  31  0.326  0.657  0.391-  39 2.75  32 2.77  33 2.79  38 2.79  37 2.83  35 2.87  29 2.91  22 2.98
                            23 2.98
  32  0.651  0.988  0.382-  28 2.70  39 2.73  23 2.75  31 2.77  24 2.78  35 2.81  34 2.83  36 2.86
                            38 2.88
  33  0.325  0.326  0.386-  36 2.70  26 2.76  38 2.77  35 2.78  31 2.79  25 2.80  29 2.83  34 2.83
                            39 2.84
  34  0.988  0.991  0.389-  37 2.76  39 2.76  38 2.79  35 2.79  32 2.83  33 2.83  28 2.86  25 2.86
                            27 2.92
  35  0.320  0.995  0.385-  36 2.74  37 2.74  26 2.77  33 2.78  34 2.79  32 2.81  27 2.82  23 2.83
                            31 2.87
  36  0.641  0.321  0.394-   1 1.98   2 2.54  33 2.70  35 2.74  26 2.85  39 2.86  32 2.86  24 2.94
                            38 2.97  37 2.97  30 3.02
  37  0.996  0.668  0.382-  35 2.74  27 2.75  34 2.76  22 2.78  30 2.81  31 2.83  39 2.85  38 2.90
                            36 2.97
  38  0.995  0.325  0.392-   2 1.91  33 2.77  34 2.79  31 2.79  25 2.83  32 2.88  37 2.90  24 2.96
                            22 2.96  36 2.97
  39  0.657  0.667  0.387-  32 2.73  31 2.75  34 2.76  28 2.76  33 2.84  29 2.85  37 2.85  36 2.86
                            30 2.87
 

IMPORTANT INFORMATION: All symmetrisations will be switched off!
NOSYMM: (Re-)initialisation of all symmetry stuff for point group C_1.

 
 
 KPOINTS: mesh auto                               

Automatic generation of k-mesh.
Space group operators:
 irot       det(A)        alpha          n_x          n_y          n_z        tau_x        tau_y        tau_z
    1     1.000000     0.000000     1.000000     0.000000     0.000000     0.000000     0.000000     0.000000
 
 Subroutine IBZKPT returns following result:
 ===========================================
 
 Found      4 irreducible k-points:
 
 Following reciprocal coordinates:
            Coordinates               Weight
  0.000000  0.000000  0.000000      1.000000
  0.500000  0.000000  0.000000      1.000000
 -0.000000  0.500000  0.000000      1.000000
  0.500000  0.500000  0.000000      1.000000
 
 Following cartesian coordinates:
            Coordinates               Weight
  0.000000  0.000000  0.000000      1.000000
  0.068522  0.000000  0.000000      1.000000
  0.034261  0.059342  0.000000      1.000000
  0.102783  0.059342  0.000000      1.000000
 


--------------------------------------------------------------------------------------------------------




 Dimension of arrays:
   k-points           NKPTS =      4   k-points in BZ     NKDIM =      4   number of bands    NBANDS=    228
   number of dos      NEDOS =    301   number of ions     NIONS =     39
   non local maximal  LDIM  =      6   non local SUM 2l+1 LMDIM =     18
   total plane-waves  NPLWV = 276480
   max r-space proj   IRMAX =   2756   max aug-charges    IRDMAX=  12646
   dimension x,y,z NGX =    48 NGY =   48 NGZ =  120
   dimension x,y,z NGXF=    96 NGYF=   96 NGZF=  240
   support grid    NGXF=    96 NGYF=   96 NGZF=  240
   ions per type =               1   2  36
   NGX,Y,Z   is equivalent  to a cutoff of   9.47,  9.47,  9.12 a.u.
   NGXF,Y,Z  is equivalent  to a cutoff of  18.94, 18.94, 18.24 a.u.

 SYSTEM =  metal                                   
 POSCAR =  C    O    Pt                            

 Startparameter for this run:
   NWRITE =      2    write-flag & timer
   PREC   = normal    normal or accurate (medium, high low for compatibility)
   ISTART =      0    job   : 0-new  1-cont  2-samecut
   ICHARG =      2    charge: 1-file 2-atom 10-const
   ISPIN  =      1    spin polarized calculation?
   LNONCOLLINEAR =      F non collinear calculations
   LSORBIT =      F    spin-orbit coupling
   INIWAV =      1    electr: 0-lowe 1-rand  2-diag
   LASPH  =      F    aspherical Exc in radial PAW
   METAGGA=      F    non-selfconsistent MetaGGA calc.

 Electronic Relaxation 1
   ENCUT  =  450.0 eV  33.07 Ry    5.75 a.u.  14.57 14.57 37.84*2*pi/ulx,y,z
   ENINI  =  450.0     initial cutoff
   ENAUG  =  644.9 eV  augmentation charge cutoff
   NELM   =     60;   NELMIN=  8; NELMDL= -5     # of ELM steps 
   EDIFF  = 0.1E-03   stopping-criterion for ELM
   LREAL  =      T    real-space projection
   NLSPLINE    = F    spline interpolate recip. space projectors
   LCOMPAT=      F    compatible to vasp.4.4
   GGA_COMPAT  = T    GGA compatible to vasp.4.4-vasp.4.6
   LMAXPAW     = -100 max onsite density
   LMAXMIX     =    2 max onsite mixed and CHGCAR
   VOSKOWN=      0    Vosko Wilk Nusair interpolation
   ROPT   =   -0.00050  -0.00050  -0.00050
 Ionic relaxation
   EDIFFG = -.5E-01   stopping-criterion for IOM
   NSW    =   5000    number of steps for IOM
   NBLOCK =      1;   KBLOCK =   5000    inner block; outer block 
   IBRION =      1    ionic relax: 0-MD 1-quasi-New 2-CG
   NFREE  =      0    steps in history (QN), initial steepest desc. (CG)
   ISIF   =      2    stress and relaxation
   IWAVPR =     11    prediction:  0-non 1-charg 2-wave 3-comb
   ISYM   =      0    0-nonsym 1-usesym 2-fastsym
   LCORR  =      T    Harris-Foulkes like correction to forces

   POTIM  = 0.2000    time-step for ionic-motion
   TEIN   =    0.0    initial temperature
   TEBEG  =    0.0;   TEEND  =   0.0 temperature during run
   SMASS  =  -3.00    Nose mass-parameter (am)
   estimated Nose-frequenzy (Omega)   =  0.10E-29 period in steps =****** mass=  -0.162E-26a.u.
   SCALEE = 1.0000    scale energy and forces
   NPACO  =    256;   APACO  = 16.0  distance and # of slots for P.C.
   PSTRESS=    0.0 pullay stress

  Mass of Ions in am
   POMASS =  12.01 16.00195.08
  Ionic Valenz
   ZVAL   =   4.00  6.00 10.00
  Atomic Wigner-Seitz radii
   RWIGS  =  -1.00 -1.00 -1.00
  virtual crystal weights 
   VCA    =   1.00  1.00  1.00
   NELECT =     376.0000    total number of electrons
   NUPDOWN=      -1.0000    fix difference up-down

 DOS related values:
   EMIN   =  10.00;   EMAX   =-10.00  energy-range for DOS
   EFERMI =   0.00
   ISMEAR =     1;   SIGMA  =   0.20  broadening in eV -4-tet -1-fermi 0-gaus

 Electronic relaxation 2 (details)
   IALGO  =     68    algorithm
   LDIAG  =      T    sub-space diagonalisation (order eigenvalues)
   LSUBROT=      F    optimize rotation matrix (better conditioning)
   TURBO    =      0    0=normal 1=particle mesh
   IRESTART =      0    0=no restart 2=restart with 2 vectors
   NREBOOT  =      0    no. of reboots
   NMIN     =      0    reboot dimension
   EREF     =   0.00    reference energy to select bands
   IMIX   =      4    mixing-type and parameters
     AMIX     =   0.40;   BMIX     =  1.00
     AMIX_MAG =   1.60;   BMIX_MAG =  1.00
     AMIN     =   0.10
     WC   =   100.;   INIMIX=   1;  MIXPRE=   1;  MAXMIX= -45

 Intra band minimization:
   WEIMIN = 0.0010     energy-eigenvalue tresh-hold
   EBREAK =  0.11E-06  absolut break condition
   DEPER  =   0.30     relativ break condition  

   TIME   =   0.40     timestep for ELM

  volume/ion in A,a.u.               =      34.49       232.77
  Fermi-wavevector in a.u.,A,eV,Ry     =   1.070385  2.022734 15.588510  1.145723
  Thomas-Fermi vector in A             =   2.206093
 
 Write flags
   LWAVE        =      F    write WAVECAR
   LDOWNSAMPLE  =      F    k-point downsampling of WAVECAR
   LCHARG       =      F    write CHGCAR
   LVTOT        =      F    write LOCPOT, total local potential
   LVHAR        =      F    write LOCPOT, Hartree potential only
   LELF         =      F    write electronic localiz. function (ELF)
   LORBIT       =      0    0 simple, 1 ext, 2 COOP (PROOUT), +10 PAW based schemes


 Dipole corrections
   LMONO  =      F    monopole corrections only (constant potential shift)
   LDIPOL =      F    correct potential (dipole corrections)
   IDIPOL =      0    1-x, 2-y, 3-z, 4-all directions 
   EPSILON=  1.0000000 bulk dielectric constant

 Exchange correlation treatment:
   GGA     =    --    GGA type
   LEXCH   =     8    internal setting for exchange type
   VOSKOWN=      0    Vosko Wilk Nusair interpolation
   LHFCALC =     F    Hartree Fock is set to
   LHFONE  =     F    Hartree Fock one center treatment
   AEXX    =    0.0000 exact exchange contribution

 Linear response parameters
   LEPSILON=     F    determine dielectric tensor
   LRPA    =     F    only Hartree local field effects (RPA)
   LNABLA  =     F    use nabla operator in PAW spheres
   LVEL    =     F    velocity operator in full k-point grid
   LINTERFAST=   F  fast interpolation
   KINTER  =     0    interpolate to denser k-point grid
   CSHIFT  =0.1000    complex shift for real part using Kramers Kronig
   OMEGAMAX=  -1.0    maximum frequency
   DEG_THRESHOLD= 0.2000000E-02 threshold for treating states as degnerate
   RTIME   =   -0.100 relaxation time in fs
  (WPLASMAI=    0.000 imaginary part of plasma frequency in eV, 0.658/RTIME)
   DFIELD  = 0.0000000 0.0000000 0.0000000 field for delta impulse in time
 
 Orbital magnetization related:
   ORBITALMAG=     F  switch on orbital magnetization
   LCHIMAG   =     F  perturbation theory with respect to B field
   DQ        =  0.001000  dq finite difference perturbation B field
   LLRAUG    =     F  two centre corrections for induced B field



--------------------------------------------------------------------------------------------------------


 quasi-Newton-method for relaxation of ions
   using selective dynamics as specified on POSCAR
 charge density and potential will be updated during run
 non-spin polarized calculation
 RMM-DIIS sequential band-by-band and
  variant of blocked Davidson during initial phase
 perform sub-space diagonalisation
    before iterative eigenvector-optimisation
 modified Broyden-mixing scheme, WC =      100.0
 initial mixing is a Kerker type mixing with AMIX =  0.4000 and BMIX =      1.0000
 Hartree-type preconditioning will be used
 using additional bands           40
 real space projection scheme for non local part
 use partial core corrections
 calculate Harris-corrections to forces 
   (improved forces if not selfconsistent)
 use gradient corrections 
 use of overlap-Matrix (Vanderbilt PP)
 Methfessel and Paxton  Order N= 1 SIGMA  =   0.20


--------------------------------------------------------------------------------------------------------


  energy-cutoff  :      450.00
  volume of cell :     1345.22
      direct lattice vectors                 reciprocal lattice vectors
     7.296955120 -4.212899000  0.000000000     0.137043463  0.000000000  0.000000000
     0.000000000  8.425798000  0.000000000     0.068521732  0.118683121  0.000000000
     0.000000000  0.000000000 21.879635000     0.000000000  0.000000000  0.045704602

  length of vectors
     8.425798004  8.425798000 21.879635000     0.137043463  0.137043463  0.045704602


 
 k-points in units of 2pi/SCALE and weight: mesh auto                               
   0.00000000  0.00000000  0.00000000       0.250
   0.06852173  0.00000000  0.00000000       0.250
   0.03426087  0.05934156  0.00000000       0.250
   0.10278260  0.05934156  0.00000000       0.250
 
 k-points in reciprocal lattice and weights: mesh auto                               
   0.00000000  0.00000000  0.00000000       0.250
   0.50000000  0.00000000  0.00000000       0.250
  -0.00000000  0.50000000  0.00000000       0.250
   0.50000000  0.50000000  0.00000000       0.250
 
 position of ions in fractional coordinates (direct lattice) 
   0.69997748  0.43082684  0.47694369
   0.90687578  0.38272283  0.46453120
   0.67184093  0.45768272  0.52683222
   0.98675500  0.32859100  0.07437600
   0.32008800  0.32859100  0.07437600
   0.65342200  0.32859100  0.07437600
   0.98675500  0.66192500  0.07437600
   0.32008800  0.66192500  0.07437600
   0.65342200  0.66192500  0.07437600
   0.32008800  0.99525800  0.07437600
   0.65342200  0.99525800  0.07437600
   0.98675500  0.99525800  0.07437600
   0.20897700  0.10636900  0.17918600
   0.54231100  0.10636900  0.17918600
   0.87564400  0.10636900  0.17918600
   0.20897700  0.43970300  0.17918600
   0.54231100  0.43970300  0.17918600
   0.87564400  0.43970300  0.17918600
   0.20897700  0.77303600  0.17918600
   0.54231100  0.77303600  0.17918600
   0.87564400  0.77303600  0.17918600
   0.09631329  0.54717718  0.27883129
   0.43566750  0.88737847  0.27863463
   0.76176742  0.22218965  0.28159299
   0.09662759  0.21946241  0.28280900
   0.43751712  0.22066141  0.28321436
   0.10280122  0.88112659  0.27837798
   0.76105753  0.87924924  0.28235768
   0.43396026  0.54814320  0.28003257
   0.76469933  0.54859309  0.27914212
   0.32569372  0.65735745  0.39125668
   0.65087139  0.98782291  0.38164014
   0.32458494  0.32615734  0.38597533
   0.98766329  0.99061201  0.38873974
   0.32035689  0.99450189  0.38485012
   0.64125198  0.32086495  0.39444505
   0.99580444  0.66827511  0.38185218
   0.99499977  0.32465538  0.39208770
   0.65699749  0.66696221  0.38669338
 
 position of ions in cartesian coordinates  (Angst):
   5.10770425  0.68112551 10.43535387
   6.61743188 -0.59583081 10.16377318
   4.90239314  1.02594417 11.52689674
   7.20030695 -1.38845776  1.62731973
   2.33566777  1.42014298  1.62731973
   4.76799101  0.01584050  1.62731973
   7.20030695  1.42014719  1.62731973
   2.33566777  4.22874793  1.62731973
   4.76799101  2.82444545  1.62731973
   2.33566777  7.03734445  1.62731973
   4.76799101  5.63304198  1.62731973
   7.20030695  4.22874371  1.62731973
   1.52489579  0.01584471  3.92052428
   3.95721903 -1.38845776  3.92052428
   6.38953497 -2.79275602  3.92052428
   1.52489579  2.82444966  3.92052428
   3.95721903  1.42014719  3.92052428
   6.38953497  0.01584893  3.92052428
   1.52489579  5.63304619  3.92052428
   3.95721903  4.22874371  3.92052428
   6.38953497  2.82444545  3.92052428
   0.70279375  4.20464624  6.10072688
   3.17904616  5.64144858  6.09642390
   5.55858269 -1.33712407  6.16115181
   0.70508717  1.44206364  6.18775770
   3.19254281  0.01603299  6.19662692
   0.75013586  6.99110353  6.09080863
   5.55340264  4.20211796  6.17788288
   3.16658852  2.79031316  6.12701040
   5.57997667  1.40073356  6.10752770
   2.37657247  4.16664635  8.56055335
   4.74937931  5.58114092  8.35014700
   2.36848173  1.38069230  8.44499932
   7.20693472  4.18577095  8.50548354
   2.33762983  7.02984084  8.42038009
   4.67918695  0.00201338  8.63031380
   7.26634033  1.43552750  8.35478638
   7.26046866 -1.45635290  8.57873566
   4.79408117  2.85182479  8.46071012
 


--------------------------------------------------------------------------------------------------------


 k-point  1 :   0.0000 0.0000 0.0000  plane waves:   29241
 k-point  2 :   0.5000 0.0000 0.0000  plane waves:   29108
 k-point  3 :  -0.0000 0.5000 0.0000  plane waves:   29108
 k-point  4 :   0.5000 0.5000 0.0000  plane waves:   29108

 maximum and minimum number of plane-waves per node :     14624    14548

 maximum number of plane-waves:     29241
 maximum index in each direction: 
   IXMAX=   14   IYMAX=   14   IZMAX=   37
   IXMIN=  -15   IYMIN=  -15   IZMIN=  -37


 real space projection operators:
  total allocation   :      13562.81 KBytes
  max/ min on nodes  :       6787.94       6774.88


 parallel 3D FFT for wavefunctions:
    minimum data exchange during FFTs selected (reduces bandwidth)
 parallel 3D FFT for charge:
    minimum data exchange during FFTs selected (reduces bandwidth)


 total amount of memory used by VASP MPI-rank0   131959. kBytes
=======================================================================

   base      :      30000. kBytes
   nonlr-proj:      10151. kBytes
   fftplans  :      13556. kBytes
   grid      :      23353. kBytes
   one-center:        311. kBytes
   wavefun   :      54588. kBytes
 
     INWAV:  cpu time    0.0000: real time    0.0000
 Broyden mixing: mesh for mixing (old mesh)
   NGX = 29   NGY = 29   NGZ = 75
  (NGX  = 96   NGY  = 96   NGZ  =240)
  gives a total of  63075 points

 initial charge density was supplied:
 charge density of overlapping atoms calculated
 number of electron     376.0000000 magnetization 
 keeping initial charge density in first step


--------------------------------------------------------------------------------------------------------


 Maximum index for non-local projection operator         1322
 Maximum index for augmentation-charges         1558 (set IRDMAX)


--------------------------------------------------------------------------------------------------------


 First call to EWALD:  gamma=   0.161
 Maximum number of real-space cells 4x 4x 2
 Maximum number of reciprocal cells 2x 2x 5

    FEWALD:  cpu time    0.0157: real time    0.0158


--------------------------------------- Iteration      1(   1)  ---------------------------------------


    POTLOK:  cpu time    0.2022: real time    0.3407
    SETDIJ:  cpu time    0.0165: real time    0.0233
     EDDAV:  cpu time   15.0154: real time   15.1725
       DOS:  cpu time    0.0011: real time    0.0011
    --------------------------------------------
      LOOP:  cpu time   15.2352: real time   15.5375

 eigenvalue-minimisations  :  1824
 total energy-change (2. order) : 0.2423919E+04  (-0.1595300E+05)
 number of electron     376.0000000 magnetization 
 augmentation part      376.0000000 magnetization 

 Free energy of the ion-electron system (eV)
  ---------------------------------------------------
  alpha Z        PSCENC =       975.10247152
  Ewald energy   TEWEN  =     92078.48709507
  -Hartree energ DENC   =   -121164.08099978
  -exchange      EXHF   =         0.00000000
  -V(xc)+E(xc)   XCENC  =       190.08226415
  PAW double counting   =     24789.08602224   -23775.73976456
  entropy T*S    EENTRO =        -0.00957660
  eigenvalues    EBANDS =      2071.09721762
  atomic energy  EATOM  =     27259.89416086
  Solvation  Ediel_sol  =         0.00000000
  ---------------------------------------------------
  free energy    TOTEN  =      2423.91889052 eV

  energy without entropy =     2423.92846712  energy(sigma->0) =     2423.92208272


--------------------------------------------------------------------------------------------------------




--------------------------------------- Iteration      1(   2)  ---------------------------------------


     EDDAV:  cpu time   14.9796: real time   15.3322
       DOS:  cpu time    0.0011: real time    0.0011
    --------------------------------------------
      LOOP:  cpu time   14.9807: real time   15.3333

 eigenvalue-minimisations  :  2120
 total energy-change (2. order) :-0.2486964E+04  (-0.2310554E+04)
 number of electron     376.0000000 magnetization 
 augmentation part      376.0000000 magnetization 

 Free energy of the ion-electron system (eV)
  ---------------------------------------------------
  alpha Z        PSCENC =       975.10247152
  Ewald energy   TEWEN  =     92078.48709507
  -Hartree energ DENC   =   -121164.08099978
  -exchange      EXHF   =         0.00000000
  -V(xc)+E(xc)   XCENC  =       190.08226415
  PAW double counting   =     24789.08602224   -23775.73976456
  entropy T*S    EENTRO =        -0.01918423
  eigenvalues    EBANDS =      -415.85707276
  atomic energy  EATOM  =     27259.89416086
  Solvation  Ediel_sol  =         0.00000000
  ---------------------------------------------------
  free energy    TOTEN  =       -63.04500748 eV

  energy without entropy =      -63.02582326  energy(sigma->0) =      -63.03861274


--------------------------------------------------------------------------------------------------------




--------------------------------------- Iteration      1(   3)  ---------------------------------------


     EDDAV:  cpu time   15.3207: real time   16.0975
       DOS:  cpu time    0.0010: real time    0.0010
    --------------------------------------------
      LOOP:  cpu time   15.3217: real time   16.0985

 eigenvalue-minimisations  :  2176
 total energy-change (2. order) :-0.1777008E+03  (-0.1614001E+03)
 number of electron     376.0000000 magnetization 
 augmentation part      376.0000000 magnetization 

 Free energy of the ion-electron system (eV)
  ---------------------------------------------------
  alpha Z        PSCENC =       975.10247152
  Ewald energy   TEWEN  =     92078.48709507
  -Hartree energ DENC   =   -121164.08099978
  -exchange      EXHF   =         0.00000000
  -V(xc)+E(xc)   XCENC  =       190.08226415
  PAW double counting   =     24789.08602224   -23775.73976456
  entropy T*S    EENTRO =        -0.00194384
  eigenvalues    EBANDS =      -593.57510386
  atomic energy  EATOM  =     27259.89416086
  Solvation  Ediel_sol  =         0.00000000
  ---------------------------------------------------
  free energy    TOTEN  =      -240.74579819 eV

  energy without entropy =     -240.74385436  energy(sigma->0) =     -240.74515025


--------------------------------------------------------------------------------------------------------




--------------------------------------- Iteration      1(   4)  ---------------------------------------


     EDDAV:  cpu time   16.3287: real time   17.8148
       DOS:  cpu time    0.0087: real time    0.0088
    --------------------------------------------
      LOOP:  cpu time   16.3374: real time   17.8235

 eigenvalue-minimisations  :  2312
 total energy-change (2. order) :-0.7501432E+01  (-0.7222731E+01)
 number of electron     376.0000000 magnetization 
 augmentation part      376.0000000 magnetization 

 Free energy of the ion-electron system (eV)
  ---------------------------------------------------
  alpha Z        PSCENC =       975.10247152
  Ewald energy   TEWEN  =     92078.48709507
  -Hartree energ DENC   =   -121164.08099978
  -exchange      EXHF   =         0.00000000
  -V(xc)+E(xc)   XCENC  =       190.08226415
  PAW double counting   =     24789.08602224   -23775.73976456
  entropy T*S    EENTRO =        -0.00604486
  eigenvalues    EBANDS =      -601.07243469
  atomic energy  EATOM  =     27259.89416086
  Solvation  Ediel_sol  =         0.00000000
  ---------------------------------------------------
  free energy    TOTEN  =      -248.24723005 eV

  energy without entropy =     -248.24118519  energy(sigma->0) =     -248.24521510


--------------------------------------------------------------------------------------------------------




--------------------------------------- Iteration      1(   5)  ---------------------------------------


     EDDAV:  cpu time   15.1964: real time   16.5212
       DOS:  cpu time    0.0049: real time    0.0050
    CHARGE:  cpu time    0.4925: real time    0.5156
    MIXING:  cpu time    0.0468: real time    0.0471
    --------------------------------------------
      LOOP:  cpu time   15.7406: real time   17.0889

 eigenvalue-minimisations  :  2448
 total energy-change (2. order) :-0.2357347E+00  (-0.2337803E+00)
 number of electron     376.0000085 magnetization 
 augmentation part      105.7691156 magnetization 

 Broyden mixing:
  rms(total) = 0.27444E+01    rms(broyden)= 0.27440E+01
  rms(prec ) = 0.30633E+01
  weight for this iteration     100.00

 Free energy of the ion-electron system (eV)
  ---------------------------------------------------
  alpha Z        PSCENC =       975.10247152
  Ewald energy   TEWEN  =     92078.48709507
  -Hartree energ DENC   =   -121164.08099978
  -exchange      EXHF   =         0.00000000
  -V(xc)+E(xc)   XCENC  =       190.08226415
  PAW double counting   =     24789.08602224   -23775.73976456
  entropy T*S    EENTRO =        -0.00623912
  eigenvalues    EBANDS =      -601.30797513
  atomic energy  EATOM  =     27259.89416086
  Solvation  Ediel_sol  =         0.00000000
  ---------------------------------------------------
  free energy    TOTEN  =      -248.48296475 eV

  energy without entropy =     -248.47672563  energy(sigma->0) =     -248.48088505


--------------------------------------------------------------------------------------------------------




--------------------------------------- Iteration      1(   6)  ---------------------------------------


    POTLOK:  cpu time    0.2630: real time    0.2647
    SETDIJ:  cpu time    0.0273: real time    0.0275
    EDDIAG:  cpu time    2.1003: real time    2.1136
  RMM-DIIS:  cpu time    4.2784: real time    4.8417
    ORTHCH:  cpu time    0.2220: real time    0.3086
       DOS:  cpu time    0.0010: real time    0.0010
    CHARGE:  cpu time    0.4339: real time    0.5015
    MIXING:  cpu time    0.0054: real time    0.0054
    --------------------------------------------
      LOOP:  cpu time    7.3313: real time    8.0641

 eigenvalue-minimisations  :  1832
 total energy-change (2. order) : 0.1668450E+01  (-0.5550491E+01)
 number of electron     376.0000086 magnetization 
 augmentation part      112.8406508 magnetization 

 Broyden mixing:
  rms(total) = 0.28832E+01    rms(broyden)= 0.28822E+01
  rms(prec ) = 0.38521E+01
  weight for this iteration     100.00

 eigenvalues of (default mixing * dielectric matrix)
  average eigenvalue GAMMA=   0.4984
  0.4984

 Free energy of the ion-electron system (eV)
  ---------------------------------------------------
  alpha Z        PSCENC =       975.10247152
  Ewald energy   TEWEN  =     92078.48709507
  -Hartree energ DENC   =   -120691.21606956
  -exchange      EXHF   =         0.00000000
  -V(xc)+E(xc)   XCENC  =       183.01210457
  PAW double counting   =     26758.39053981   -25799.08721570
  entropy T*S    EENTRO =        -0.22616103
  eigenvalues    EBANDS =     -1011.17143998
  atomic energy  EATOM  =     27259.89416086
  Solvation  Ediel_sol  =         0.00000000
  ---------------------------------------------------
  free energy    TOTEN  =      -246.81451443 eV

  energy without entropy =     -246.58835340  energy(sigma->0) =     -246.73912742


--------------------------------------------------------------------------------------------------------




--------------------------------------- Iteration      1(   7)  ---------------------------------------


    POTLOK:  cpu time    0.1743: real time    0.1758
    SETDIJ:  cpu time    0.0132: real time    0.0133
    EDDIAG:  cpu time    1.5657: real time    1.8242
  RMM-DIIS:  cpu time    4.8240: real time    4.8578
    ORTHCH:  cpu time    0.4177: real time    0.4203
       DOS:  cpu time    0.0010: real time    0.0010
    CHARGE:  cpu time    0.4699: real time    0.4728
    MIXING:  cpu time    0.0076: real time    0.0076
    --------------------------------------------
      LOOP:  cpu time    7.4736: real time    7.7730

 eigenvalue-minimisations  :  1829
 total energy-change (2. order) : 0.7774159E+01  (-0.3269069E+01)
 number of electron     376.0000087 magnetization 
 augmentation part      111.4057777 magnetization 

 Broyden mixing:
  rms(total) = 0.18248E+01    rms(broyden)= 0.18238E+01
  rms(prec ) = 0.26572E+01
  weight for this iteration     100.00

 eigenvalues of (default mixing * dielectric matrix)
  average eigenvalue GAMMA=   0.6523
  1.0388  0.2658

 Free energy of the ion-electron system (eV)
  ---------------------------------------------------
  alpha Z        PSCENC =       975.10247152
  Ewald energy   TEWEN  =     92078.48709507
  -Hartree energ DENC   =   -120890.19205846
  -exchange      EXHF   =         0.00000000
  -V(xc)+E(xc)   XCENC  =       180.62254994
  PAW double counting   =     27432.77289516   -26481.16219291
  entropy T*S    EENTRO =        -0.08761053
  eigenvalues    EBANDS =      -794.47766638
  atomic energy  EATOM  =     27259.89416086
  Solvation  Ediel_sol  =         0.00000000
  ---------------------------------------------------
  free energy    TOTEN  =      -239.04035572 eV

  energy without entropy =     -238.95274519  energy(sigma->0) =     -239.01115221


--------------------------------------------------------------------------------------------------------




--------------------------------------- Iteration      1(   8)  ---------------------------------------


    POTLOK:  cpu time    0.2138: real time    0.2151
    SETDIJ:  cpu time    0.0136: real time    0.0136
    EDDIAG:  cpu time    1.7266: real time    1.7377
  RMM-DIIS:  cpu time    5.0827: real time    5.1167
    ORTHCH:  cpu time    0.4230: real time    0.4255
       DOS:  cpu time    0.0013: real time    0.0013
    CHARGE:  cpu time    0.7384: real time    0.7428
    MIXING:  cpu time    0.0107: real time    0.0107
    --------------------------------------------
      LOOP:  cpu time    8.2100: real time    8.2636

 eigenvalue-minimisations  :  1832
 total energy-change (2. order) :-0.3707679E+01  (-0.7897656E+00)
 number of electron     376.0000100 magnetization 
 augmentation part      112.4298356 magnetization 

 Broyden mixing:
  rms(total) = 0.24176E+01    rms(broyden)= 0.24175E+01
  rms(prec ) = 0.43968E+01
  weight for this iteration     100.00

 eigenvalues of (default mixing * dielectric matrix)
  average eigenvalue GAMMA=   0.5497
  1.1987  0.2904  0.1599

 Free energy of the ion-electron system (eV)
  ---------------------------------------------------
  alpha Z        PSCENC =       975.10247152
  Ewald energy   TEWEN  =     92078.48709507
  -Hartree energ DENC   =   -120811.84595065
  -exchange      EXHF   =         0.00000000
  -V(xc)+E(xc)   XCENC  =       179.44268041
  PAW double counting   =     28333.75905682   -27396.19345748
  entropy T*S    EENTRO =         0.01231945
  eigenvalues    EBANDS =      -861.40641113
  atomic energy  EATOM  =     27259.89416086
  Solvation  Ediel_sol  =         0.00000000
  ---------------------------------------------------
  free energy    TOTEN  =      -242.74803512 eV

  energy without entropy =     -242.76035457  energy(sigma->0) =     -242.75214160


--------------------------------------------------------------------------------------------------------




--------------------------------------- Iteration      1(   9)  ---------------------------------------


    POTLOK:  cpu time    0.1531: real time    0.1541
    SETDIJ:  cpu time    0.0162: real time    0.0163
    EDDIAG:  cpu time    1.9173: real time    1.9301
  RMM-DIIS:  cpu time    5.7426: real time    5.8010
    ORTHCH:  cpu time    0.2817: real time    0.2835
       DOS:  cpu time    0.0010: real time    0.0010
    CHARGE:  cpu time    0.5127: real time    0.5159
    MIXING:  cpu time    0.0077: real time    0.0077
    --------------------------------------------
      LOOP:  cpu time    8.6322: real time    8.7096

 eigenvalue-minimisations  :  1831
 total energy-change (2. order) : 0.1112831E+02  (-0.3618041E+00)
 number of electron     376.0000087 magnetization 
 augmentation part      112.6441216 magnetization 

 Broyden mixing:
  rms(total) = 0.83255E+00    rms(broyden)= 0.83242E+00
  rms(prec ) = 0.12991E+01
  weight for this iteration     100.00

 eigenvalues of (default mixing * dielectric matrix)
  average eigenvalue GAMMA=   0.5336
  1.3178  0.3757  0.3231  0.1178

 Free energy of the ion-electron system (eV)
  ---------------------------------------------------
  alpha Z        PSCENC =       975.10247152
  Ewald energy   TEWEN  =     92078.48709507
  -Hartree energ DENC   =   -120783.37415069
  -exchange      EXHF   =         0.00000000
  -V(xc)+E(xc)   XCENC  =       179.07517897
  PAW double counting   =     28769.50114574   -27838.45833083
  entropy T*S    EENTRO =        -0.02870459
  eigenvalues    EBANDS =      -871.81859520
  atomic energy  EATOM  =     27259.89416086
  Solvation  Ediel_sol  =         0.00000000
  ---------------------------------------------------
  free energy    TOTEN  =      -231.61972914 eV

  energy without entropy =     -231.59102456  energy(sigma->0) =     -231.61016095


--------------------------------------------------------------------------------------------------------




--------------------------------------- Iteration      1(  10)  ---------------------------------------


    POTLOK:  cpu time    0.2935: real time    0.2955
    SETDIJ:  cpu time    0.0166: real time    0.0167
    EDDIAG:  cpu time    1.9519: real time    1.9643
  RMM-DIIS:  cpu time    4.2919: real time    4.8353
    ORTHCH:  cpu time    0.3916: real time    0.3939
       DOS:  cpu time    0.0165: real time    0.0166
    CHARGE:  cpu time    0.4491: real time    0.4523
    MIXING:  cpu time    0.0038: real time    0.0038
    --------------------------------------------
      LOOP:  cpu time    7.4151: real time    7.9784

 eigenvalue-minimisations  :  1831
 total energy-change (2. order) : 0.9579060E+00  (-0.1183093E+00)
 number of electron     376.0000086 magnetization 
 augmentation part      112.7525575 magnetization 

 Broyden mixing:
  rms(total) = 0.46016E+00    rms(broyden)= 0.45982E+00
  rms(prec ) = 0.59869E+00
  weight for this iteration     100.00

 eigenvalues of (default mixing * dielectric matrix)
  average eigenvalue GAMMA=   0.5255
  1.3880  0.5150  0.3738  0.2351  0.1157

 Free energy of the ion-electron system (eV)
  ---------------------------------------------------
  alpha Z        PSCENC =       975.10247152
  Ewald energy   TEWEN  =     92078.48709507
  -Hartree energ DENC   =   -120796.94251571
  -exchange      EXHF   =         0.00000000
  -V(xc)+E(xc)   XCENC  =       178.97776051
  PAW double counting   =     29120.76539011   -28194.65539373
  entropy T*S    EENTRO =        -0.05265871
  eigenvalues    EBANDS =      -852.23813309
  atomic energy  EATOM  =     27259.89416086
  Solvation  Ediel_sol  =         0.00000000
  ---------------------------------------------------
  free energy    TOTEN  =      -230.66182315 eV

  energy without entropy =     -230.60916445  energy(sigma->0) =     -230.64427025


--------------------------------------------------------------------------------------------------------




--------------------------------------- Iteration      1(  11)  ---------------------------------------


    POTLOK:  cpu time    0.1719: real time    0.1730
    SETDIJ:  cpu time    0.0339: real time    0.0342
    EDDIAG:  cpu time    2.3270: real time    2.3416
  RMM-DIIS:  cpu time    5.5746: real time    5.6132
    ORTHCH:  cpu time    0.3781: real time    0.3805
       DOS:  cpu time    0.0224: real time    0.0225
    CHARGE:  cpu time    0.6294: real time    0.6335
    MIXING:  cpu time    0.0142: real time    0.0144
    --------------------------------------------
      LOOP:  cpu time    9.1515: real time    9.2129

 eigenvalue-minimisations  :  1831
 total energy-change (2. order) : 0.3914665E+00  (-0.3514466E-01)
 number of electron     376.0000087 magnetization 
 augmentation part      112.8316050 magnetization 

 Broyden mixing:
  rms(total) = 0.25797E+00    rms(broyden)= 0.25796E+00
  rms(prec ) = 0.31847E+00
  weight for this iteration     100.00

 eigenvalues of (default mixing * dielectric matrix)
  average eigenvalue GAMMA=   0.6088
  1.5750  0.8414  0.5003  0.3670  0.2539  0.1155

 Free energy of the ion-electron system (eV)
  ---------------------------------------------------
  alpha Z        PSCENC =       975.10247152
  Ewald energy   TEWEN  =     92078.48709507
  -Hartree energ DENC   =   -120781.87390534
  -exchange      EXHF   =         0.00000000
  -V(xc)+E(xc)   XCENC  =       178.89450701
  PAW double counting   =     29374.98740197   -28452.13997739
  entropy T*S    EENTRO =        -0.03806308
  eigenvalues    EBANDS =      -863.58404726
  atomic energy  EATOM  =     27259.89416086
  Solvation  Ediel_sol  =         0.00000000
  ---------------------------------------------------
  free energy    TOTEN  =      -230.27035663 eV

  energy without entropy =     -230.23229355  energy(sigma->0) =     -230.25766894


--------------------------------------------------------------------------------------------------------




--------------------------------------- Iteration      1(  12)  ---------------------------------------


    POTLOK:  cpu time    0.2346: real time    0.2360
    SETDIJ:  cpu time    0.0090: real time    0.0091
    EDDIAG:  cpu time    2.1915: real time    2.2526
  RMM-DIIS:  cpu time    5.0913: real time    6.2268
    ORTHCH:  cpu time    0.2881: real time    0.3144
       DOS:  cpu time    0.0010: real time    0.0010
    CHARGE:  cpu time    0.5050: real time    0.5450
    MIXING:  cpu time    0.0083: real time    0.0083
    --------------------------------------------
      LOOP:  cpu time    8.3288: real time    9.5932

 eigenvalue-minimisations  :  1831
 total energy-change (2. order) : 0.4873505E-01  (-0.1828185E-01)
 number of electron     376.0000085 magnetization 
 augmentation part      112.9500469 magnetization 

 Broyden mixing:
  rms(total) = 0.27718E+00    rms(broyden)= 0.27705E+00
  rms(prec ) = 0.33458E+00
  weight for this iteration     100.00

 eigenvalues of (default mixing * dielectric matrix)
  average eigenvalue GAMMA=   0.6898
  2.0050  1.1325  0.5947  0.4707  0.1153  0.2552  0.2552

 Free energy of the ion-electron system (eV)
  ---------------------------------------------------
  alpha Z        PSCENC =       975.10247152
  Ewald energy   TEWEN  =     92078.48709507
  -Hartree energ DENC   =   -120774.14937470
  -exchange      EXHF   =         0.00000000
  -V(xc)+E(xc)   XCENC  =       178.83203099
  PAW double counting   =     29713.43306921   -28794.83233980
  entropy T*S    EENTRO =        -0.05334943
  eigenvalues    EBANDS =      -866.93538532
  atomic energy  EATOM  =     27259.89416086
  Solvation  Ediel_sol  =         0.00000000
  ---------------------------------------------------
  free energy    TOTEN  =      -230.22162158 eV

  energy without entropy =     -230.16827216  energy(sigma->0) =     -230.20383844


--------------------------------------------------------------------------------------------------------




--------------------------------------- Iteration      1(  13)  ---------------------------------------


    POTLOK:  cpu time    0.2480: real time    0.2494
    SETDIJ:  cpu time    0.0089: real time    0.0090
    EDDIAG:  cpu time    1.5931: real time    1.6023
  RMM-DIIS:  cpu time    5.8110: real time    5.9982
    ORTHCH:  cpu time    0.2965: real time    0.2986
       DOS:  cpu time    0.0010: real time    0.0010
    CHARGE:  cpu time    0.6516: real time    0.6562
    MIXING:  cpu time    0.0182: real time    0.0183
    --------------------------------------------
      LOOP:  cpu time    8.6283: real time    8.8328

 eigenvalue-minimisations  :  1831
 total energy-change (2. order) : 0.3271093E-01  (-0.1650532E-01)
 number of electron     376.0000085 magnetization 
 augmentation part      112.9410413 magnetization 

 Broyden mixing:
  rms(total) = 0.19083E+00    rms(broyden)= 0.19081E+00
  rms(prec ) = 0.23780E+00
  weight for this iteration     100.00

 eigenvalues of (default mixing * dielectric matrix)
  average eigenvalue GAMMA=   0.7106
  2.3012  1.2066  0.7527  0.4855  0.1153  0.3292  0.2640  0.2305

 Free energy of the ion-electron system (eV)
  ---------------------------------------------------
  alpha Z        PSCENC =       975.10247152
  Ewald energy   TEWEN  =     92078.48709507
  -Hartree energ DENC   =   -120772.87277179
  -exchange      EXHF   =         0.00000000
  -V(xc)+E(xc)   XCENC  =       178.73085122
  PAW double counting   =     29990.39188293   -29075.07972606
  entropy T*S    EENTRO =        -0.03371178
  eigenvalues    EBANDS =      -864.80916263
  atomic energy  EATOM  =     27259.89416086
  Solvation  Ediel_sol  =         0.00000000
  ---------------------------------------------------
  free energy    TOTEN  =      -230.18891066 eV

  energy without entropy =     -230.15519888  energy(sigma->0) =     -230.17767340


--------------------------------------------------------------------------------------------------------




--------------------------------------- Iteration      1(  14)  ---------------------------------------


    POTLOK:  cpu time    0.2398: real time    0.2414
    SETDIJ:  cpu time    0.0439: real time    0.0443
    EDDIAG:  cpu time    1.7319: real time    1.8558
  RMM-DIIS:  cpu time    5.6421: real time    5.6852
    ORTHCH:  cpu time    0.3994: real time    0.4021
       DOS:  cpu time    0.0010: real time    0.0010
    CHARGE:  cpu time    0.7247: real time    0.7294
    MIXING:  cpu time    0.0607: real time    0.0611
    --------------------------------------------
      LOOP:  cpu time    8.8436: real time    9.0203

 eigenvalue-minimisations  :  1831
 total energy-change (2. order) : 0.4708670E-01  (-0.8286035E-02)
 number of electron     376.0000086 magnetization 
 augmentation part      112.9207008 magnetization 

 Broyden mixing:
  rms(total) = 0.88471E-01    rms(broyden)= 0.88428E-01
  rms(prec ) = 0.11407E+00
  weight for this iteration     100.00

 eigenvalues of (default mixing * dielectric matrix)
  average eigenvalue GAMMA=   0.7085
  2.3680  1.2198  0.8892  0.5427  0.4668  0.1153  0.2954  0.2504  0.2293

 Free energy of the ion-electron system (eV)
  ---------------------------------------------------
  alpha Z        PSCENC =       975.10247152
  Ewald energy   TEWEN  =     92078.48709507
  -Hartree energ DENC   =   -120775.62195362
  -exchange      EXHF   =         0.00000000
  -V(xc)+E(xc)   XCENC  =       178.67356691
  PAW double counting   =     30140.25613563   -29226.65508233
  entropy T*S    EENTRO =        -0.02996689
  eigenvalues    EBANDS =      -860.24825112
  atomic energy  EATOM  =     27259.89416086
  Solvation  Ediel_sol  =         0.00000000
  ---------------------------------------------------
  free energy    TOTEN  =      -230.14182396 eV

  energy without entropy =     -230.11185707  energy(sigma->0) =     -230.13183499


--------------------------------------------------------------------------------------------------------




--------------------------------------- Iteration      1(  15)  ---------------------------------------


    POTLOK:  cpu time    0.2253: real time    0.2271
    SETDIJ:  cpu time    0.0265: real time    0.0267
    EDDIAG:  cpu time    1.4456: real time    1.4563
  RMM-DIIS:  cpu time    4.5702: real time    4.9439
    ORTHCH:  cpu time    0.3395: real time    0.3412
       DOS:  cpu time    0.0010: real time    0.0010
    CHARGE:  cpu time    0.4272: real time    0.4296
    MIXING:  cpu time    0.0048: real time    0.0048
    --------------------------------------------
      LOOP:  cpu time    7.0401: real time    7.4305

 eigenvalue-minimisations  :  1831
 total energy-change (2. order) : 0.8445717E-02  (-0.2691689E-02)
 number of electron     376.0000086 magnetization 
 augmentation part      112.9130509 magnetization 

 Broyden mixing:
  rms(total) = 0.54093E-01    rms(broyden)= 0.54088E-01
  rms(prec ) = 0.70767E-01
  weight for this iteration     100.00

 eigenvalues of (default mixing * dielectric matrix)
  average eigenvalue GAMMA=   0.7104
  2.4654  1.2584  0.9732  0.7165  0.4712  0.1153  0.3529  0.2753  0.2551  0.2209

 Free energy of the ion-electron system (eV)
  ---------------------------------------------------
  alpha Z        PSCENC =       975.10247152
  Ewald energy   TEWEN  =     92078.48709507
  -Hartree energ DENC   =   -120777.87381688
  -exchange      EXHF   =         0.00000000
  -V(xc)+E(xc)   XCENC  =       178.67194050
  PAW double counting   =     30177.17995710   -29263.95335125
  entropy T*S    EENTRO =        -0.03072946
  eigenvalues    EBANDS =      -857.61110571
  atomic energy  EATOM  =     27259.89416086
  Solvation  Ediel_sol  =         0.00000000
  ---------------------------------------------------
  free energy    TOTEN  =      -230.13337824 eV

  energy without entropy =     -230.10264878  energy(sigma->0) =     -230.12313509


--------------------------------------------------------------------------------------------------------




--------------------------------------- Iteration      1(  16)  ---------------------------------------


    POTLOK:  cpu time    0.1861: real time    0.1871
    SETDIJ:  cpu time    0.0201: real time    0.0201
    EDDIAG:  cpu time    1.6232: real time    1.6324
  RMM-DIIS:  cpu time    4.2516: real time    4.7816
    ORTHCH:  cpu time    0.2800: real time    0.2815
       DOS:  cpu time    0.0022: real time    0.0022
    CHARGE:  cpu time    0.4791: real time    0.4848
    MIXING:  cpu time    0.0133: real time    0.0134
    --------------------------------------------
      LOOP:  cpu time    6.8556: real time    7.4032

 eigenvalue-minimisations  :  1829
 total energy-change (2. order) : 0.4075788E-02  (-0.5845200E-03)
 number of electron     376.0000086 magnetization 
 augmentation part      112.9138505 magnetization 

 Broyden mixing:
  rms(total) = 0.24903E-01    rms(broyden)= 0.24901E-01
  rms(prec ) = 0.30702E-01
  weight for this iteration     100.00

 eigenvalues of (default mixing * dielectric matrix)
  average eigenvalue GAMMA=   0.6873
  2.4824  1.2613  0.9060  0.7880  0.4839  0.4532  0.1153  0.3321  0.2589  0.2589
  0.2202

 Free energy of the ion-electron system (eV)
  ---------------------------------------------------
  alpha Z        PSCENC =       975.10247152
  Ewald energy   TEWEN  =     92078.48709507
  -Hartree energ DENC   =   -120779.01610151
  -exchange      EXHF   =         0.00000000
  -V(xc)+E(xc)   XCENC  =       178.67677983
  PAW double counting   =     30203.22908903   -29290.25262153
  entropy T*S    EENTRO =        -0.03417141
  eigenvalues    EBANDS =      -856.21600434
  atomic energy  EATOM  =     27259.89416086
  Solvation  Ediel_sol  =         0.00000000
  ---------------------------------------------------
  free energy    TOTEN  =      -230.12930245 eV

  energy without entropy =     -230.09513105  energy(sigma->0) =     -230.11791198


--------------------------------------------------------------------------------------------------------




--------------------------------------- Iteration      1(  17)  ---------------------------------------


    POTLOK:  cpu time    0.1907: real time    0.1918
    SETDIJ:  cpu time    0.0169: real time    0.0169
    EDDIAG:  cpu time    1.6820: real time    1.6912
  RMM-DIIS:  cpu time    4.5406: real time    4.5666
    ORTHCH:  cpu time    0.3584: real time    0.3605
       DOS:  cpu time    0.0010: real time    0.0010
    CHARGE:  cpu time    0.5654: real time    0.5685
    MIXING:  cpu time    0.0122: real time    0.0122
    --------------------------------------------
      LOOP:  cpu time    7.3670: real time    7.4087

 eigenvalue-minimisations  :  1820
 total energy-change (2. order) : 0.6432840E-03  (-0.1433037E-03)
 number of electron     376.0000086 magnetization 
 augmentation part      112.9145548 magnetization 

 Broyden mixing:
  rms(total) = 0.13673E-01    rms(broyden)= 0.13668E-01
  rms(prec ) = 0.16516E-01
  weight for this iteration     100.00

 eigenvalues of (default mixing * dielectric matrix)
  average eigenvalue GAMMA=   0.7208
  2.4878  1.2208  1.1178  1.1178  0.7399  0.4816  0.1153  0.3579  0.2885  0.2516
  0.2516  0.2188

 Free energy of the ion-electron system (eV)
  ---------------------------------------------------
  alpha Z        PSCENC =       975.10247152
  Ewald energy   TEWEN  =     92078.48709507
  -Hartree energ DENC   =   -120779.45285801
  -exchange      EXHF   =         0.00000000
  -V(xc)+E(xc)   XCENC  =       178.68262158
  PAW double counting   =     30205.15159011   -29292.17162971
  entropy T*S    EENTRO =        -0.03455305
  eigenvalues    EBANDS =      -855.78755755
  atomic energy  EATOM  =     27259.89416086
  Solvation  Ediel_sol  =         0.00000000
  ---------------------------------------------------
  free energy    TOTEN  =      -230.12865917 eV

  energy without entropy =     -230.09410612  energy(sigma->0) =     -230.11714149


--------------------------------------------------------------------------------------------------------




--------------------------------------- Iteration      1(  18)  ---------------------------------------


    POTLOK:  cpu time    0.2226: real time    0.2238
    SETDIJ:  cpu time    0.0167: real time    0.0168
    EDDIAG:  cpu time    1.2909: real time    1.2982
  RMM-DIIS:  cpu time    5.7391: real time    5.7780
    ORTHCH:  cpu time    0.3098: real time    0.3114
       DOS:  cpu time    0.0011: real time    0.0011
    CHARGE:  cpu time    0.3669: real time    0.3689
    MIXING:  cpu time    0.0059: real time    0.0060
    --------------------------------------------
      LOOP:  cpu time    7.9530: real time    8.0043

 eigenvalue-minimisations  :  1725
 total energy-change (2. order) :-0.2658730E-03  (-0.6862087E-04)
 number of electron     376.0000086 magnetization 
 augmentation part      112.9150590 magnetization 

 Broyden mixing:
  rms(total) = 0.13611E-01    rms(broyden)= 0.13608E-01
  rms(prec ) = 0.16622E-01
  weight for this iteration     100.00

 eigenvalues of (default mixing * dielectric matrix)
  average eigenvalue GAMMA=   0.7392
  2.5126  1.7381  1.2739  1.0179  0.7723  0.4895  0.1153  0.3699  0.3428  0.2708
  0.2570  0.2179  0.2320

 Free energy of the ion-electron system (eV)
  ---------------------------------------------------
  alpha Z        PSCENC =       975.10247152
  Ewald energy   TEWEN  =     92078.48709507
  -Hartree energ DENC   =   -120780.50387528
  -exchange      EXHF   =         0.00000000
  -V(xc)+E(xc)   XCENC  =       178.69090408
  PAW double counting   =     30204.03035524   -29290.98878719
  entropy T*S    EENTRO =        -0.03546911
  eigenvalues    EBANDS =      -854.80578025
  atomic energy  EATOM  =     27259.89416086
  Solvation  Ediel_sol  =         0.00000000
  ---------------------------------------------------
  free energy    TOTEN  =      -230.12892504 eV

  energy without entropy =     -230.09345593  energy(sigma->0) =     -230.11710200


--------------------------------------------------------------------------------------------------------




--------------------------------------- Iteration      1(  19)  ---------------------------------------


    POTLOK:  cpu time    0.1661: real time    0.1670
    SETDIJ:  cpu time    0.0156: real time    0.0157
    EDDIAG:  cpu time    1.7612: real time    1.7706
  RMM-DIIS:  cpu time    4.0082: real time    4.2367
    ORTHCH:  cpu time    0.2456: real time    0.3278
       DOS:  cpu time    0.0012: real time    0.5596
    --------------------------------------------
      LOOP:  cpu time    6.1978: real time    7.0773

 eigenvalue-minimisations  :  1287
 total energy-change (2. order) : 0.2823594E-04  (-0.3721391E-04)
 number of electron     376.0000086 magnetization 
 augmentation part      112.9150590 magnetization 

 Free energy of the ion-electron system (eV)
  ---------------------------------------------------
  alpha Z        PSCENC =       975.10247152
  Ewald energy   TEWEN  =     92078.48709507
  -Hartree energ DENC   =   -120781.53819063
  -exchange      EXHF   =         0.00000000
  -V(xc)+E(xc)   XCENC  =       178.69658233
  PAW double counting   =     30203.47446683   -29290.38170138
  entropy T*S    EENTRO =        -0.03499143
  eigenvalues    EBANDS =      -853.82878998
  atomic energy  EATOM  =     27259.89416086
  Solvation  Ediel_sol  =         0.00000000
  ---------------------------------------------------
  free energy    TOTEN  =      -230.12889681 eV

  energy without entropy =     -230.09390538  energy(sigma->0) =     -230.11723300


--------------------------------------------------------------------------------------------------------




 average (electrostatic) potential at core
  the test charge radii are     0.6991  0.7215  1.2059
  (the norm of the test charge is              1.0000)
       1 -56.3054       2 -74.7106       3 -76.3447       4 -72.3278       5 -72.3296
       6 -72.3296       7 -72.3112       8 -72.3408       9 -72.3234      10 -72.3059
      11 -72.3222      12 -72.2987      13 -72.8836      14 -73.0147      15 -72.9336
      16 -73.0272      17 -73.0418      18 -73.0319      19 -73.0780      20 -73.0321
      21 -73.0041      22 -72.9756      23 -73.0075      24 -72.9246      25 -72.9319
      26 -73.0246      27 -73.0610      28 -72.9963      29 -72.9534      30 -72.9656
      31 -72.1289      32 -72.4518      33 -72.4793      34 -72.2971      35 -72.3876
      36 -73.2279      37 -72.4639      38 -73.1560      39 -72.3796
 
 
 
 E-fermi :   1.1138     XC(G=0):  -6.6213     alpha+bet : -6.8913


 k-point     1 :       0.0000    0.0000    0.0000
  band No.  band energies     occupation 
      1     -22.1884      2.00000
      2     -16.9377      2.00000
      3      -8.5841      2.00000
      4      -8.1888      2.00000
      5      -6.7707      2.00000
      6      -6.0044      2.00000
      7      -5.8576      2.00000
      8      -5.7998      2.00000
      9      -5.7773      2.00000
     10      -5.7657      2.00000
     11      -5.7387      2.00000
     12      -5.6795      2.00000
     13      -5.6428      2.00000
     14      -5.6128      2.00000
     15      -5.4851      2.00000
     16      -5.2338      2.00000
     17      -5.1322      2.00000
     18      -5.1205      2.00000
     19      -5.1052      2.00000
     20      -5.0905      2.00000
     21      -5.0535      2.00000
     22      -5.0178      2.00000
     23      -4.7027      2.00000
     24      -4.6317      2.00000
     25      -4.6253      2.00000
     26      -4.6082      2.00000
     27      -4.5661      2.00000
     28      -4.5435      2.00000
     29      -4.4165      2.00000
     30      -4.4011      2.00000
     31      -4.3619      2.00000
     32      -4.3480      2.00000
     33      -4.3340      2.00000
     34      -4.2466      2.00000
     35      -4.2240      2.00000
     36      -4.2019      2.00000
     37      -4.1931      2.00000
     38      -4.1594      2.00000
     39      -4.1570      2.00000
     40      -4.1523      2.00000
     41      -4.1058      2.00000
     42      -4.0513      2.00000
     43      -4.0296      2.00000
     44      -4.0163      2.00000
     45      -3.9919      2.00000
     46      -3.9423      2.00000
     47      -3.6127      2.00000
     48      -3.4890      2.00000
     49      -3.4486      2.00000
     50      -3.4353      2.00000
     51      -3.4226      2.00000
     52      -3.4004      2.00000
     53      -3.3643      2.00000
     54      -3.3564      2.00000
     55      -3.3180      2.00000
     56      -3.3005      2.00000
     57      -3.2979      2.00000
     58      -3.2438      2.00000
     59      -3.1880      2.00000
     60      -3.0195      2.00000
     61      -3.0115      2.00000
     62      -2.9577      2.00000
     63      -2.8836      2.00000
     64      -2.6445      2.00000
     65      -2.5796      2.00000
     66      -2.5593      2.00000
     67      -2.5536      2.00000
     68      -2.5325      2.00000
     69      -2.4843      2.00000
     70      -2.4711      2.00000
     71      -2.4628      2.00000
     72      -2.4488      2.00000
     73      -2.4331      2.00000
     74      -2.4121      2.00000
     75      -2.4087      2.00000
     76      -2.4011      2.00000
     77      -2.3842      2.00000
     78      -2.3689      2.00000
     79      -2.3596      2.00000
     80      -2.3527      2.00000
     81      -2.3360      2.00000
     82      -2.3010      2.00000
     83      -2.2890      2.00000
     84      -2.2507      2.00000
     85      -2.2371      2.00000
     86      -2.1584      2.00000
     87      -2.1447      2.00000
     88      -2.1148      2.00000
     89      -2.1087      2.00000
     90      -2.0982      2.00000
     91      -2.0878      2.00000
     92      -2.0675      2.00000
     93      -2.0338      2.00000
     94      -2.0237      2.00000
     95      -1.9901      2.00000
     96      -1.9644      2.00000
     97      -1.9144      2.00000
     98      -1.8778      2.00000
     99      -1.7981      2.00000
    100      -1.7356      2.00000
    101      -1.6465      2.00000
    102      -1.6261      2.00000
    103      -1.6222      2.00000
    104      -1.5784      2.00000
    105      -1.5655      2.00000
    106      -1.5457      2.00000
    107      -1.5423      2.00000
    108      -1.5082      2.00000
    109      -1.4963      2.00000
    110      -1.4901      2.00000
    111      -1.4890      2.00000
    112      -1.4627      2.00000
    113      -1.4036      2.00000
    114      -1.3421      2.00000
    115      -1.2444      2.00000
    116      -1.0999      2.00000
    117      -1.0811      2.00000
    118      -1.0568      2.00000
    119      -0.9823      2.00000
    120      -0.9711      2.00000
    121      -0.9313      2.00000
    122      -0.8862      2.00000
    123      -0.8213      2.00000
    124      -0.8067      2.00000
    125      -0.7771      2.00000
    126      -0.7507      2.00000
    127      -0.7327      2.00000
    128      -0.7131      2.00000
    129      -0.6923      2.00000
    130      -0.6784      2.00000
    131      -0.6720      2.00000
    132      -0.6339      2.00000
    133      -0.6013      2.00000
    134      -0.5636      2.00000
    135      -0.5090      2.00000
    136      -0.4705      2.00000
    137      -0.4404      2.00000
    138      -0.4062      2.00000
    139      -0.3805      2.00000
    140      -0.3694      2.00000
    141      -0.2810      2.00000
    142      -0.2602      2.00000
    143      -0.2497      2.00000
    144      -0.1999      2.00000
    145      -0.1600      2.00000
    146      -0.1337      2.00000
    147      -0.0437      2.00000
    148      -0.0236      2.00000
    149       0.0225      2.00000
    150       0.0442      2.00000
    151       0.0630      2.00000
    152       0.0965      2.00000
    153       0.1042      2.00000
    154       0.1578      2.00000
    155       0.1815      2.00000
    156       0.2055      2.00000
    157       0.2304      2.00000
    158       0.2328      2.00000
    159       0.2754      2.00000
    160       0.2968      2.00000
    161       0.3068      2.00000
    162       0.3198      2.00000
    163       0.3285      2.00000
    164       0.3384      2.00000
    165       0.3517      2.00000
    166       0.3854      2.00000
    167       0.3997      2.00001
    168       0.4351      2.00002
    169       0.4571      2.00004
    170       0.4775      2.00007
    171       0.4941      2.00011
    172       0.5180      2.00021
    173       0.5931      2.00144
    174       0.6045      2.00188
    175       0.6155      2.00241
    176       0.6375      2.00387
    177       0.6515      2.00516
    178       0.6686      2.00721
    179       0.6994      2.01260
    180       0.7082      2.01459
    181       0.7513      2.02793
    182       0.7991      2.04857
    183       0.8126      2.05476
    184       0.8206      2.05830
    185       0.8238      2.05964
    186       0.8295      2.06193
    187       0.8395      2.06551
    188       0.8425      2.06646
    189       0.8518      2.06892
    190       0.8667      2.07088
    191       0.8802      2.06985
    192       0.8876      2.06784
    193       0.8906      2.06669
    194       0.9509      1.98728
    195       0.9686      1.93717
    196       1.1106      1.02655
    197       1.1288      0.87296
    198       1.2231      0.21106
    199       1.2256      0.19855
    200       1.2437      0.11781
    201       1.2651      0.04380
    202       1.2775      0.01071
    203       1.2811      0.00231
    204       1.4759     -0.02805
    205       1.5102     -0.01695
    206       1.9708     -0.00000
    207       2.0415     -0.00000
    208       2.0776     -0.00000
    209       2.0969     -0.00000
    210       2.2093     -0.00000
    211       2.5309     -0.00000
    212       3.6169     -0.00000
    213       4.0169     -0.00000
    214       4.3812     -0.00000
    215       4.4383     -0.00000
    216       4.5001     -0.00000
    217       4.6215     -0.00000
    218       4.8721     -0.00000
    219       5.4454     -0.00000
    220       5.6376     -0.00000
    221       5.8596     -0.00000
    222       5.8790     -0.00000
    223       5.9029     -0.00000
    224       5.9230     -0.00000
    225       5.9627     -0.00000
    226       6.0796     -0.00000
    227       6.5505     -0.00000
    228       6.7983      0.00000

 k-point     2 :       0.5000    0.0000    0.0000
  band No.  band energies     occupation 
      1     -22.1883      2.00000
      2     -16.9373      2.00000
      3      -8.5642      2.00000
      4      -7.3468      2.00000
      5      -7.3143      2.00000
      6      -6.1160      2.00000
      7      -5.9712      2.00000
      8      -5.9316      2.00000
      9      -5.8760      2.00000
     10      -5.7670      2.00000
     11      -5.5583      2.00000
     12      -5.5101      2.00000
     13      -5.3352      2.00000
     14      -5.2917      2.00000
     15      -4.9845      2.00000
     16      -4.9740      2.00000
     17      -4.9690      2.00000
     18      -4.9520      2.00000
     19      -4.9158      2.00000
     20      -4.9049      2.00000
     21      -4.8710      2.00000
     22      -4.8503      2.00000
     23      -4.8209      2.00000
     24      -4.8096      2.00000
     25      -4.7912      2.00000
     26      -4.7724      2.00000
     27      -4.7413      2.00000
     28      -4.7271      2.00000
     29      -4.6785      2.00000
     30      -4.5006      2.00000
     31      -4.4395      2.00000
     32      -4.4251      2.00000
     33      -4.3723      2.00000
     34      -4.3543      2.00000
     35      -4.3236      2.00000
     36      -4.1375      2.00000
     37      -4.0845      2.00000
     38      -4.0199      2.00000
     39      -3.9919      2.00000
     40      -3.9842      2.00000
     41      -3.9764      2.00000
     42      -3.9469      2.00000
     43      -3.8860      2.00000
     44      -3.8003      2.00000
     45      -3.7395      2.00000
     46      -3.6713      2.00000
     47      -3.6554      2.00000
     48      -3.6184      2.00000
     49      -3.5755      2.00000
     50      -3.5691      2.00000
     51      -3.4486      2.00000
     52      -3.4349      2.00000
     53      -3.3667      2.00000
     54      -3.3402      2.00000
     55      -3.3354      2.00000
     56      -3.3083      2.00000
     57      -3.2566      2.00000
     58      -3.2345      2.00000
     59      -3.2294      2.00000
     60      -3.1486      2.00000
     61      -3.1145      2.00000
     62      -3.0964      2.00000
     63      -3.0385      2.00000
     64      -3.0273      2.00000
     65      -2.9937      2.00000
     66      -2.9577      2.00000
     67      -2.9293      2.00000
     68      -2.9045      2.00000
     69      -2.8819      2.00000
     70      -2.7701      2.00000
[...]
     83      -2.2855      2.00000
     84      -2.2619      2.00000
     85      -2.2524      2.00000
     86      -2.2226      2.00000
     87      -2.2031      2.00000
     88      -2.1860      2.00000
     89      -2.1719      2.00000
     90      -2.1578      2.00000
     91      -2.1247      2.00000
     92      -2.0812      2.00000
     93      -2.0587      2.00000
     94      -2.0115      2.00000
     95      -1.9703      2.00000
     96      -1.9458      2.00000
     97      -1.9343      2.00000
     98      -1.9252      2.00000
     99      -1.8751      2.00000
    100      -1.8117      2.00000
    101      -1.7867      2.00000
    102      -1.7670      2.00000
    103      -1.7393      2.00000
    104      -1.7160      2.00000
    105      -1.7069      2.00000
    106      -1.6696      2.00000
    107      -1.6397      2.00000
    108      -1.6109      2.00000
    109      -1.5828      2.00000
    110      -1.5460      2.00000
    111      -1.4953      2.00000
    112      -1.4586      2.00000
    113      -1.4255      2.00000
    114      -1.3459      2.00000
    115      -1.3049      2.00000
    116      -1.2271      2.00000
    117      -1.1870      2.00000
    118      -1.1709      2.00000
    119      -1.1327      2.00000
    120      -1.0761      2.00000
    121      -1.0511      2.00000
    122      -1.0296      2.00000
    123      -0.9886      2.00000
    124      -0.9730      2.00000
    125      -0.9672      2.00000
    126      -0.9610      2.00000
    127      -0.9219      2.00000
    128      -0.9057      2.00000
    129      -0.8940      2.00000
    130      -0.8602      2.00000
    131      -0.8533      2.00000
    132      -0.8119      2.00000
    133      -0.7540      2.00000
    134      -0.7183      2.00000
    135      -0.7120      2.00000
    136      -0.6852      2.00000
    137      -0.6654      2.00000
    138      -0.6328      2.00000
    139      -0.5855      2.00000
    140      -0.5347      2.00000
    141      -0.4859      2.00000
    142      -0.4679      2.00000
    143      -0.3935      2.00000
    144      -0.3019      2.00000
    145      -0.2762      2.00000
    146      -0.2085      2.00000
    147      -0.1828      2.00000
    148      -0.1243      2.00000
    149      -0.0821      2.00000
    150      -0.0343      2.00000
    151      -0.0248      2.00000
    152       0.0354      2.00000
    153       0.0709      2.00000
    154       0.0801      2.00000
    155       0.1033      2.00000
    156       0.1282      2.00000
    157       0.1457      2.00000
    158       0.1816      2.00000
    159       0.2064      2.00000
    160       0.2260      2.00000
    161       0.2675      2.00000
    162       0.3002      2.00000
    163       0.3277      2.00000
    164       0.3692      2.00000
    165       0.3871      2.00000
    166       0.4195      2.00001
    167       0.5126      2.00015
    168       0.6000      2.00147
    169       0.6161      2.00213
    170       0.6451      2.00399
    171       0.6520      2.00460
    172       0.7018      2.01180
    173       0.7353      2.02036
    174       0.7970      2.04480
    175       0.8078      2.04979
    176       0.8443      2.06510
    177       0.8808      2.07064
    178       0.9075      2.06084
    179       0.9435      2.01622
    180       0.9581      1.98451
    181       0.9696      1.95307
    182       1.0480      1.56712
    183       1.0738      1.37870
    184       1.1073      1.10636
    185       1.1156      1.03638
    186       1.1268      0.94109
    187       1.1365      0.85931
    188       1.1529      0.72448
    189       1.1902      0.44387
    190       1.2001      0.37790
    191       1.3331     -0.06138
    192       1.3545     -0.07003
    193       1.3772     -0.06982
    194       1.4148     -0.05751
    195       1.4421     -0.04511
    196       1.4947     -0.02351
    197       1.6045     -0.00324
    198       1.7597     -0.00006
    199       1.8332     -0.00001
    200       2.0148     -0.00000
    201       2.2627     -0.00000
    202       2.3172     -0.00000
    203       2.8107     -0.00000
    204       2.9245     -0.00000
    205       2.9763     -0.00000
    206       2.9908     -0.00000
    207       3.0085     -0.00000
    208       3.2452     -0.00000
    209       3.4181     -0.00000
    210       3.5376     -0.00000
    211       3.5869     -0.00000
    212       3.6371     -0.00000
    213       3.7525     -0.00000
    214       3.8304     -0.00000
    215       3.9667     -0.00000
    216       4.1909     -0.00000
    217       4.2601     -0.00000
    218       4.4307     -0.00000
    219       4.4376     -0.00000
    220       4.6440     -0.00000
    221       4.6669     -0.00000
    222       4.8473     -0.00000
    223       5.1483     -0.00000
    224       5.5123     -0.00000
    225       5.9411     -0.00000
    226       6.5735     -0.00000
    227       6.6032      0.00000
    228       6.6378      0.00000


--------------------------------------------------------------------------------------------------------


 soft charge-density along one line, spin component           1
         0         1         2         3         4         5         6         7         8         9
 total charge-density along one line
 
 pseudopotential strength for first ion, spin component:           1
 10.099   0.016   0.004   0.012  -0.000  -0.004  -0.011   0.000
  0.016  -0.002  -0.000  -0.000  -0.000  -0.000  -0.000   0.000
  0.004  -0.000  -4.245  -0.007   0.001  -0.011  -0.002   0.000
  0.012  -0.000  -0.007  -4.263   0.004  -0.002  -0.017   0.001
 -0.000  -0.000   0.001   0.004  -4.243   0.000   0.001  -0.010
 -0.004  -0.000  -0.011  -0.002   0.000  -0.770  -0.000   0.000
 -0.011  -0.000  -0.002  -0.017   0.001  -0.000  -0.770   0.000
  0.000   0.000   0.000   0.001  -0.010   0.000   0.000  -0.770
 total augmentation occupancy for first ion, spin component:           1
  1.644  -0.892   0.017   0.019  -0.055   0.033   0.091  -0.027
 -0.892   1.281  -0.207  -0.598   0.113  -0.083  -0.245   0.040
  0.017  -0.207   0.843   0.189  -0.000   0.115   0.053  -0.006
  0.019  -0.598   0.189   1.349  -0.026   0.053   0.252  -0.013
 -0.055   0.113  -0.000  -0.026   0.792  -0.006  -0.014   0.100
  0.033  -0.083   0.115   0.053  -0.006   0.020   0.021  -0.003
  0.091  -0.245   0.053   0.252  -0.014   0.021   0.073  -0.008
 -0.027   0.040  -0.006  -0.013   0.100  -0.003  -0.008   0.014


------------------------ aborting loop because EDIFF is reached ----------------------------------------


    CHARGE:  cpu time    0.6165: real time    0.6845
    FORLOC:  cpu time    0.0389: real time    0.0560
    FORNL :  cpu time    2.2042: real time    2.3171
    STRESS:  cpu time    9.1135: real time    9.7899
    FORCOR:  cpu time    0.3675: real time    0.3696
    FORHAR:  cpu time    0.1330: real time    0.1338
    MIXING:  cpu time    0.0368: real time    0.0370
    OFIELD:  cpu time    0.0000: real time    0.0000

  FORCE on cell =-STRESS in cart. coord.  units (eV):
  Direction    XX          YY          ZZ          XY          YZ          ZX
  --------------------------------------------------------------------------------------
  Alpha Z   975.10247   975.10247   975.10247
  Ewald  111854.06063111830.56430************  -215.70600   252.41577   -93.58960
  Hartree118611.28168118570.28855************  -142.91982   108.46623   -49.89908
  E(xc)   -1666.72814 -1666.51850 -1673.75692    -0.49759     0.73788    -0.23820
  Local  ************************241097.49852   346.83747  -336.85779   135.80827
  n-local   126.61050   126.19141    97.42628    -1.24558     0.77771    -0.13509
  augment  1896.40490  1894.63214  1928.73693     3.04459    -4.32128     1.17954
  Kinetic  5527.73738  5520.66004  5594.69448    11.13800   -21.38412     7.05208
  Fock        0.00000     0.00000     0.00000     0.00000     0.00000     0.00000
  -------------------------------------------------------------------------------------
  Total     -32.95212   -35.13356     1.03860     0.65109    -0.16559     0.17793
  in kB     -39.24652   -41.84465     1.23699     0.77546    -0.19722     0.21191
  external pressure =      -26.62 kB  Pullay stress =        0.00 kB


 VOLUME and BASIS-vectors are now :
 -----------------------------------------------------------------------------
  energy-cutoff  :      450.00
  volume of cell :     1345.22
      direct lattice vectors                 reciprocal lattice vectors
     7.296955120 -4.212899000  0.000000000     0.137043463  0.000000000  0.000000000
     0.000000000  8.425798000  0.000000000     0.068521732  0.118683121  0.000000000
     0.000000000  0.000000000 21.879635000     0.000000000  0.000000000  0.045704602

  length of vectors
     8.425798004  8.425798000 21.879635000     0.137043463  0.137043463  0.045704602


 FORCES acting on ions
    electron-ion (+dipol)            ewald-force                    non-local-force                 convergence-correction
 -----------------------------------------------------------------------------------------------
   0.377E+01 0.987E+01 -.870E+03   -.411E+01 -.148E+02 0.856E+03   0.696E-01 0.337E+01 0.114E+02   -.216E-02 0.175E-01 0.493E-01
   -.779E+02 0.487E+02 -.159E+04   0.789E+02 -.455E+02 0.162E+04   -.594E+00 -.305E+01 -.232E+02   -.487E-02 0.290E-01 0.137E-01
   0.593E+02 -.102E+03 -.154E+04   -.688E+02 0.123E+03 0.160E+04   0.960E+01 -.201E+02 -.590E+02   0.134E-01 -.166E-01 -.467E-01
   -.299E-01 0.121E+01 0.235E+04   0.899E-01 -.134E+01 -.235E+04   0.166E-01 -.562E-01 -.122E+01   -.677E-01 0.138E+00 0.256E-01
   0.685E+00 0.370E+00 0.235E+04   -.823E+00 -.368E+00 -.235E+04   -.287E-02 -.201E-01 -.115E+01   0.994E-01 -.215E-01 -.142E-01
   0.335E+00 0.324E+00 0.235E+04   -.514E+00 -.440E+00 -.235E+04   0.367E-01 -.946E-02 -.116E+01   0.103E+00 0.117E+00 0.103E+00
   0.119E+00 -.240E+00 0.235E+04   -.721E-02 0.221E+00 -.235E+04   0.898E-02 0.213E-01 -.122E+01   -.106E+00 0.379E-01 0.143E+00
   -.163E+00 0.593E+00 0.235E+04   0.170E+00 -.623E+00 -.235E+04   0.112E-01 0.217E-01 -.129E+01   -.359E-01 0.549E-01 0.353E-01
   0.176E-01 -.332E+00 0.235E+04   -.140E+00 0.439E+00 -.235E+04   0.584E-02 0.933E-02 -.124E+01   0.137E+00 -.101E+00 0.100E+00
   0.759E-01 -.112E+01 0.235E+04   0.797E-01 0.991E+00 -.235E+04   -.658E-01 0.108E+00 -.112E+01   -.672E-01 -.338E-01 0.753E-01
   -.861E+00 0.641E-01 0.235E+04   0.873E+00 0.394E-02 -.235E+04   -.433E-02 -.218E-01 -.128E+01   0.193E-02 -.164E-01 0.710E-01
   -.212E+00 -.931E+00 0.235E+04   0.274E+00 0.111E+01 -.235E+04   -.460E-03 0.136E-01 -.104E+01   -.644E-01 -.175E+00 0.634E-01
   0.924E-01 -.865E+01 0.858E+03   -.188E+00 0.885E+01 -.858E+03   0.185E+00 0.122E+00 -.620E+00   -.391E-01 -.219E+00 0.881E-01
   -.148E+01 -.239E+01 0.868E+03   0.136E+01 0.246E+01 -.868E+03   0.119E+00 0.793E-01 -.490E+00   0.373E-01 0.520E-02 0.200E+00
   -.299E+01 0.124E+01 0.857E+03   0.325E+01 -.135E+01 -.857E+03   -.384E-01 0.949E-01 -.375E+00   -.145E+00 -.425E-01 0.143E+00
   0.916E+00 0.833E+01 0.866E+03   -.941E+00 -.854E+01 -.866E+03   0.294E-01 -.899E-01 -.621E+00   -.269E-01 0.145E+00 0.637E-01
   0.638E+01 0.225E+01 0.870E+03   -.673E+01 -.225E+01 -.870E+03   -.772E-03 -.383E-01 -.636E+00   0.284E+00 -.240E-01 0.578E-01
   0.399E+00 0.576E+01 0.873E+03   -.407E+00 -.604E+01 -.873E+03   0.410E-01 0.314E-01 -.702E+00   -.690E-01 0.206E+00 0.118E+00
   -.154E+01 0.119E+01 0.874E+03   0.176E+01 -.115E+01 -.874E+03   -.393E-01 -.144E+00 -.855E+00   -.135E+00 0.754E-01 0.166E+00
   -.318E+01 0.942E+00 0.869E+03   0.311E+01 -.916E+00 -.869E+03   0.669E-01 -.942E-01 -.703E+00   0.103E+00 0.187E-01 0.165E+00
   0.228E+00 -.732E+01 0.869E+03   -.152E+00 0.774E+01 -.869E+03   -.113E-01 -.876E-01 -.702E+00   -.108E-01 -.165E+00 0.105E+00
   -.124E+02 0.702E+01 -.644E+03   0.124E+02 -.739E+01 0.643E+03   0.312E+00 0.860E-01 0.108E+01   -.104E+00 0.235E+00 0.349E-01
   0.818E+01 0.879E+01 -.637E+03   -.818E+01 -.881E+01 0.637E+03   -.300E+00 -.248E+00 0.100E+01   0.363E-01 0.530E-01 0.741E-01
   -.100E+02 0.106E+02 -.664E+03   0.991E+01 -.102E+02 0.664E+03   0.390E+00 -.645E+00 0.513E+00   -.114E+00 0.428E-01 0.205E-01
   0.320E+01 0.148E+02 -.667E+03   -.351E+01 -.140E+02 0.667E+03   0.330E+00 -.792E+00 -.350E+00   -.147E+00 -.549E-01 0.105E+00
   0.157E+02 0.102E+01 -.657E+03   -.152E+02 -.891E+00 0.658E+03   -.798E+00 -.911E-02 -.853E-01   0.141E+00 -.187E+00 0.269E-01
   -.575E+00 -.223E+02 -.626E+03   0.614E+00 0.224E+02 0.626E+03   -.184E+00 0.463E+00 0.976E+00   -.627E-01 -.181E+00 0.175E-02
   -.156E+02 -.759E+01 -.649E+03   0.157E+02 0.764E+01 0.649E+03   0.327E+00 0.105E+00 0.233E+00   -.634E-01 -.472E-01 0.723E-01
   0.987E+01 -.899E+01 -.647E+03   -.101E+02 0.880E+01 0.646E+03   -.112E+00 0.263E+00 0.836E+00   0.185E+00 0.136E+00 0.641E-01
   0.115E+01 -.189E+01 -.637E+03   -.131E+01 0.168E+01 0.636E+03   0.523E-01 0.255E+00 0.862E+00   0.138E+00 0.101E-01 -.945E-01
   -.195E+02 -.260E+02 -.220E+04   0.200E+02 0.258E+02 0.219E+04   -.596E+00 0.297E+00 0.773E+00   0.360E-01 0.130E+00 0.111E+00
   0.127E+02 0.212E+02 -.212E+04   -.132E+02 -.218E+02 0.212E+04   0.558E+00 0.835E+00 0.179E+01   -.682E-01 -.655E-01 -.529E-01
   0.392E+02 -.583E+01 -.214E+04   -.395E+02 0.587E+01 0.214E+04   -.181E-01 0.421E-01 0.119E+01   0.779E-02 0.150E-01 0.125E+00
   -.771E+01 0.171E+01 -.219E+04   0.770E+01 -.194E+01 0.219E+04   0.152E+00 0.384E+00 0.887E+00   -.957E-01 -.952E-01 0.640E-01
   0.200E+02 0.247E+02 -.216E+04   -.201E+02 -.248E+02 0.216E+04   0.111E+00 0.482E-02 0.111E+01   -.191E-01 -.148E+00 -.500E-02
   0.640E+02 0.564E+02 -.201E+04   -.669E+02 -.545E+02 0.202E+04   0.290E+01 -.137E+01 -.291E+01   0.531E-01 -.751E-01 0.769E-02
   -.471E+02 -.439E+02 -.205E+04   0.484E+02 0.459E+02 0.205E+04   -.138E+01 -.206E+01 0.258E+01   0.618E-01 0.404E-01 -.305E-01
   -.601E+02 0.918E+02 -.204E+04   0.607E+02 -.922E+02 0.204E+04   -.580E+00 0.253E+00 -.106E+01   -.377E-01 0.520E-01 0.345E-01
   0.449E+01 -.557E+02 -.213E+04   -.450E+01 0.568E+02 0.212E+04   -.437E-01 -.132E+01 0.120E+01   0.668E-01 0.128E+00 0.247E-01
 -----------------------------------------------------------------------------------------------
   -.105E+02 0.234E+02 0.744E+02   0.444E-14 0.163E-12 -.409E-11   0.106E+02 -.233E+02 -.767E+02   0.208E-01 0.174E-01 0.231E+01
 
 
 POSITION                                       TOTAL-FORCE (eV/Angst)
 -----------------------------------------------------------------------------------
      5.08217      0.65362     10.43002        -0.272889     -1.572254     -2.491188
      6.62854     -0.58692     10.17772         0.430141      0.158032      0.123479
      4.92082      1.02113     11.49970         0.077340      0.736458      1.849247
      7.20031     -1.38846      1.62732         0.006943     -0.046885      0.137900
      2.33567      1.42014      1.62732        -0.043665     -0.042741      0.182128
      4.76799      0.01584      1.62732        -0.041280     -0.011725      0.177601
      7.20031      1.42015      1.62732         0.012896      0.037488      0.109843
      2.33567      4.22875      1.62732        -0.019341      0.042758      0.153524
      4.76799      2.82445      1.62732         0.018940      0.012510      0.158233
      2.33567      7.03734      1.62732         0.020644     -0.055773      0.049287
      4.76799      5.63304      1.62732         0.007936      0.026957      0.098618
      7.20031      4.22874      1.62732        -0.004455      0.014962      0.065798
      1.52490      0.01584      3.92052         0.047928      0.099504     -0.236930
      3.95722     -1.38846      3.92052         0.036519      0.149634     -0.387691
      6.38953     -2.79276      3.92052         0.082278     -0.059469     -0.150803
      1.52490      2.82445      3.92052        -0.024072     -0.153689     -0.306002
      3.95722      1.42015      3.92052        -0.065668     -0.068342     -0.341893
      6.38953      0.01585      3.92052        -0.037708     -0.048489     -0.436641
      1.52490      5.63305      3.92052         0.038974     -0.033754     -0.625731
      3.95722      4.22874      3.92052         0.097893     -0.052484     -0.421424
      6.38953      2.82445      3.92052         0.051452      0.165489     -0.511756
      0.71654      4.20162      6.13461         0.216455     -0.047390      0.654279
      3.16435      5.62905      6.12346        -0.265219     -0.215596      0.522386
      5.56959     -1.35281      6.17901         0.173630     -0.273806      0.397492
      0.69764      1.43883      6.20049        -0.124107     -0.032484      0.220514
      3.18119      0.01377      6.19457        -0.176357     -0.069232     -0.029666
      0.73930      7.00951      6.11718        -0.209049      0.346168      0.481701
      5.57395      4.20613      6.17037         0.328974      0.111073     -0.122103
      3.15674      2.80247      6.15148        -0.133380      0.208055      0.445087
      5.58286      1.40625      6.13541         0.022148      0.050237      0.547788
      2.37437      4.17723      8.52592        -0.042160      0.266390     -0.773820
      4.74891      5.59018      8.36525         0.031078      0.192062      0.380044
      2.35762      1.38648      8.44273        -0.238142      0.092576     -0.004602
      7.21029      4.18902      8.48905         0.047237      0.056490     -0.309916
      2.33464      7.01629      8.42245        -0.010494     -0.258345      0.113612
      4.68255      0.02772      8.64110        -0.000770      0.523170      0.107572
      7.26652      1.43423      8.35944        -0.023947     -0.048050      0.242882
      7.26500     -1.46510      8.57234        -0.028769     -0.106465      0.073703
      4.79417      2.84286      8.45629         0.012064     -0.093041     -0.142551
 -----------------------------------------------------------------------------------
    total drift:                                0.077331      0.114403     -0.009355
  FORCES: max atom, RMS     2.958457    0.655650
  Number: max atom                 1
  FORCE total and by dimension    4.094531    2.491188


--------------------------------------------------------------------------------------------------------



  FREE ENERGIE OF THE ION-ELECTRON SYSTEM (eV)
  ---------------------------------------------------
  free  energy   TOTEN  =      -230.44313857 eV

  energy  without entropy=     -230.41163477  energy(sigma->0) =     -230.43263730
 
 d Force = 0.8444865E-01[ 0.990E-02, 0.159E+00]  d Energy = 0.8761188E-01-0.316E-02
 d Force =-0.6357319E+01[-0.684E+01,-0.587E+01]  d Ewald  =-0.6354265E+01-0.305E-02


--------------------------------------------------------------------------------------------------------


    POTLOK:  cpu time    0.2497: real time    0.4267


--------------------------------------------------------------------------------------------------------


 stress matrix after NEB project (eV)
    -32.95212      0.65109      0.17793
      0.65109    -35.13356     -0.16559
      0.17793     -0.16559      1.03860
  FORCES: max atom, RMS     2.958457    0.655650
  FORCE total and by dimension    4.094531    2.491188
  Stress total and by dimension   48.189765   35.133557
 Quasi-Newton relaxation of ions (Broydens 2nd method)
  g(Force)  = 0.324E+00   g(Stress)= 0.000E+00

 retain information from N=  2 steps
 eigenvalues of (default step * inverse Hessian matrix)
  average eigenvalue of G=   0.8008
 eigenvalue spectrum of G is  0.8008  0.8008
  RESET_HESSIAN           0


--------------------------------------------------------------------------------------------------------


    WAVPRE:  cpu time    0.0656: real time    0.1905
    FEWALD:  cpu time    0.0020: real time    0.0045

 real space projection operators:
  total allocation   :      13558.73 KBytes
  max/ min on nodes  :       6789.23       6769.50

    ORTHCH:  cpu time    0.9595: real time    1.2386
     LOOP+:  cpu time   84.1651: real time   88.3058
