 running on    8 total cores
 distrk:  each k-point on    8 cores,    1 groups
 distr:  one band on    2 cores,    4 groups
 using from now: INCAR     
 vasp.5.4.4 16052018 (build Apr 24 2014 20:13:14) complex standard
 Contain Constrained Minimization Technique (TS), Periodic NBO, VASPsol, libbeef, VASP2WANNIER90, Constrained Cell Relaxation
 POSCAR found type information on POSCAR  C  O  Pt
 POSCAR found :  3 types and      39 ions
 scaLAPACK will be used
 LDA part: xc-table for Pade appr. of Perdew
 POSCAR found type information on POSCAR  C  O  Pt
 POSCAR found :  3 types and      39 ions
 POSCAR, INCAR and KPOINTS ok, starting setup
 FFT: planning ...
 WAVECAR not read
 entering main loop
       N       E                     dE             d eps       ncg     rms          rms(c)
DAV:   1     0.242391889052E+04    0.24239E+04   -0.15953E+05  1824   0.129E+03
DAV:   2    -0.630450074816E+02   -0.24870E+04   -0.23106E+04  2120   0.286E+02
DAV:   3    -0.240745798193E+03   -0.17770E+03   -0.16140E+03  2176   0.691E+01
DAV:   4    -0.248247230053E+03   -0.75014E+01   -0.72227E+01  2312   0.136E+01
DAV:   5    -0.248482964752E+03   -0.23573E+00   -0.23378E+00  2448   0.247E+00    0.274E+01
RMM:   6    -0.246814514429E+03    0.16685E+01   -0.55505E+01  1832   0.149E+01    0.288E+01
RMM:   7    -0.239040355724E+03    0.77742E+01   -0.32691E+01  1829   0.900E+00    0.182E+01
RMM:   8    -0.242748035120E+03   -0.37077E+01   -0.78977E+00  1832   0.461E+00    0.242E+01
RMM:   9    -0.231619729144E+03    0.11128E+02   -0.36180E+00  1831   0.302E+00    0.833E+00
RMM:  10    -0.230661823153E+03    0.95791E+00   -0.11831E+00  1831   0.171E+00    0.460E+00
RMM:  11    -0.230270356629E+03    0.39147E+00   -0.35145E-01  1831   0.956E-01    0.258E+00
RMM:  12    -0.230221621583E+03    0.48735E-01   -0.18282E-01  1831   0.663E-01    0.277E+00
RMM:  13    -0.230188910656E+03    0.32711E-01   -0.16505E-01  1831   0.677E-01    0.191E+00
RMM:  14    -0.230141823957E+03    0.47087E-01   -0.82860E-02  1831   0.494E-01    0.885E-01
RMM:  15    -0.230133378240E+03    0.84457E-02   -0.26917E-02  1831   0.273E-01    0.541E-01
RMM:  16    -0.230129302452E+03    0.40758E-02   -0.58452E-03  1829   0.133E-01    0.249E-01
RMM:  17    -0.230128659168E+03    0.64328E-03   -0.14330E-03  1820   0.652E-02    0.137E-01
RMM:  18    -0.230128925041E+03   -0.26587E-03   -0.68621E-04  1725   0.445E-02    0.136E-01
RMM:  19    -0.230128896805E+03    0.28236E-04   -0.37214E-04  1287   0.349E-02
   1 F= -.23012890E+03 E0= -.23011723E+03  d E =-.230129E+03
 BRION: g(F)=  0.278E+00 g(S)=  0.000E+00
 bond charge predicted
       N       E                     dE             d eps       ncg     rms          rms(c)
DAV:   1    -0.230323628483E+03   -0.19470E+00   -0.26458E+01  1856   0.930E+00    0.669E-01
RMM:   2    -0.230379951859E+03   -0.56323E-01   -0.43904E-01  1831   0.144E+00    0.115E+00
RMM:   3    -0.230372751907E+03    0.72000E-02   -0.33469E-02  1871   0.321E-01    0.102E+00
RMM:   4    -0.230359338322E+03    0.13414E-01   -0.92637E-03  1844   0.161E-01    0.497E-01
RMM:   5    -0.230357048497E+03    0.22898E-02   -0.39613E-03  1838   0.104E-01    0.370E-01
RMM:   6    -0.230356382592E+03    0.66591E-03   -0.55564E-03  1831   0.125E-01    0.258E-01
RMM:   7    -0.230355894843E+03    0.48775E-03   -0.34712E-03  1831   0.101E-01    0.161E-01
RMM:   8    -0.230355580737E+03    0.31411E-03   -0.90179E-04  1802   0.519E-02    0.873E-02
RMM:   9    -0.230355526686E+03    0.54050E-04   -0.20700E-04  1019   0.260E-02
   2 F= -.23035553E+03 E0= -.23034452E+03  d E =-.226630E+00
 BRION: g(F)=  0.202E+00 g(S)=  0.000E+00 retain N=  1 mean eig= 1.57
 eig:   1.573
 bond charge predicted
       N       E                     dE             d eps       ncg     rms          rms(c)
DAV:   1    -0.230417089615E+03   -0.61509E-01   -0.12620E+01  1840   0.664E+00    0.539E-01
RMM:   2    -0.230460287373E+03   -0.43198E-01   -0.37173E-01  1845   0.108E+00    0.874E-01
RMM:   3    -0.230451653255E+03    0.86341E-02   -0.16347E-02  1853   0.220E-01    0.672E-01
RMM:   4    -0.230446140697E+03    0.55126E-02   -0.47089E-03  1843   0.115E-01    0.390E-01
RMM:   5    -0.230444961146E+03    0.11796E-02   -0.39278E-03  1836   0.100E-01    0.366E-01
RMM:   6    -0.230445023246E+03   -0.62100E-04   -0.55776E-03  1829   0.122E-01    0.335E-01
RMM:   7    -0.230443235019E+03    0.17882E-02   -0.23440E-03  1826   0.818E-02    0.112E-01
RMM:   8    -0.230443138571E+03    0.96447E-04   -0.47131E-04  1431   0.376E-02
   3 F= -.23044314E+03 E0= -.23043264E+03  d E =-.876119E-01
 BRION: g(F)=  0.324E+00 g(S)=  0.000E+00 retain N=  2 mean eig= 0.80
 eig:   0.801  0.801
 bond charge predicted
       N       E                     dE             d eps       ncg     rms          rms(c)
[mpiexec@node09] Sending Ctrl-C to processes as requested
[mpiexec@node09] Press Ctrl-C again to force abort
