metal                                   
           1
     7.296955   -4.212899    0.000000
     0.000000    8.425798    0.000000
     0.000000    0.000000   21.879635
   C    O    Pt
   1   2  36
Direct configuration=     1
   0.69997748  0.43082684  0.47694369
   0.90687578  0.38272283  0.46453120
   0.67184093  0.45768272  0.52683222
   0.98675500  0.32859100  0.07437600
   0.32008800  0.32859100  0.07437600
   0.65342200  0.32859100  0.07437600
   0.98675500  0.66192500  0.07437600
   0.32008800  0.66192500  0.07437600
   0.65342200  0.66192500  0.07437600
   0.32008800  0.99525800  0.07437600
   0.65342200  0.99525800  0.07437600
   0.98675500  0.99525800  0.07437600
   0.20897700  0.10636900  0.17918600
   0.54231100  0.10636900  0.17918600
   0.87564400  0.10636900  0.17918600
   0.20897700  0.43970300  0.17918600
   0.54231100  0.43970300  0.17918600
   0.87564400  0.43970300  0.17918600
   0.20897700  0.77303600  0.17918600
   0.54231100  0.77303600  0.17918600
   0.87564400  0.77303600  0.17918600
   0.09631329  0.54717718  0.27883129
   0.43566750  0.88737847  0.27863463
   0.76176742  0.22218965  0.28159299
   0.09662759  0.21946241  0.28280900
   0.43751712  0.22066141  0.28321436
   0.10280122  0.88112659  0.27837798
   0.76105753  0.87924924  0.28235768
   0.43396026  0.54814320  0.28003257
   0.76469933  0.54859309  0.27914212
   0.32569372  0.65735745  0.39125668
   0.65087139  0.98782291  0.38164014
   0.32458494  0.32615734  0.38597533
   0.98766329  0.99061201  0.38873974
   0.32035689  0.99450189  0.38485012
   0.64125198  0.32086495  0.39444505
   0.99580444  0.66827511  0.38185218
   0.99499977  0.32465538  0.39208770
   0.65699749  0.66696221  0.38669338
Direct configuration=     2
   0.69799967  0.42748279  0.47610487
   0.90767511  0.38376032  0.46498454
   0.67309208  0.45842867  0.52666402
   0.98675500  0.32859100  0.07437600
   0.32008800  0.32859100  0.07437600
   0.65342200  0.32859100  0.07437600
   0.98675500  0.66192500  0.07437600
   0.32008800  0.66192500  0.07437600
   0.65342200  0.66192500  0.07437600
   0.32008800  0.99525800  0.07437600
   0.65342200  0.99525800  0.07437600
   0.98675500  0.99525800  0.07437600
   0.20897700  0.10636900  0.17918600
   0.54231100  0.10636900  0.17918600
   0.87564400  0.10636900  0.17918600
   0.20897700  0.43970300  0.17918600
   0.54231100  0.43970300  0.17918600
   0.87564400  0.43970300  0.17918600
   0.20897700  0.77303600  0.17918600
   0.54231100  0.77303600  0.17918600
   0.87564400  0.77303600  0.17918600
   0.09754507  0.54755269  0.27980482
   0.43436714  0.88577608  0.27941680
   0.76278461  0.22148491  0.28209288
   0.09594956  0.21885021  0.28319251
   0.43647610  0.21999792  0.28315439
   0.10186345  0.88203989  0.27915506
   0.76292438  0.88045090  0.28212849
   0.43304451  0.54862623  0.28075059
   0.76499620  0.54921982  0.27993902
   0.32549949  0.65799510  0.39029593
   0.65077842  0.98843574  0.38204300
   0.32366318  0.32616143  0.38589757
   0.98797315  0.99101561  0.38826584
   0.32002158  0.99330356  0.38488072
   0.64171350  0.32307707  0.39487535
   0.99585171  0.66822999  0.38192593
   0.99555772  0.32420149  0.39182371
   0.65699338  0.66620986  0.38658068
Direct configuration=     3
   0.69647827  0.42581260  0.47669980
   0.90839850  0.38454235  0.46516874
   0.67436586  0.45837417  0.52558899
   0.98675500  0.32859100  0.07437600
   0.32008800  0.32859100  0.07437600
   0.65342200  0.32859100  0.07437600
   0.98675500  0.66192500  0.07437600
   0.32008800  0.66192500  0.07437600
   0.65342200  0.66192500  0.07437600
   0.32008800  0.99525800  0.07437600
   0.65342200  0.99525800  0.07437600
   0.98675500  0.99525800  0.07437600
   0.20897700  0.10636900  0.17918600
   0.54231100  0.10636900  0.17918600
   0.87564400  0.10636900  0.17918600
   0.20897700  0.43970300  0.17918600
   0.54231100  0.43970300  0.17918600
   0.87564400  0.43970300  0.17918600
   0.20897700  0.77303600  0.17918600
   0.54231100  0.77303600  0.17918600
   0.87564400  0.77303600  0.17918600
   0.09819760  0.54776016  0.28037973
   0.43365304  0.88489989  0.27987041
   0.76327624  0.22108251  0.28240930
   0.09560678  0.21856777  0.28339112
   0.43596135  0.21961506  0.28312047
   0.10131562  0.88256777  0.27958322
   0.76387342  0.88113362  0.28201440
   0.43261095  0.54891159  0.28115099
   0.76509420  0.54944536  0.28041633
   0.32539127  0.65846229  0.38967373
   0.65080769  0.98886412  0.38233059
   0.32309674  0.32610018  0.38587157
   0.98812359  0.99122760  0.38798855
   0.31994709  0.99268823  0.38494487
   0.64171244  0.32414586  0.39493794
   0.99582962  0.66813325  0.38206475
   0.99562112  0.32392761  0.39179543
   0.65700970  0.66590378  0.38649117
