 vasp.5.4.4 16052018 (build Apr 24 2014 20:13:14) complex standard
 Contain Constrained Minimization Technique (TS), Periodic NBO, VASPsol, libbeef, VASP2WANNIER90, Constrained Cell Relaxation
 executed on Center for Computational Chemistry by phu@node11 date 2025.11.24 22:09:29
 running on    8 total cores
 distrk:  each k-point on    8 cores,    1 groups
 distr:  one band on NCORES_PER_BAND=   2 cores,    4 groups


--------------------------------------------------------------------------------------------------------


 INCAR:
 POTCAR:   PAW_PBE C 08Apr2002                    
 POTCAR:   PAW_PBE O 08Apr2002                    
 POTCAR:    PAW_PBE Pt 04Feb2005                  
 POTCAR:   PAW_PBE C 08Apr2002                    
   VRHFIN =C: s2p2                                                              
   LEXCH  = PE                                                                  
   EATOM  =   147.1560 eV,   10.8157 Ry                                         
                                                                                
   TITEL  = PAW_PBE C 08Apr2002                                                 
   LULTRA =        F    use ultrasoft PP ?                                      
   IUNSCR =        0    unscreen: 0-lin 1-nonlin 2-no                           
   RPACOR =     .000    partial core radius                                     
   POMASS =   12.011; ZVAL   =    4.000    mass and valenz                      
   RCORE  =    1.500    outmost cutoff radius                                   
   RWIGS  =    1.630; RWIGS  =     .863    wigner-seitz radius (au A)           
   ENMAX  =  400.000; ENMIN  =  300.000 eV                                      
   ICORE  =        2    local potential                                         
   LCOR   =        T    correct aug charges                                     
   LPAW   =        T    paw PP                                                  
   EAUG   =  644.873                                                            
   DEXC   =     .000                                                            
   RMAX   =    2.266    core radius for proj-oper                               
   RAUG   =    1.300    factor for augmentation sphere                          
   RDEP   =    1.501    radius for radial grids                                 
   RDEPT  =    1.300    core radius for aug-charge                              
   QCUT   =   -5.516; QGAM   =   11.032    optimization parameters              
                                                                                
   Description                                                                  
     l     E      TYP  RCUT    TYP  RCUT                                        
     0   .000     23  1.200                                                     
     0   .000     23  1.200                                                     
     1   .000     23  1.500                                                     
     1  2.500     23  1.500                                                     
     2   .000      7  1.500                                                     
  local pseudopotential read in
  atomic valenz-charges read in
  non local Contribution for L=           0  read in
    real space projection operators read in
  non local Contribution for L=           0  read in
    real space projection operators read in
  non local Contribution for L=           1  read in
    real space projection operators read in
  non local Contribution for L=           1  read in
    real space projection operators read in
    PAW grid and wavefunctions read in
 
   number of l-projection  operators is LMAX  =           4
   number of lm-projection operators is LMMAX =           8
 
 POTCAR:   PAW_PBE O 08Apr2002                    
   VRHFIN =O: s2p4                                                              
   LEXCH  = PE                                                                  
   EATOM  =   432.3788 eV,   31.7789 Ry                                         
                                                                                
   TITEL  = PAW_PBE O 08Apr2002                                                 
   LULTRA =        F    use ultrasoft PP ?                                      
   IUNSCR =        0    unscreen: 0-lin 1-nonlin 2-no                           
   RPACOR =     .000    partial core radius                                     
   POMASS =   16.000; ZVAL   =    6.000    mass and valenz                      
   RCORE  =    1.520    outmost cutoff radius                                   
   RWIGS  =    1.550; RWIGS  =     .820    wigner-seitz radius (au A)           
   ENMAX  =  400.000; ENMIN  =  300.000 eV                                      
   ICORE  =        2    local potential                                         
   LCOR   =        T    correct aug charges                                     
   LPAW   =        T    paw PP                                                  
   EAUG   =  605.392                                                            
   DEXC   =     .000                                                            
   RMAX   =    2.264    core radius for proj-oper                               
   RAUG   =    1.300    factor for augmentation sphere                          
   RDEP   =    1.550    radius for radial grids                                 
   QCUT   =   -5.520; QGAM   =   11.041    optimization parameters              
                                                                                
   Description                                                                  
     l     E      TYP  RCUT    TYP  RCUT                                        
     0   .000     23  1.200                                                     
     0  -.700     23  1.200                                                     
     1   .000     23  1.520                                                     
     1   .600     23  1.520                                                     
     2   .000      7  1.500                                                     
  local pseudopotential read in
  atomic valenz-charges read in
  non local Contribution for L=           0  read in
    real space projection operators read in
  non local Contribution for L=           0  read in
    real space projection operators read in
  non local Contribution for L=           1  read in
    real space projection operators read in
  non local Contribution for L=           1  read in
    real space projection operators read in
    PAW grid and wavefunctions read in
 
   number of l-projection  operators is LMAX  =           4
   number of lm-projection operators is LMMAX =           8
 
 POTCAR:    PAW_PBE Pt 04Feb2005                  
   VRHFIN =Pt: s1d9                                                             
   LEXCH  = PE                                                                  
   EATOM  =   729.1182 eV,   53.5887 Ry                                         
                                                                                
   TITEL  = PAW_PBE Pt 04Feb2005                                                
   LULTRA =        F    use ultrasoft PP ?                                      
   IUNSCR =        1    unscreen: 0-lin 1-nonlin 2-no                           
   RPACOR =    2.330    partial core radius                                     
   POMASS =  195.080; ZVAL   =   10.000    mass and valenz                      
   RCORE  =    2.600    outmost cutoff radius                                   
   RWIGS  =    2.750; RWIGS  =    1.455    wigner-seitz radius (au A)           
   ENMAX  =  230.283; ENMIN  =  172.712 eV                                      
   ICORE  =        3    local potential                                         
   LCOR   =        T    correct aug charges                                     
   LPAW   =        T    paw PP                                                  
   EAUG   =  358.966                                                            
   DEXC   =     .000                                                            
   RMAX   =    3.038    core radius for proj-oper                               
   RAUG   =    1.300    factor for augmentation sphere                          
   RDEP   =    2.761    radius for radial grids                                 
   QCUT   =   -4.114; QGAM   =    8.228    optimization parameters              
                                                                                
   Description                                                                  
     l     E      TYP  RCUT    TYP  RCUT                                        
     2   .000     23  2.500                                                     
     2   .000     23  2.500                                                     
     0   .000     23  2.500                                                     
     0   .000     23  2.500                                                     
     1  -.200     23  2.600                                                     
     1  1.500     23  2.600                                                     
     3   .000     23  2.500                                                     
  local pseudopotential read in
  partial core-charges read in
  atomic valenz-charges read in
  non local Contribution for L=           2  read in
    real space projection operators read in
  non local Contribution for L=           2  read in
    real space projection operators read in
  non local Contribution for L=           0  read in
    real space projection operators read in
  non local Contribution for L=           0  read in
    real space projection operators read in
  non local Contribution for L=           1  read in
    real space projection operators read in
  non local Contribution for L=           1  read in
    real space projection operators read in
    PAW grid and wavefunctions read in
 
   number of l-projection  operators is LMAX  =           6
   number of lm-projection operators is LMMAX =          18
 
 Optimization of the real space projectors (new method)

 maximal supplied QI-value         = 25.13
 optimisation between [QCUT,QGAM] = [ 10.81, 21.61] = [ 32.71,130.83] Ry 
 Optimized for a Real-space Cutoff    1.23 Angstroem

   l    n(q)    QCUT    max X(q) W(low)/X(q) W(high)/X(q)  e(spline) 
   0      8    10.807     5.582    0.53E-04    0.84E-04    0.44E-07
   0      8    10.807    69.432    0.35E-03    0.71E-03    0.24E-06
   1      7    10.807     2.780    0.44E-04    0.88E-04    0.89E-07
   1      7    10.807     4.549    0.14E-03    0.28E-03    0.13E-06
 Optimization of the real space projectors (new method)

 maximal supplied QI-value         = 24.76
 optimisation between [QCUT,QGAM] = [ 10.64, 21.54] = [ 31.73,129.89] Ry 
 Optimized for a Real-space Cutoff    1.23 Angstroem

   l    n(q)    QCUT    max X(q) W(low)/X(q) W(high)/X(q)  e(spline) 
   0      8    10.645     4.192    0.69E-04    0.93E-04    0.58E-07
   0      8    10.645     8.473    0.40E-03    0.65E-03    0.17E-06
   1      7    10.645     2.474    0.80E-04    0.12E-03    0.30E-07
   1      7    10.645     3.912    0.24E-03    0.53E-03    0.16E-06
 Optimization of the real space projectors (new method)

 maximal supplied QI-value         = 14.36
 optimisation between [QCUT,QGAM] = [ 10.77, 21.69] = [ 32.49,131.70] Ry 
 Optimized for a Real-space Cutoff    1.46 Angstroem

   l    n(q)    QCUT    max X(q) W(low)/X(q) W(high)/X(q)  e(spline) 
   2      9    10.771     3.903    0.38E-04    0.12E-03    0.82E-07
   2      9    10.771    18.372    0.13E-03    0.32E-03    0.28E-06
   0     10    10.771    13.697    0.11E-04    0.86E-05    0.85E-08
   0     10    10.771    65.529    0.40E-04    0.12E-03    0.14E-06
   1      9    10.771     7.604    0.48E-04    0.31E-04    0.38E-07
   1      9    10.771    12.136    0.35E-03    0.16E-03    0.23E-06
 PAW_PBE C 08Apr2002                    :
 energy of atom  1       EATOM= -147.1560
 kinetic energy error for atom=    0.0116 (will be added to EATOM!!)
 PAW_PBE O 08Apr2002                    :
 energy of atom  2       EATOM= -432.3788
 kinetic energy error for atom=    0.0389 (will be added to EATOM!!)
  PAW_PBE Pt 04Feb2005                  :
 energy of atom  3       EATOM= -729.1182
 kinetic energy error for atom=    0.0051 (will be added to EATOM!!)
 
 
 POSCAR: C    O    Pt                            
  positions in direct lattice
  No initial velocities read in
 exchange correlation table for  LEXCH =        8
   RHO(1)=    0.500       N(1)  =     2000
   RHO(2)=  100.500       N(2)  =     4000

 VTST: version 3.2, (02/03/18)

 CHAIN: initializing optimizer
 
 OPT: Using VASP QUASI-newton optimizer
 CHAIN: Read ICHAIN            0
 
 POSCAR: C    O    Pt                            
  positions in direct lattice
  No initial velocities read in
 


--------------------------------------------------------------------------------------------------------


 ion  position               nearest neighbor table
   1  0.698  0.433  0.471-   3 1.16  36 1.87  39 2.78
   2  0.911  0.385  0.464-  38 1.98  36 2.54
   3  0.670  0.460  0.521-   1 1.16
   4  0.987  0.329  0.074-  15 2.81  16 2.81  12 2.81   5 2.81  11 2.81   6 2.81  18 2.81   8 2.81
                             7 2.81
   5  0.320  0.329  0.074-  13 2.81  10 2.81   4 2.81  12 2.81  16 2.81  17 2.81   8 2.81   9 2.81
                             6 2.81
   6  0.653  0.329  0.074-  14 2.81  18 2.81  11 2.81   4 2.81  17 2.81   7 2.81  10 2.81   9 2.81
                             5 2.81
   7  0.987  0.662  0.074-  18 2.81  21 2.81  19 2.81  12 2.81   8 2.81  10 2.81   9 2.81   6 2.81
                             4 2.81
   8  0.320  0.662  0.074-  16 2.81  19 2.81  10 2.81   7 2.81  20 2.81   4 2.81  11 2.81   5 2.81
                             9 2.81
   9  0.653  0.662  0.074-  17 2.81  20 2.81  21 2.81  11 2.81  12 2.81   7 2.81   6 2.81   5 2.81
                             8 2.81
  10  0.320  0.995  0.074-  13 2.81  19 2.81   5 2.81   8 2.81  12 2.81   7 2.81  14 2.81   6 2.81
                            11 2.81
  11  0.653  0.995  0.074-  14 2.81  20 2.81  15 2.81   9 2.81   6 2.81  12 2.81   4 2.81   8 2.81
                            10 2.81
  12  0.987  0.995  0.074-  15 2.81  21 2.81  13 2.81   7 2.81   4 2.81  10 2.81   5 2.81  11 2.81
                             9 2.81
  13  0.209  0.106  0.179-  25 2.79  10 2.81   5 2.81  12 2.81  19 2.81  15 2.81  21 2.81  16 2.81
                            17 2.81  14 2.81  27 2.81  26 2.85
  14  0.542  0.106  0.179-  24 2.78  23 2.80   6 2.81  11 2.81  20 2.81  15 2.81  10 2.81  18 2.81
                            19 2.81  17 2.81  13 2.81  26 2.84
  15  0.876  0.106  0.179-  24 2.73  25 2.74  28 2.80  12 2.81   4 2.81  11 2.81  21 2.81  13 2.81
                            14 2.81  20 2.81  16 2.81  18 2.81
  16  0.209  0.440  0.179-  29 2.70  25 2.78   8 2.81   4 2.81  19 2.81  18 2.81   5 2.81  15 2.81
                            20 2.81  13 2.81  17 2.81  22 2.86
  17  0.542  0.440  0.179-  29 2.73   9 2.81  20 2.81  21 2.81  18 2.81   6 2.81   5 2.81  14 2.81
                            13 2.81  16 2.81  26 2.82  30 2.87
  18  0.876  0.440  0.179-  24 2.77   7 2.81   6 2.81  21 2.81  16 2.81  19 2.81  17 2.81   4 2.81
                            14 2.81  15 2.81  22 2.84  30 2.88
  19  0.209  0.773  0.179-  27 2.79  10 2.81   8 2.81   7 2.81  16 2.81  13 2.81  21 2.81  18 2.81
                            14 2.81  20 2.81  23 2.82  22 2.86
  20  0.542  0.773  0.179-  29 2.70  23 2.79  28 2.80  11 2.81   9 2.81  17 2.81  14 2.81  21 2.81
                            15 2.81   8 2.81  16 2.81  19 2.81
  21  0.876  0.773  0.179-   7 2.81  12 2.81   9 2.81  18 2.81  15 2.81  19 2.81  13 2.81  17 2.81
                            20 2.81  27 2.83  28 2.84  30 2.89
  22  0.095  0.550  0.287-  37 2.64  31 2.72  27 2.78  24 2.79  30 2.79  25 2.81  29 2.81  38 2.81
                            18 2.84  23 2.85  19 2.86  16 2.86
  23  0.435  0.885  0.284-  31 2.72  28 2.74  29 2.77  20 2.79  24 2.79  27 2.79  14 2.80  32 2.81
                            19 2.82  35 2.83  26 2.84  22 2.85
  24  0.769  0.214  0.281-  25 2.71  28 2.73  15 2.73  18 2.77  14 2.78  22 2.79  23 2.79  30 2.84
                            26 2.85  32 2.86  38 2.90  36 2.98
  25  0.091  0.215  0.282-  24 2.71  15 2.74  38 2.76  28 2.77  16 2.78  13 2.79  22 2.81  33 2.82
                            27 2.84  34 2.85  29 2.85  26 2.87
  26  0.434  0.222  0.285-  33 2.73  30 2.75  17 2.82  27 2.82  29 2.82  36 2.83  23 2.84  14 2.84
                            13 2.85  24 2.85  25 2.87  35 2.88
  27  0.102  0.884  0.284-  37 2.70  34 2.77  22 2.78  19 2.79  23 2.79  13 2.81  26 2.82  21 2.83
                            25 2.84  35 2.85  30 2.86  28 2.89
  28  0.761  0.887  0.284-  24 2.73  23 2.74  32 2.75  25 2.77  20 2.80  15 2.80  29 2.80  34 2.83
                            21 2.84  39 2.84  30 2.87  27 2.89
  29  0.429  0.554  0.278-  20 2.70  16 2.70  17 2.73  23 2.77  31 2.77  28 2.80  22 2.81  26 2.82
                            30 2.84  25 2.85  33 2.89  39 2.96
  30  0.762  0.547  0.288-  37 2.68  26 2.75  39 2.78  22 2.79  29 2.84  24 2.84  36 2.84  27 2.86
                            28 2.87  17 2.87  18 2.88  21 2.89
  31  0.327  0.664  0.384-  23 2.72  22 2.72  35 2.76  39 2.77  32 2.77  29 2.77  33 2.81  37 2.83
                            38 2.84
  32  0.657  0.992  0.389-  39 2.75  28 2.75  31 2.77  35 2.80  23 2.81  34 2.82  38 2.82  36 2.84
                            24 2.86
  33  0.318  0.326  0.386-  38 2.67  26 2.73  36 2.79  34 2.80  31 2.81  25 2.82  39 2.85  35 2.87
                            29 2.89
  34  0.991  0.990  0.388-  38 2.75  37 2.75  27 2.77  39 2.78  33 2.80  35 2.81  32 2.82  28 2.83
                            25 2.85
  35  0.323  0.989  0.392-  31 2.76  36 2.77  37 2.77  32 2.80  34 2.81  23 2.83  27 2.85  33 2.87
                            26 2.88
  36  0.646  0.323  0.394-   1 1.87   2 2.54  35 2.77  33 2.79  26 2.83  32 2.84  30 2.84  39 2.85
                            37 2.90  38 2.98  24 2.98
  37  0.991  0.663  0.383-  22 2.64  30 2.68  27 2.70  34 2.75  35 2.77  31 2.83  39 2.84  36 2.90
                            38 2.92
  38  0.998  0.320  0.389-   2 1.98  33 2.67  34 2.75  25 2.76  22 2.81  32 2.82  31 2.84  24 2.90
                            37 2.92  36 2.98
  39  0.656  0.665  0.391-  32 2.75  31 2.77  34 2.78   1 2.78  30 2.78  37 2.84  28 2.84  36 2.85
                            33 2.85  29 2.96
 

IMPORTANT INFORMATION: All symmetrisations will be switched off!
NOSYMM: (Re-)initialisation of all symmetry stuff for point group C_1.

 
 
 KPOINTS: mesh auto                               

Automatic generation of k-mesh.
Space group operators:
 irot       det(A)        alpha          n_x          n_y          n_z        tau_x        tau_y        tau_z
    1     1.000000     0.000000     1.000000     0.000000     0.000000     0.000000     0.000000     0.000000
 
 Subroutine IBZKPT returns following result:
 ===========================================
 
 Found      4 irreducible k-points:
 
 Following reciprocal coordinates:
            Coordinates               Weight
  0.000000  0.000000  0.000000      1.000000
  0.500000  0.000000  0.000000      1.000000
 -0.000000  0.500000  0.000000      1.000000
  0.500000  0.500000  0.000000      1.000000
 
 Following cartesian coordinates:
            Coordinates               Weight
  0.000000  0.000000  0.000000      1.000000
  0.068522  0.000000  0.000000      1.000000
  0.034261  0.059342  0.000000      1.000000
  0.102783  0.059342  0.000000      1.000000
 


--------------------------------------------------------------------------------------------------------




 Dimension of arrays:
   k-points           NKPTS =      4   k-points in BZ     NKDIM =      4   number of bands    NBANDS=    228
   number of dos      NEDOS =    301   number of ions     NIONS =     39
   non local maximal  LDIM  =      6   non local SUM 2l+1 LMDIM =     18
   total plane-waves  NPLWV = 276480
   max r-space proj   IRMAX =   2756   max aug-charges    IRDMAX=  12646
   dimension x,y,z NGX =    48 NGY =   48 NGZ =  120
   dimension x,y,z NGXF=    96 NGYF=   96 NGZF=  240
   support grid    NGXF=    96 NGYF=   96 NGZF=  240
   ions per type =               1   2  36
   NGX,Y,Z   is equivalent  to a cutoff of   9.47,  9.47,  9.12 a.u.
   NGXF,Y,Z  is equivalent  to a cutoff of  18.94, 18.94, 18.24 a.u.

 SYSTEM =  metal                                   
 POSCAR =  C    O    Pt                            

 Startparameter for this run:
   NWRITE =      2    write-flag & timer
   PREC   = normal    normal or accurate (medium, high low for compatibility)
   ISTART =      0    job   : 0-new  1-cont  2-samecut
   ICHARG =      2    charge: 1-file 2-atom 10-const
   ISPIN  =      1    spin polarized calculation?
   LNONCOLLINEAR =      F non collinear calculations
   LSORBIT =      F    spin-orbit coupling
   INIWAV =      1    electr: 0-lowe 1-rand  2-diag
   LASPH  =      F    aspherical Exc in radial PAW
   METAGGA=      F    non-selfconsistent MetaGGA calc.

 Electronic Relaxation 1
   ENCUT  =  450.0 eV  33.07 Ry    5.75 a.u.  14.57 14.57 37.84*2*pi/ulx,y,z
   ENINI  =  450.0     initial cutoff
   ENAUG  =  644.9 eV  augmentation charge cutoff
   NELM   =     60;   NELMIN=  8; NELMDL= -5     # of ELM steps 
   EDIFF  = 0.1E-03   stopping-criterion for ELM
   LREAL  =      T    real-space projection
   NLSPLINE    = F    spline interpolate recip. space projectors
   LCOMPAT=      F    compatible to vasp.4.4
   GGA_COMPAT  = T    GGA compatible to vasp.4.4-vasp.4.6
   LMAXPAW     = -100 max onsite density
   LMAXMIX     =    2 max onsite mixed and CHGCAR
   VOSKOWN=      0    Vosko Wilk Nusair interpolation
   ROPT   =   -0.00050  -0.00050  -0.00050
 Ionic relaxation
   EDIFFG = -.5E-01   stopping-criterion for IOM
   NSW    =   5000    number of steps for IOM
   NBLOCK =      1;   KBLOCK =   5000    inner block; outer block 
   IBRION =      1    ionic relax: 0-MD 1-quasi-New 2-CG
   NFREE  =      0    steps in history (QN), initial steepest desc. (CG)
   ISIF   =      2    stress and relaxation
   IWAVPR =     11    prediction:  0-non 1-charg 2-wave 3-comb
   ISYM   =      0    0-nonsym 1-usesym 2-fastsym
   LCORR  =      T    Harris-Foulkes like correction to forces

   POTIM  = 0.2000    time-step for ionic-motion
   TEIN   =    0.0    initial temperature
   TEBEG  =    0.0;   TEEND  =   0.0 temperature during run
   SMASS  =  -3.00    Nose mass-parameter (am)
   estimated Nose-frequenzy (Omega)   =  0.10E-29 period in steps =****** mass=  -0.162E-26a.u.
   SCALEE = 1.0000    scale energy and forces
   NPACO  =    256;   APACO  = 16.0  distance and # of slots for P.C.
   PSTRESS=    0.0 pullay stress

  Mass of Ions in am
   POMASS =  12.01 16.00195.08
  Ionic Valenz
   ZVAL   =   4.00  6.00 10.00
  Atomic Wigner-Seitz radii
   RWIGS  =  -1.00 -1.00 -1.00
  virtual crystal weights 
   VCA    =   1.00  1.00  1.00
   NELECT =     376.0000    total number of electrons
   NUPDOWN=      -1.0000    fix difference up-down

 DOS related values:
   EMIN   =  10.00;   EMAX   =-10.00  energy-range for DOS
   EFERMI =   0.00
   ISMEAR =     1;   SIGMA  =   0.20  broadening in eV -4-tet -1-fermi 0-gaus

 Electronic relaxation 2 (details)
   IALGO  =     68    algorithm
   LDIAG  =      T    sub-space diagonalisation (order eigenvalues)
   LSUBROT=      F    optimize rotation matrix (better conditioning)
   TURBO    =      0    0=normal 1=particle mesh
   IRESTART =      0    0=no restart 2=restart with 2 vectors
   NREBOOT  =      0    no. of reboots
   NMIN     =      0    reboot dimension
   EREF     =   0.00    reference energy to select bands
   IMIX   =      4    mixing-type and parameters
     AMIX     =   0.40;   BMIX     =  1.00
     AMIX_MAG =   1.60;   BMIX_MAG =  1.00
     AMIN     =   0.10
     WC   =   100.;   INIMIX=   1;  MIXPRE=   1;  MAXMIX= -45

 Intra band minimization:
   WEIMIN = 0.0010     energy-eigenvalue tresh-hold
   EBREAK =  0.11E-06  absolut break condition
   DEPER  =   0.30     relativ break condition  

   TIME   =   0.40     timestep for ELM

  volume/ion in A,a.u.               =      34.49       232.77
  Fermi-wavevector in a.u.,A,eV,Ry     =   1.070385  2.022734 15.588510  1.145723
  Thomas-Fermi vector in A             =   2.206093
 
 Write flags
   LWAVE        =      F    write WAVECAR
   LDOWNSAMPLE  =      F    k-point downsampling of WAVECAR
   LCHARG       =      F    write CHGCAR
   LVTOT        =      F    write LOCPOT, total local potential
   LVHAR        =      F    write LOCPOT, Hartree potential only
   LELF         =      F    write electronic localiz. function (ELF)
   LORBIT       =      0    0 simple, 1 ext, 2 COOP (PROOUT), +10 PAW based schemes


 Dipole corrections
   LMONO  =      F    monopole corrections only (constant potential shift)
   LDIPOL =      F    correct potential (dipole corrections)
   IDIPOL =      0    1-x, 2-y, 3-z, 4-all directions 
   EPSILON=  1.0000000 bulk dielectric constant

 Exchange correlation treatment:
   GGA     =    --    GGA type
   LEXCH   =     8    internal setting for exchange type
   VOSKOWN=      0    Vosko Wilk Nusair interpolation
   LHFCALC =     F    Hartree Fock is set to
   LHFONE  =     F    Hartree Fock one center treatment
   AEXX    =    0.0000 exact exchange contribution

 Linear response parameters
   LEPSILON=     F    determine dielectric tensor
   LRPA    =     F    only Hartree local field effects (RPA)
   LNABLA  =     F    use nabla operator in PAW spheres
   LVEL    =     F    velocity operator in full k-point grid
   LINTERFAST=   F  fast interpolation
   KINTER  =     0    interpolate to denser k-point grid
   CSHIFT  =0.1000    complex shift for real part using Kramers Kronig
   OMEGAMAX=  -1.0    maximum frequency
   DEG_THRESHOLD= 0.2000000E-02 threshold for treating states as degnerate
   RTIME   =   -0.100 relaxation time in fs
  (WPLASMAI=    0.000 imaginary part of plasma frequency in eV, 0.658/RTIME)
   DFIELD  = 0.0000000 0.0000000 0.0000000 field for delta impulse in time
 
 Orbital magnetization related:
   ORBITALMAG=     F  switch on orbital magnetization
   LCHIMAG   =     F  perturbation theory with respect to B field
   DQ        =  0.001000  dq finite difference perturbation B field
   LLRAUG    =     F  two centre corrections for induced B field



--------------------------------------------------------------------------------------------------------


 quasi-Newton-method for relaxation of ions
   using selective dynamics as specified on POSCAR
 charge density and potential will be updated during run
 non-spin polarized calculation
 RMM-DIIS sequential band-by-band and
  variant of blocked Davidson during initial phase
 perform sub-space diagonalisation
    before iterative eigenvector-optimisation
 modified Broyden-mixing scheme, WC =      100.0
 initial mixing is a Kerker type mixing with AMIX =  0.4000 and BMIX =      1.0000
 Hartree-type preconditioning will be used
 using additional bands           40
 real space projection scheme for non local part
 use partial core corrections
 calculate Harris-corrections to forces 
   (improved forces if not selfconsistent)
 use gradient corrections 
 use of overlap-Matrix (Vanderbilt PP)
 Methfessel and Paxton  Order N= 1 SIGMA  =   0.20


--------------------------------------------------------------------------------------------------------


  energy-cutoff  :      450.00
  volume of cell :     1345.22
      direct lattice vectors                 reciprocal lattice vectors
     7.296955120 -4.212899000  0.000000000     0.137043463  0.000000000  0.000000000
     0.000000000  8.425798000  0.000000000     0.068521732  0.118683121  0.000000000
     0.000000000  0.000000000 21.879635000     0.000000000  0.000000000  0.045704602

  length of vectors
     8.425798004  8.425798000 21.879635000     0.137043463  0.137043463  0.045704602


 
 k-points in units of 2pi/SCALE and weight: mesh auto                               
   0.00000000  0.00000000  0.00000000       0.250
   0.06852173  0.00000000  0.00000000       0.250
   0.03426087  0.05934156  0.00000000       0.250
   0.10278260  0.05934156  0.00000000       0.250
 
 k-points in reciprocal lattice and weights: mesh auto                               
   0.00000000  0.00000000  0.00000000       0.250
   0.50000000  0.00000000  0.00000000       0.250
  -0.00000000  0.50000000  0.00000000       0.250
   0.50000000  0.50000000  0.00000000       0.250
 
 position of ions in fractional coordinates (direct lattice) 
   0.69774006  0.43266783  0.47093270
   0.91138200  0.38483633  0.46429163
   0.66960352  0.45952371  0.52082123
   0.98675500  0.32859100  0.07437600
   0.32008800  0.32859100  0.07437600
   0.65342200  0.32859100  0.07437600
   0.98675500  0.66192500  0.07437600
   0.32008800  0.66192500  0.07437600
   0.65342200  0.66192500  0.07437600
   0.32008800  0.99525800  0.07437600
   0.65342200  0.99525800  0.07437600
   0.98675500  0.99525800  0.07437600
   0.20897700  0.10636900  0.17918600
   0.54231100  0.10636900  0.17918600
   0.87564400  0.10636900  0.17918600
   0.20897700  0.43970300  0.17918600
   0.54231100  0.43970300  0.17918600
   0.87564400  0.43970300  0.17918600
   0.20897700  0.77303600  0.17918600
   0.54231100  0.77303600  0.17918600
   0.87564400  0.77303600  0.17918600
   0.09453732  0.54971668  0.28658391
   0.43481519  0.88535850  0.28370986
   0.76874307  0.21445556  0.28131231
   0.09086431  0.21516163  0.28174384
   0.43417018  0.22192118  0.28543268
   0.10246919  0.88395768  0.28406937
   0.76112423  0.88714178  0.28403689
   0.42921097  0.55396367  0.27845542
   0.76172600  0.54733776  0.28796659
   0.32723934  0.66417990  0.38369601
   0.65700772  0.99167414  0.38872155
   0.31785650  0.32627628  0.38631890
   0.99062711  0.98960338  0.38803141
   0.32320799  0.98852816  0.39162064
   0.64633551  0.32252615  0.39389210
   0.99149148  0.66340459  0.38325602
   0.99848084  0.32019273  0.38936750
   0.65592468  0.66535162  0.39081178
 
 position of ions in cartesian coordinates  (Angst):
   5.09137792  0.70606330 10.30383554
   6.65031356 -0.59700718 10.15853134
   4.88606681  1.05088196 11.39537841
   7.20030695 -1.38845776  1.62731973
   2.33566777  1.42014298  1.62731973
   4.76799101  0.01584050  1.62731973
   7.20030695  1.42014719  1.62731973
   2.33566777  4.22874793  1.62731973
   4.76799101  2.82444545  1.62731973
   2.33566777  7.03734445  1.62731973
   4.76799101  5.63304198  1.62731973
   7.20030695  4.22874371  1.62731973
   1.52489579  0.01584471  3.92052428
   3.95721903 -1.38845776  3.92052428
   6.38953497 -2.79275602  3.92052428
   1.52489579  2.82444966  3.92052428
   3.95721903  1.42014719  3.92052428
   6.38953497  0.01584893  3.92052428
   1.52489579  5.63304619  3.92052428
   3.95721903  4.22874371  3.92052428
   6.38953497  2.82444545  3.92052428
   0.68983456  4.23352551  6.27035132
   3.17282693  5.62801941  6.20746828
   5.60948367 -1.43167766  6.15501067
   0.66303277  1.43010627  6.16445247
   3.16812033  0.04074787  6.24516283
   0.74771311  7.01635652  6.21533406
   5.55388935  4.26833796  6.21462350
   3.13193318  2.85936350  6.09250289
   5.55828046  1.40268269  6.30060393
   2.38785074  4.21761938  8.39512864
   4.79415584  5.58773885  8.50508557
   2.31938461  1.41004071  8.45251651
   7.22856160  4.16478617  8.48998561
   2.35843417  6.96749600  8.56851675
   4.71628123 -0.00540609  8.61821541
   7.23486887  1.41265956  8.38550175
   7.28586989 -1.50861965  8.51921889
   4.78625293  2.84277397  8.55081910
 


--------------------------------------------------------------------------------------------------------


 k-point  1 :   0.0000 0.0000 0.0000  plane waves:   29241
 k-point  2 :   0.5000 0.0000 0.0000  plane waves:   29108
 k-point  3 :  -0.0000 0.5000 0.0000  plane waves:   29108
 k-point  4 :   0.5000 0.5000 0.0000  plane waves:   29108

 maximum and minimum number of plane-waves per node :     14624    14548

 maximum number of plane-waves:     29241
 maximum index in each direction: 
   IXMAX=   14   IYMAX=   14   IZMAX=   37
   IXMIN=  -15   IYMIN=  -15   IZMIN=  -37


 real space projection operators:
  total allocation   :      13550.11 KBytes
  max/ min on nodes  :       6780.30       6769.81


 parallel 3D FFT for wavefunctions:
    minimum data exchange during FFTs selected (reduces bandwidth)
 parallel 3D FFT for charge:
    minimum data exchange during FFTs selected (reduces bandwidth)


 total amount of memory used by VASP MPI-rank0   131947. kBytes
=======================================================================

   base      :      30000. kBytes
   nonlr-proj:      10139. kBytes
   fftplans  :      13556. kBytes
   grid      :      23353. kBytes
   one-center:        311. kBytes
   wavefun   :      54588. kBytes
 
     INWAV:  cpu time    0.0000: real time    0.0000
 Broyden mixing: mesh for mixing (old mesh)
   NGX = 29   NGY = 29   NGZ = 75
  (NGX  = 96   NGY  = 96   NGZ  =240)
  gives a total of  63075 points

 initial charge density was supplied:
 charge density of overlapping atoms calculated
 number of electron     376.0000000 magnetization 
 keeping initial charge density in first step


--------------------------------------------------------------------------------------------------------


 Maximum index for non-local projection operator         1320
 Maximum index for augmentation-charges         1558 (set IRDMAX)


--------------------------------------------------------------------------------------------------------


 First call to EWALD:  gamma=   0.161
 Maximum number of real-space cells 4x 4x 2
 Maximum number of reciprocal cells 2x 2x 5

    FEWALD:  cpu time    0.0024: real time    0.0024


--------------------------------------- Iteration      1(   1)  ---------------------------------------


    POTLOK:  cpu time    0.1853: real time    0.2420
    SETDIJ:  cpu time    0.0129: real time    0.0129
     EDDAV:  cpu time   12.1732: real time   12.2807
       DOS:  cpu time    0.0011: real time    0.0011
    --------------------------------------------
      LOOP:  cpu time   12.3725: real time   12.5368

 eigenvalue-minimisations  :  1824
 total energy-change (2. order) : 0.2422982E+04  (-0.1595422E+05)
 number of electron     376.0000000 magnetization 
 augmentation part      376.0000000 magnetization 

 Free energy of the ion-electron system (eV)
  ---------------------------------------------------
  alpha Z        PSCENC =       975.10247152
  Ewald energy   TEWEN  =     91615.58153055
  -Hartree energ DENC   =   -120702.96126799
  -exchange      EXHF   =         0.00000000
  -V(xc)+E(xc)   XCENC  =       189.87506465
  PAW double counting   =     24789.08602224   -23775.73976456
  entropy T*S    EENTRO =         0.00411224
  eigenvalues    EBANDS =      2072.13922730
  atomic energy  EATOM  =     27259.89416086
  Solvation  Ediel_sol  =         0.00000000
  ---------------------------------------------------
  free energy    TOTEN  =      2422.98155682 eV

  energy without entropy =     2422.97744458  energy(sigma->0) =     2422.98018608


--------------------------------------------------------------------------------------------------------




--------------------------------------- Iteration      1(   2)  ---------------------------------------


     EDDAV:  cpu time   13.7601: real time   13.8819
       DOS:  cpu time    0.0012: real time    0.0012
    --------------------------------------------
      LOOP:  cpu time   13.7613: real time   13.8831

 eigenvalue-minimisations  :  2120
 total energy-change (2. order) :-0.2485910E+04  (-0.2309903E+04)
 number of electron     376.0000000 magnetization 
 augmentation part      376.0000000 magnetization 

 Free energy of the ion-electron system (eV)
  ---------------------------------------------------
  alpha Z        PSCENC =       975.10247152
  Ewald energy   TEWEN  =     91615.58153055
  -Hartree energ DENC   =   -120702.96126799
  -exchange      EXHF   =         0.00000000
  -V(xc)+E(xc)   XCENC  =       189.87506465
  PAW double counting   =     24789.08602224   -23775.73976456
  entropy T*S    EENTRO =        -0.02003892
  eigenvalues    EBANDS =      -413.74682580
  atomic energy  EATOM  =     27259.89416086
  Solvation  Ediel_sol  =         0.00000000
  ---------------------------------------------------
  free energy    TOTEN  =       -62.92864744 eV

  energy without entropy =      -62.90860853  energy(sigma->0) =      -62.92196780


--------------------------------------------------------------------------------------------------------




--------------------------------------- Iteration      1(   3)  ---------------------------------------


     EDDAV:  cpu time   13.9900: real time   14.1089
       DOS:  cpu time    0.0011: real time    0.0012
    --------------------------------------------
      LOOP:  cpu time   13.9911: real time   14.1101

 eigenvalue-minimisations  :  2160
 total energy-change (2. order) :-0.1778380E+03  (-0.1612010E+03)
 number of electron     376.0000000 magnetization 
 augmentation part      376.0000000 magnetization 

 Free energy of the ion-electron system (eV)
  ---------------------------------------------------
  alpha Z        PSCENC =       975.10247152
  Ewald energy   TEWEN  =     91615.58153055
  -Hartree energ DENC   =   -120702.96126799
  -exchange      EXHF   =         0.00000000
  -V(xc)+E(xc)   XCENC  =       189.87506465
  PAW double counting   =     24789.08602224   -23775.73976456
  entropy T*S    EENTRO =        -0.00813352
  eigenvalues    EBANDS =      -591.59673733
  atomic energy  EATOM  =     27259.89416086
  Solvation  Ediel_sol  =         0.00000000
  ---------------------------------------------------
  free energy    TOTEN  =      -240.76665357 eV

  energy without entropy =     -240.75852005  energy(sigma->0) =     -240.76394240


--------------------------------------------------------------------------------------------------------




--------------------------------------- Iteration      1(   4)  ---------------------------------------


     EDDAV:  cpu time   14.7059: real time   14.8241
       DOS:  cpu time    0.0011: real time    0.0011
    --------------------------------------------
      LOOP:  cpu time   14.7071: real time   14.8253

 eigenvalue-minimisations  :  2336
 total energy-change (2. order) :-0.7820127E+01  (-0.7540242E+01)
 number of electron     376.0000000 magnetization 
 augmentation part      376.0000000 magnetization 

 Free energy of the ion-electron system (eV)
  ---------------------------------------------------
  alpha Z        PSCENC =       975.10247152
  Ewald energy   TEWEN  =     91615.58153055
  -Hartree energ DENC   =   -120702.96126799
  -exchange      EXHF   =         0.00000000
  -V(xc)+E(xc)   XCENC  =       189.87506465
  PAW double counting   =     24789.08602224   -23775.73976456
  entropy T*S    EENTRO =        -0.00935707
  eigenvalues    EBANDS =      -599.41564078
  atomic energy  EATOM  =     27259.89416086
  Solvation  Ediel_sol  =         0.00000000
  ---------------------------------------------------
  free energy    TOTEN  =      -248.58678058 eV

  energy without entropy =     -248.57742350  energy(sigma->0) =     -248.58366155


--------------------------------------------------------------------------------------------------------




--------------------------------------- Iteration      1(   5)  ---------------------------------------


     EDDAV:  cpu time   15.2608: real time   15.3784
       DOS:  cpu time    0.0012: real time    0.0012
    CHARGE:  cpu time    0.8286: real time    0.8343
    MIXING:  cpu time    0.0111: real time    0.0111
    --------------------------------------------
      LOOP:  cpu time   16.1016: real time   16.2250

 eigenvalue-minimisations  :  2384
 total energy-change (2. order) :-0.2274688E+00  (-0.2254808E+00)
 number of electron     376.0000039 magnetization 
 augmentation part      105.7630621 magnetization 

 Broyden mixing:
  rms(total) = 0.27634E+01    rms(broyden)= 0.27630E+01
  rms(prec ) = 0.30812E+01
  weight for this iteration     100.00

 Free energy of the ion-electron system (eV)
  ---------------------------------------------------
  alpha Z        PSCENC =       975.10247152
  Ewald energy   TEWEN  =     91615.58153055
  -Hartree energ DENC   =   -120702.96126799
  -exchange      EXHF   =         0.00000000
  -V(xc)+E(xc)   XCENC  =       189.87506465
  PAW double counting   =     24789.08602224   -23775.73976456
  entropy T*S    EENTRO =        -0.00949289
  eigenvalues    EBANDS =      -599.64297380
  atomic energy  EATOM  =     27259.89416086
  Solvation  Ediel_sol  =         0.00000000
  ---------------------------------------------------
  free energy    TOTEN  =      -248.81424942 eV

  energy without entropy =     -248.80475652  energy(sigma->0) =     -248.81108512


--------------------------------------------------------------------------------------------------------




--------------------------------------- Iteration      1(   6)  ---------------------------------------


    POTLOK:  cpu time    0.1865: real time    0.1877
    SETDIJ:  cpu time    0.0111: real time    0.0112
    EDDIAG:  cpu time    2.0710: real time    2.0869
  RMM-DIIS:  cpu time    7.2049: real time    7.2629
    ORTHCH:  cpu time    0.2826: real time    0.2846
       DOS:  cpu time    0.0011: real time    0.0011
    CHARGE:  cpu time    0.7218: real time    0.7269
    MIXING:  cpu time    0.0080: real time    0.0081
    --------------------------------------------
      LOOP:  cpu time   10.4871: real time   10.5694

 eigenvalue-minimisations  :  1828
 total energy-change (2. order) : 0.2217436E+01  (-0.5596012E+01)
 number of electron     376.0000026 magnetization 
 augmentation part      112.9840980 magnetization 

 Broyden mixing:
  rms(total) = 0.30153E+01    rms(broyden)= 0.30143E+01
  rms(prec ) = 0.39961E+01
  weight for this iteration     100.00

 eigenvalues of (default mixing * dielectric matrix)
  average eigenvalue GAMMA=   0.4832
  0.4832

 Free energy of the ion-electron system (eV)
  ---------------------------------------------------
  alpha Z        PSCENC =       975.10247152
  Ewald energy   TEWEN  =     91615.58153055
  -Hartree energ DENC   =   -120234.68570218
  -exchange      EXHF   =         0.00000000
  -V(xc)+E(xc)   XCENC  =       182.85653006
  PAW double counting   =     26734.74021155   -25775.31886675
  entropy T*S    EENTRO =        -0.14585565
  eigenvalues    EBANDS =     -1004.62129377
  atomic energy  EATOM  =     27259.89416086
  Solvation  Ediel_sol  =         0.00000000
  ---------------------------------------------------
  free energy    TOTEN  =      -246.59681381 eV

  energy without entropy =     -246.45095816  energy(sigma->0) =     -246.54819526


--------------------------------------------------------------------------------------------------------




--------------------------------------- Iteration      1(   7)  ---------------------------------------


    POTLOK:  cpu time    0.1771: real time    0.1784
    SETDIJ:  cpu time    0.0112: real time    0.0113
    EDDIAG:  cpu time    2.0411: real time    2.0559
  RMM-DIIS:  cpu time    7.2075: real time    7.2660
    ORTHCH:  cpu time    0.2691: real time    0.2709
       DOS:  cpu time    0.0012: real time    0.0012
    CHARGE:  cpu time    0.8150: real time    0.8209
    MIXING:  cpu time    0.0053: real time    0.0054
    --------------------------------------------
      LOOP:  cpu time   10.5275: real time   10.6099

 eigenvalue-minimisations  :  1831
 total energy-change (2. order) : 0.4358786E+01  (-0.3361200E+01)
 number of electron     376.0000048 magnetization 
 augmentation part      111.3483520 magnetization 

 Broyden mixing:
  rms(total) = 0.20205E+01    rms(broyden)= 0.20196E+01
  rms(prec ) = 0.32908E+01
  weight for this iteration     100.00

 eigenvalues of (default mixing * dielectric matrix)
  average eigenvalue GAMMA=   0.5924
  0.9302  0.2546

 Free energy of the ion-electron system (eV)
  ---------------------------------------------------
  alpha Z        PSCENC =       975.10247152
  Ewald energy   TEWEN  =     91615.58153055
  -Hartree energ DENC   =   -120432.02283317
  -exchange      EXHF   =         0.00000000
  -V(xc)+E(xc)   XCENC  =       180.47351842
  PAW double counting   =     27385.77240327   -26433.59077477
  entropy T*S    EENTRO =        -0.07873808
  eigenvalues    EBANDS =      -793.36976664
  atomic energy  EATOM  =     27259.89416086
  Solvation  Ediel_sol  =         0.00000000
  ---------------------------------------------------
  free energy    TOTEN  =      -242.23802802 eV

  energy without entropy =     -242.15928994  energy(sigma->0) =     -242.21178200


--------------------------------------------------------------------------------------------------------




--------------------------------------- Iteration      1(   8)  ---------------------------------------


    POTLOK:  cpu time    0.1771: real time    0.1785
    SETDIJ:  cpu time    0.0114: real time    0.0114
    EDDIAG:  cpu time    2.0491: real time    2.0647
  RMM-DIIS:  cpu time    7.2501: real time    7.3079
    ORTHCH:  cpu time    0.2742: real time    0.2761
       DOS:  cpu time    0.0012: real time    0.0012
    CHARGE:  cpu time    0.8103: real time    0.8156
    MIXING:  cpu time    0.0053: real time    0.0053
    --------------------------------------------
      LOOP:  cpu time   10.5787: real time   10.6608

 eigenvalue-minimisations  :  1826
 total energy-change (2. order) :-0.2512055E+01  (-0.9521061E+00)
 number of electron     376.0000037 magnetization 
 augmentation part      112.0469329 magnetization 

 Broyden mixing:
  rms(total) = 0.22761E+01    rms(broyden)= 0.22759E+01
  rms(prec ) = 0.41553E+01
  weight for this iteration     100.00

 eigenvalues of (default mixing * dielectric matrix)
  average eigenvalue GAMMA=   0.5400
  1.1808  0.2889  0.1504

 Free energy of the ion-electron system (eV)
  ---------------------------------------------------
  alpha Z        PSCENC =       975.10247152
  Ewald energy   TEWEN  =     91615.58153055
  -Hartree energ DENC   =   -120376.32002052
  -exchange      EXHF   =         0.00000000
  -V(xc)+E(xc)   XCENC  =       179.40997713
  PAW double counting   =     28036.73626165   -27094.84850638
  entropy T*S    EENTRO =        -0.11615404
  eigenvalues    EBANDS =      -840.18980383
  atomic energy  EATOM  =     27259.89416086
  Solvation  Ediel_sol  =         0.00000000
  ---------------------------------------------------
  free energy    TOTEN  =      -244.75008306 eV

  energy without entropy =     -244.63392902  energy(sigma->0) =     -244.71136504


--------------------------------------------------------------------------------------------------------




--------------------------------------- Iteration      1(   9)  ---------------------------------------


    POTLOK:  cpu time    0.1756: real time    0.1769
    SETDIJ:  cpu time    0.0123: real time    0.0124
    EDDIAG:  cpu time    2.0198: real time    2.0356
  RMM-DIIS:  cpu time    7.2628: real time    7.3212
    ORTHCH:  cpu time    0.2799: real time    0.2818
       DOS:  cpu time    0.0012: real time    0.0012
    CHARGE:  cpu time    0.7478: real time    0.7533
    MIXING:  cpu time    0.0065: real time    0.0065
    --------------------------------------------
      LOOP:  cpu time   10.5059: real time   10.5888

 eigenvalue-minimisations  :  1831
 total energy-change (2. order) : 0.1291075E+02  (-0.4673942E+00)
 number of electron     376.0000041 magnetization 
 augmentation part      112.6676485 magnetization 

 Broyden mixing:
  rms(total) = 0.90270E+00    rms(broyden)= 0.90232E+00
  rms(prec ) = 0.12490E+01
  weight for this iteration     100.00

 eigenvalues of (default mixing * dielectric matrix)
  average eigenvalue GAMMA=   0.5229
  1.2903  0.3357  0.3357  0.1301

 Free energy of the ion-electron system (eV)
  ---------------------------------------------------
  alpha Z        PSCENC =       975.10247152
  Ewald energy   TEWEN  =     91615.58153055
  -Hartree energ DENC   =   -120331.17830911
  -exchange      EXHF   =         0.00000000
  -V(xc)+E(xc)   XCENC  =       178.79535621
  PAW double counting   =     28716.11451582   -27784.80340946
  entropy T*S    EENTRO =        -0.04720470
  eigenvalues    EBANDS =      -861.29844742
  atomic energy  EATOM  =     27259.89416086
  Solvation  Ediel_sol  =         0.00000000
  ---------------------------------------------------
  free energy    TOTEN  =      -231.83933572 eV

  energy without entropy =     -231.79213102  energy(sigma->0) =     -231.82360082


--------------------------------------------------------------------------------------------------------




--------------------------------------- Iteration      1(  10)  ---------------------------------------


    POTLOK:  cpu time    0.1750: real time    0.1765
    SETDIJ:  cpu time    0.0112: real time    0.0112
    EDDIAG:  cpu time    2.0836: real time    2.0993
  RMM-DIIS:  cpu time    7.1377: real time    7.1953
    ORTHCH:  cpu time    0.2715: real time    0.2731
       DOS:  cpu time    0.0011: real time    0.0011
    CHARGE:  cpu time    0.7357: real time    0.7414
    MIXING:  cpu time    0.0065: real time    0.0066
    --------------------------------------------
      LOOP:  cpu time   10.4223: real time   10.5045

 eigenvalue-minimisations  :  1831
 total energy-change (2. order) : 0.1117638E+01  (-0.1578315E+00)
 number of electron     376.0000038 magnetization 
 augmentation part      112.7596115 magnetization 

 Broyden mixing:
  rms(total) = 0.55357E+00    rms(broyden)= 0.55349E+00
  rms(prec ) = 0.71756E+00
  weight for this iteration     100.00

 eigenvalues of (default mixing * dielectric matrix)
  average eigenvalue GAMMA=   0.5449
  1.3971  0.5338  0.4129  0.1331  0.2477

 Free energy of the ion-electron system (eV)
  ---------------------------------------------------
  alpha Z        PSCENC =       975.10247152
  Ewald energy   TEWEN  =     91615.58153055
  -Hartree energ DENC   =   -120324.01396370
  -exchange      EXHF   =         0.00000000
  -V(xc)+E(xc)   XCENC  =       178.67825254
  PAW double counting   =     29037.74189092   -28110.81287630
  entropy T*S    EENTRO =        -0.00146851
  eigenvalues    EBANDS =      -862.89169560
  atomic energy  EATOM  =     27259.89416086
  Solvation  Ediel_sol  =         0.00000000
  ---------------------------------------------------
  free energy    TOTEN  =      -230.72169770 eV

  energy without entropy =     -230.72022919  energy(sigma->0) =     -230.72120819


--------------------------------------------------------------------------------------------------------




--------------------------------------- Iteration      1(  11)  ---------------------------------------


    POTLOK:  cpu time    0.1721: real time    0.1734
    SETDIJ:  cpu time    0.0112: real time    0.0112
    EDDIAG:  cpu time    2.1303: real time    2.1449
  RMM-DIIS:  cpu time    6.6304: real time    6.6849
    ORTHCH:  cpu time    0.2659: real time    0.2682
       DOS:  cpu time    0.0013: real time    0.0013
    CHARGE:  cpu time    0.6431: real time    0.6491
    MIXING:  cpu time    0.0055: real time    0.0056
    --------------------------------------------
      LOOP:  cpu time    9.8597: real time    9.9386

 eigenvalue-minimisations  :  1831
 total energy-change (2. order) : 0.4158087E+00  (-0.4802266E-01)
 number of electron     376.0000037 magnetization 
 augmentation part      112.8873011 magnetization 

 Broyden mixing:
  rms(total) = 0.32099E+00    rms(broyden)= 0.32072E+00
  rms(prec ) = 0.41223E+00
  weight for this iteration     100.00

 eigenvalues of (default mixing * dielectric matrix)
  average eigenvalue GAMMA=   0.5763
  1.5320  0.8149  0.3759  0.3759  0.1318  0.2273

 Free energy of the ion-electron system (eV)
  ---------------------------------------------------
  alpha Z        PSCENC =       975.10247152
  Ewald energy   TEWEN  =     91615.58153055
  -Hartree energ DENC   =   -120317.27489722
  -exchange      EXHF   =         0.00000000
  -V(xc)+E(xc)   XCENC  =       178.67864313
  PAW double counting   =     29349.39751315   -28426.45910325
  entropy T*S    EENTRO =        -0.03958120
  eigenvalues    EBANDS =      -865.18662661
  atomic energy  EATOM  =     27259.89416086
  Solvation  Ediel_sol  =         0.00000000
  ---------------------------------------------------
  free energy    TOTEN  =      -230.30588905 eV

  energy without entropy =     -230.26630785  energy(sigma->0) =     -230.29269531


--------------------------------------------------------------------------------------------------------




--------------------------------------- Iteration      1(  12)  ---------------------------------------


    POTLOK:  cpu time    0.1617: real time    0.1638
    SETDIJ:  cpu time    0.0111: real time    0.0112
    EDDIAG:  cpu time    2.0188: real time    2.0333
  RMM-DIIS:  cpu time    7.1438: real time    7.1988
    ORTHCH:  cpu time    0.2720: real time    0.2737
       DOS:  cpu time    0.0013: real time    0.0013
    CHARGE:  cpu time    0.5920: real time    0.5957
    MIXING:  cpu time    0.0063: real time    0.0063
    --------------------------------------------
      LOOP:  cpu time   10.2069: real time   10.2840

 eigenvalue-minimisations  :  1842
 total energy-change (2. order) : 0.1455669E+00  (-0.1918319E-01)
 number of electron     376.0000036 magnetization 
 augmentation part      112.9548012 magnetization 

 Broyden mixing:
  rms(total) = 0.21402E+00    rms(broyden)= 0.21396E+00
  rms(prec ) = 0.25778E+00
  weight for this iteration     100.00

 eigenvalues of (default mixing * dielectric matrix)
  average eigenvalue GAMMA=   0.6496
  1.8278  1.0327  0.5179  0.5179  0.1322  0.2729  0.2455

 Free energy of the ion-electron system (eV)
  ---------------------------------------------------
  alpha Z        PSCENC =       975.10247152
  Ewald energy   TEWEN  =     91615.58153055
  -Hartree energ DENC   =   -120306.82595929
  -exchange      EXHF   =         0.00000000
  -V(xc)+E(xc)   XCENC  =       178.63491182
  PAW double counting   =     29605.57301138   -28685.76243347
  entropy T*S    EENTRO =        -0.03565000
  eigenvalues    EBANDS =      -872.32236548
  atomic energy  EATOM  =     27259.89416086
  Solvation  Ediel_sol  =         0.00000000
  ---------------------------------------------------
  free energy    TOTEN  =      -230.16032210 eV

  energy without entropy =     -230.12467210  energy(sigma->0) =     -230.14843877


--------------------------------------------------------------------------------------------------------




--------------------------------------- Iteration      1(  13)  ---------------------------------------


    POTLOK:  cpu time    0.1736: real time    0.1749
    SETDIJ:  cpu time    0.0118: real time    0.0119
    EDDIAG:  cpu time    1.9513: real time    1.9657
  RMM-DIIS:  cpu time    7.0903: real time    7.1438
    ORTHCH:  cpu time    0.2728: real time    0.2746
       DOS:  cpu time    0.0013: real time    0.0013
    CHARGE:  cpu time    0.7691: real time    0.7744
    MIXING:  cpu time    0.0080: real time    0.0081
    --------------------------------------------
      LOOP:  cpu time   10.2783: real time   10.3547

 eigenvalue-minimisations  :  1832
 total energy-change (2. order) : 0.4569381E-03  (-0.1375115E-01)
 number of electron     376.0000036 magnetization 
 augmentation part      112.9689187 magnetization 

 Broyden mixing:
  rms(total) = 0.19864E+00    rms(broyden)= 0.19863E+00
  rms(prec ) = 0.24455E+00
  weight for this iteration     100.00

 eigenvalues of (default mixing * dielectric matrix)
  average eigenvalue GAMMA=   0.6881
  2.0794  1.0970  0.9245  0.1322  0.4141  0.3578  0.2740  0.2262

 Free energy of the ion-electron system (eV)
  ---------------------------------------------------
  alpha Z        PSCENC =       975.10247152
  Ewald energy   TEWEN  =     91615.58153055
  -Hartree energ DENC   =   -120304.60628011
  -exchange      EXHF   =         0.00000000
  -V(xc)+E(xc)   XCENC  =       178.53408651
  PAW double counting   =     29858.92870807   -28942.15399388
  entropy T*S    EENTRO =        -0.03043353
  eigenvalues    EBANDS =      -871.41011517
  atomic energy  EATOM  =     27259.89416086
  Solvation  Ediel_sol  =         0.00000000
  ---------------------------------------------------
  free energy    TOTEN  =      -230.15986516 eV

  energy without entropy =     -230.12943164  energy(sigma->0) =     -230.14972065


--------------------------------------------------------------------------------------------------------




--------------------------------------- Iteration      1(  14)  ---------------------------------------


    POTLOK:  cpu time    0.1770: real time    0.1784
    SETDIJ:  cpu time    0.0115: real time    0.0115
    EDDIAG:  cpu time    1.9768: real time    1.9908
  RMM-DIIS:  cpu time    7.0728: real time    7.1258
    ORTHCH:  cpu time    0.2663: real time    0.2681
       DOS:  cpu time    0.0012: real time    0.0012
    CHARGE:  cpu time    0.7657: real time    0.7714
    MIXING:  cpu time    0.0081: real time    0.0081
    --------------------------------------------
      LOOP:  cpu time   10.2793: real time   10.3555

 eigenvalue-minimisations  :  1832
 total energy-change (2. order) : 0.5192791E-01  (-0.8677978E-02)
 number of electron     376.0000036 magnetization 
 augmentation part      112.9517454 magnetization 

 Broyden mixing:
  rms(total) = 0.84270E-01    rms(broyden)= 0.84256E-01
  rms(prec ) = 0.99298E-01
  weight for this iteration     100.00

 eigenvalues of (default mixing * dielectric matrix)
  average eigenvalue GAMMA=   0.7313
  2.4098  1.2740  0.9383  0.5878  0.4313  0.1322  0.3227  0.2583  0.2269

 Free energy of the ion-electron system (eV)
  ---------------------------------------------------
  alpha Z        PSCENC =       975.10247152
  Ewald energy   TEWEN  =     91615.58153055
  -Hartree energ DENC   =   -120309.72352611
  -exchange      EXHF   =         0.00000000
  -V(xc)+E(xc)   XCENC  =       178.45309937
  PAW double counting   =     30033.96206870   -29119.22619514
  entropy T*S    EENTRO =        -0.02584100
  eigenvalues    EBANDS =      -864.12570602
  atomic energy  EATOM  =     27259.89416086
  Solvation  Ediel_sol  =         0.00000000
  ---------------------------------------------------
  free energy    TOTEN  =      -230.10793725 eV

  energy without entropy =     -230.08209625  energy(sigma->0) =     -230.09932358


--------------------------------------------------------------------------------------------------------




--------------------------------------- Iteration      1(  15)  ---------------------------------------


    POTLOK:  cpu time    0.1760: real time    0.1774
    SETDIJ:  cpu time    0.0123: real time    0.0123
    EDDIAG:  cpu time    1.9793: real time    1.9926
  RMM-DIIS:  cpu time    7.1114: real time    7.1649
    ORTHCH:  cpu time    0.2737: real time    0.2754
       DOS:  cpu time    0.0013: real time    0.0013
    CHARGE:  cpu time    0.6592: real time    0.6637
    MIXING:  cpu time    0.0077: real time    0.0077
    --------------------------------------------
      LOOP:  cpu time   10.2208: real time   10.2954

 eigenvalue-minimisations  :  1830
 total energy-change (2. order) : 0.6281369E-02  (-0.3402799E-02)
 number of electron     376.0000036 magnetization 
 augmentation part      112.9423059 magnetization 

 Broyden mixing:
  rms(total) = 0.60480E-01    rms(broyden)= 0.60422E-01
  rms(prec ) = 0.70914E-01
  weight for this iteration     100.00

 eigenvalues of (default mixing * dielectric matrix)
  average eigenvalue GAMMA=   0.7114
  2.4992  1.2800  0.7969  0.7969  0.4462  0.1322  0.3712  0.3102  0.2553  0.2263

 Free energy of the ion-electron system (eV)
  ---------------------------------------------------
  alpha Z        PSCENC =       975.10247152
  Ewald energy   TEWEN  =     91615.58153055
  -Hartree energ DENC   =   -120309.84288325
  -exchange      EXHF   =         0.00000000
  -V(xc)+E(xc)   XCENC  =       178.42582426
  PAW double counting   =     30132.79404777   -29219.11875926
  entropy T*S    EENTRO =        -0.02608117
  eigenvalues    EBANDS =      -862.91196718
  atomic energy  EATOM  =     27259.89416086
  Solvation  Ediel_sol  =         0.00000000
  ---------------------------------------------------
  free energy    TOTEN  =      -230.10165588 eV

  energy without entropy =     -230.07557471  energy(sigma->0) =     -230.09296216


--------------------------------------------------------------------------------------------------------




--------------------------------------- Iteration      1(  16)  ---------------------------------------


    POTLOK:  cpu time    0.1716: real time    0.1731
    SETDIJ:  cpu time    0.0096: real time    0.0097
    EDDIAG:  cpu time    1.8643: real time    1.8776
  RMM-DIIS:  cpu time    7.1520: real time    7.2067
    ORTHCH:  cpu time    0.2710: real time    0.2729
       DOS:  cpu time    0.0013: real time    0.0013
    CHARGE:  cpu time    0.8106: real time    0.8162
    MIXING:  cpu time    0.0076: real time    0.0077
    --------------------------------------------
      LOOP:  cpu time   10.2880: real time   10.3651

 eigenvalue-minimisations  :  1829
 total energy-change (2. order) : 0.4674735E-02  (-0.7358390E-03)
 number of electron     376.0000036 magnetization 
 augmentation part      112.9481380 magnetization 

 Broyden mixing:
  rms(total) = 0.26513E-01    rms(broyden)= 0.26501E-01
  rms(prec ) = 0.31878E-01
  weight for this iteration     100.00

 eigenvalues of (default mixing * dielectric matrix)
  average eigenvalue GAMMA=   0.6892
  2.5053  1.2727  0.8054  0.8054  0.5283  0.4312  0.1322  0.3111  0.3111  0.2264
  0.2523

 Free energy of the ion-electron system (eV)
  ---------------------------------------------------
  alpha Z        PSCENC =       975.10247152
  Ewald energy   TEWEN  =     91615.58153055
  -Hartree energ DENC   =   -120310.32893869
  -exchange      EXHF   =         0.00000000
  -V(xc)+E(xc)   XCENC  =       178.44007496
  PAW double counting   =     30151.44756532   -29237.94779165
  entropy T*S    EENTRO =        -0.02569728
  eigenvalues    EBANDS =      -862.26035675
  atomic energy  EATOM  =     27259.89416086
  Solvation  Ediel_sol  =         0.00000000
  ---------------------------------------------------
  free energy    TOTEN  =      -230.09698115 eV

  energy without entropy =     -230.07128387  energy(sigma->0) =     -230.08841539


--------------------------------------------------------------------------------------------------------




--------------------------------------- Iteration      1(  17)  ---------------------------------------


    POTLOK:  cpu time    0.1726: real time    0.1739
    SETDIJ:  cpu time    0.0118: real time    0.0118
    EDDIAG:  cpu time    2.0189: real time    2.0336
  RMM-DIIS:  cpu time    7.0654: real time    7.1191
    ORTHCH:  cpu time    0.2720: real time    0.2737
       DOS:  cpu time    0.0012: real time    0.0012
    CHARGE:  cpu time    0.8028: real time    0.8085
    MIXING:  cpu time    0.0085: real time    0.0086
    --------------------------------------------
      LOOP:  cpu time   10.3532: real time   10.4304

 eigenvalue-minimisations  :  1821
 total energy-change (2. order) : 0.5937626E-03  (-0.1738222E-03)
 number of electron     376.0000036 magnetization 
 augmentation part      112.9476559 magnetization 

 Broyden mixing:
  rms(total) = 0.16313E-01    rms(broyden)= 0.16309E-01
  rms(prec ) = 0.19721E-01
  weight for this iteration     100.00

 eigenvalues of (default mixing * dielectric matrix)
  average eigenvalue GAMMA=   0.7277
  2.4958  1.1584  1.1446  1.1446  0.7871  0.4486  0.1322  0.3666  0.3263  0.2258
  0.2589  0.2430

 Free energy of the ion-electron system (eV)
  ---------------------------------------------------
  alpha Z        PSCENC =       975.10247152
  Ewald energy   TEWEN  =     91615.58153055
  -Hartree energ DENC   =   -120310.77016787
  -exchange      EXHF   =         0.00000000
  -V(xc)+E(xc)   XCENC  =       178.44601100
  PAW double counting   =     30152.10256325   -29238.57881766
  entropy T*S    EENTRO =        -0.02709588
  eigenvalues    EBANDS =      -861.84704317
  atomic energy  EATOM  =     27259.89416086
  Solvation  Ediel_sol  =         0.00000000
  ---------------------------------------------------
  free energy    TOTEN  =      -230.09638738 eV

  energy without entropy =     -230.06929150  energy(sigma->0) =     -230.08735542


--------------------------------------------------------------------------------------------------------




--------------------------------------- Iteration      1(  18)  ---------------------------------------


    POTLOK:  cpu time    0.1780: real time    0.1793
    SETDIJ:  cpu time    0.0116: real time    0.0116
    EDDIAG:  cpu time    2.0313: real time    2.0456
  RMM-DIIS:  cpu time    7.0876: real time    7.1420
    ORTHCH:  cpu time    0.2729: real time    0.2745
       DOS:  cpu time    0.0012: real time    0.0012
    CHARGE:  cpu time    0.7551: real time    0.7603
    MIXING:  cpu time    0.0085: real time    0.0086
    --------------------------------------------
      LOOP:  cpu time   10.3462: real time   10.4232

 eigenvalue-minimisations  :  1800
 total energy-change (2. order) :-0.2938487E-03  (-0.9752946E-04)
 number of electron     376.0000036 magnetization 
 augmentation part      112.9447001 magnetization 

 Broyden mixing:
  rms(total) = 0.13507E-01    rms(broyden)= 0.13506E-01
  rms(prec ) = 0.16441E-01
  weight for this iteration     100.00

 eigenvalues of (default mixing * dielectric matrix)
  average eigenvalue GAMMA=   0.7471
  2.4672  1.7704  1.3584  0.8755  0.8755  0.1322  0.4444  0.4148  0.3421  0.3186
  0.2537  0.2254  0.2341

 Free energy of the ion-electron system (eV)
  ---------------------------------------------------
  alpha Z        PSCENC =       975.10247152
  Ewald energy   TEWEN  =     91615.58153055
  -Hartree energ DENC   =   -120311.78756695
  -exchange      EXHF   =         0.00000000
  -V(xc)+E(xc)   XCENC  =       178.45385918
  PAW double counting   =     30149.94338808   -29236.32933487
  entropy T*S    EENTRO =        -0.02599188
  eigenvalues    EBANDS =      -860.92919773
  atomic energy  EATOM  =     27259.89416086
  Solvation  Ediel_sol  =         0.00000000
  ---------------------------------------------------
  free energy    TOTEN  =      -230.09668123 eV

  energy without entropy =     -230.07068935  energy(sigma->0) =     -230.08801727


--------------------------------------------------------------------------------------------------------




--------------------------------------- Iteration      1(  19)  ---------------------------------------


    POTLOK:  cpu time    0.1719: real time    0.1733
    SETDIJ:  cpu time    0.0129: real time    0.0130
    EDDIAG:  cpu time    1.9719: real time    1.9849
  RMM-DIIS:  cpu time    5.8942: real time    5.9375
    ORTHCH:  cpu time    0.2748: real time    0.2766
       DOS:  cpu time    0.0012: real time    0.0012
    --------------------------------------------
      LOOP:  cpu time    8.3270: real time    8.3865

 eigenvalue-minimisations  :  1432
 total energy-change (2. order) :-0.3388811E-04  (-0.4769725E-04)
 number of electron     376.0000036 magnetization 
 augmentation part      112.9447001 magnetization 

 Free energy of the ion-electron system (eV)
  ---------------------------------------------------
  alpha Z        PSCENC =       975.10247152
  Ewald energy   TEWEN  =     91615.58153055
  -Hartree energ DENC   =   -120313.02151889
  -exchange      EXHF   =         0.00000000
  -V(xc)+E(xc)   XCENC  =       178.46109240
  PAW double counting   =     30148.35684774   -29234.67185811
  entropy T*S    EENTRO =        -0.02662059
  eigenvalues    EBANDS =      -859.77282062
  atomic energy  EATOM  =     27259.89416086
  Solvation  Ediel_sol  =         0.00000000
  ---------------------------------------------------
  free energy    TOTEN  =      -230.09671512 eV

  energy without entropy =     -230.07009453  energy(sigma->0) =     -230.08784159


--------------------------------------------------------------------------------------------------------




 average (electrostatic) potential at core
  the test charge radii are     0.6991  0.7215  1.2059
  (the norm of the test charge is              1.0000)
       1 -56.3236       2 -74.5448       3 -76.1890       4 -72.3434       5 -72.3233
       6 -72.3258       7 -72.3294       8 -72.3580       9 -72.3447      10 -72.3154
      11 -72.3612      12 -72.3304      13 -72.9003      14 -73.0198      15 -73.0359
      16 -73.0385      17 -73.0148      18 -72.9595      19 -72.9925      20 -73.0661
      21 -72.9155      22 -73.0215      23 -73.0032      24 -72.9555      25 -73.0503
      26 -72.9413      27 -73.0129      28 -72.9789      29 -72.9996      30 -72.8828
      31 -72.5117      32 -72.4066      33 -72.4742      34 -72.4203      35 -72.3001
      36 -73.4323      37 -72.6657      38 -73.2413      39 -72.3651
 
 
 
 E-fermi :   1.0765     XC(G=0):  -6.6115     alpha+bet : -6.8913


 k-point     1 :       0.0000    0.0000    0.0000
  band No.  band energies     occupation 
      1     -22.0870      2.00000
      2     -16.6370      2.00000
      3      -8.9953      2.00000
      4      -8.1414      2.00000
      5      -6.8404      2.00000
      6      -6.0140      2.00000
      7      -5.8831      2.00000
      8      -5.8479      2.00000
      9      -5.7385      2.00000
     10      -5.7003      2.00000
     11      -5.6537      2.00000
     12      -5.6116      2.00000
     13      -5.5942      2.00000
     14      -5.5854      2.00000
     15      -5.5018      2.00000
     16      -5.3630      2.00000
     17      -5.1490      2.00000
     18      -5.1108      2.00000
     19      -5.0850      2.00000
     20      -5.0735      2.00000
     21      -5.0376      2.00000
     22      -5.0087      2.00000
     23      -4.7057      2.00000
     24      -4.6523      2.00000
     25      -4.6027      2.00000
     26      -4.5737      2.00000
     27      -4.5416      2.00000
     28      -4.5150      2.00000
     29      -4.4203      2.00000
     30      -4.4032      2.00000
     31      -4.3947      2.00000
     32      -4.3790      2.00000
     33      -4.3239      2.00000
     34      -4.2870      2.00000
     35      -4.2050      2.00000
     36      -4.1759      2.00000
     37      -4.1378      2.00000
     38      -4.1181      2.00000
     39      -4.0961      2.00000
     40      -4.0818      2.00000
     41      -4.0747      2.00000
     42      -4.0527      2.00000
     43      -4.0334      2.00000
     44      -4.0218      2.00000
     45      -4.0123      2.00000
     46      -3.9820      2.00000
     47      -3.6453      2.00000
     48      -3.5799      2.00000
     49      -3.4946      2.00000
     50      -3.4754      2.00000
     51      -3.4426      2.00000
     52      -3.4392      2.00000
     53      -3.4293      2.00000
     54      -3.3987      2.00000
     55      -3.3766      2.00000
     56      -3.3565      2.00000
     57      -3.2858      2.00000
     58      -3.2182      2.00000
     59      -3.1922      2.00000
     60      -3.1551      2.00000
     61      -2.9993      2.00000
     62      -2.8977      2.00000
     63      -2.8150      2.00000
     64      -2.6682      2.00000
     65      -2.6356      2.00000
     66      -2.6225      2.00000
     67      -2.5765      2.00000
     68      -2.5525      2.00000
     69      -2.5008      2.00000
     70      -2.4761      2.00000
     71      -2.4556      2.00000
     72      -2.4483      2.00000
     73      -2.4359      2.00000
     74      -2.4221      2.00000
     75      -2.4064      2.00000
     76      -2.3966      2.00000
     77      -2.3759      2.00000
     78      -2.3587      2.00000
     79      -2.3554      2.00000
     80      -2.3400      2.00000
     81      -2.3151      2.00000
     82      -2.3032      2.00000
     83      -2.2945      2.00000
     84      -2.2613      2.00000
     85      -2.2421      2.00000
     86      -2.1861      2.00000
     87      -2.1517      2.00000
     88      -2.1396      2.00000
     89      -2.1063      2.00000
     90      -2.0956      2.00000
     91      -2.0425      2.00000
     92      -2.0382      2.00000
     93      -2.0088      2.00000
     94      -1.9529      2.00000
     95      -1.9399      2.00000
     96      -1.9185      2.00000
     97      -1.9080      2.00000
     98      -1.8663      2.00000
     99      -1.8378      2.00000
    100      -1.8188      2.00000
    101      -1.7505      2.00000
    102      -1.6514      2.00000
    103      -1.6468      2.00000
    104      -1.6141      2.00000
    105      -1.5814      2.00000
    106      -1.5588      2.00000
    107      -1.5550      2.00000
    108      -1.5404      2.00000
    109      -1.5129      2.00000
    110      -1.5080      2.00000
    111      -1.5035      2.00000
    112      -1.4869      2.00000
    113      -1.4616      2.00000
    114      -1.3318      2.00000
    115      -1.2849      2.00000
    116      -1.2155      2.00000
    117      -1.1813      2.00000
    118      -1.0911      2.00000
    119      -1.0557      2.00000
    120      -1.0351      2.00000
    121      -0.9954      2.00000
    122      -0.9620      2.00000
    123      -0.9436      2.00000
    124      -0.9043      2.00000
    125      -0.8664      2.00000
    126      -0.8514      2.00000
    127      -0.7993      2.00000
    128      -0.7774      2.00000
    129      -0.7220      2.00000
    130      -0.7073      2.00000
    131      -0.6892      2.00000
    132      -0.6608      2.00000
    133      -0.6353      2.00000
    134      -0.6108      2.00000
    135      -0.5333      2.00000
    136      -0.4853      2.00000
    137      -0.4445      2.00000
    138      -0.3895      2.00000
    139      -0.3817      2.00000
    140      -0.3672      2.00000
    141      -0.2793      2.00000
    142      -0.2476      2.00000
    143      -0.2303      2.00000
    144      -0.1874      2.00000
    145      -0.1743      2.00000
    146      -0.1437      2.00000
    147      -0.1227      2.00000
    148      -0.0526      2.00000
    149      -0.0053      2.00000
    150       0.0058      2.00000
    151       0.0365      2.00000
    152       0.0575      2.00000
    153       0.0847      2.00000
    154       0.1342      2.00000
    155       0.1421      2.00000
    156       0.1554      2.00000
    157       0.1980      2.00000
    158       0.2281      2.00000
    159       0.2386      2.00000
    160       0.2570      2.00000
    161       0.2855      2.00000
    162       0.3061      2.00000
    163       0.3141      2.00000
    164       0.3242      2.00000
    165       0.3724      2.00001
    166       0.3850      2.00001
    167       0.3950      2.00002
    168       0.4102      2.00003
    169       0.4520      2.00009
    170       0.4785      2.00020
    171       0.4924      2.00029
    172       0.5389      2.00096
    173       0.5737      2.00217
    174       0.6022      2.00404
    175       0.6123      2.00496
    176       0.6282      2.00680
    177       0.6356      2.00782
    178       0.6591      2.01195
    179       0.6684      2.01400
    180       0.6973      2.02207
    181       0.7061      2.02503
    182       0.7466      2.04161
    183       0.7860      2.05943
    184       0.7955      2.06319
    185       0.7980      2.06410
    186       0.8019      2.06543
    187       0.8048      2.06636
    188       0.8112      2.06815
    189       0.8143      2.06889
    190       0.8201      2.06999
    191       0.8335      2.07089
    192       0.8547      2.06609
    193       0.8765      2.05025
    194       0.8989      2.01847
    195       0.9361      1.92116
    196       1.0662      1.08698
    197       1.0859      0.92062
    198       1.1552      0.38768
    199       1.1786      0.24847
    200       1.1943      0.16988
    201       1.2110      0.10013
    202       1.2234      0.05730
    203       1.2529     -0.01643
    204       1.4284     -0.03206
    205       1.4896     -0.01286
    206       1.9280     -0.00000
    207       1.9941     -0.00000
    208       2.0337     -0.00000
    209       2.0631     -0.00000
    210       2.1860     -0.00000
    211       2.5459     -0.00000
    212       3.5716     -0.00000
    213       3.9985     -0.00000
    214       4.3344     -0.00000
    215       4.3647     -0.00000
    216       4.4244     -0.00000
    217       4.5984     -0.00000
    218       4.9231     -0.00000
    219       5.5031     -0.00000
    220       5.5633     -0.00000
    221       5.8577     -0.00000
    222       5.8689     -0.00000
    223       5.9007     -0.00000
    224       5.9186     -0.00000
    225       5.9685     -0.00000
    226       6.0770     -0.00000
    227       6.5492      0.00000
    228       6.8317      0.00000

 k-point     2 :       0.5000    0.0000    0.0000
  band No.  band energies     occupation 
      1     -22.0869      2.00000
      2     -16.6366      2.00000
      3      -8.9840      2.00000
      4      -7.2969      2.00000
      5      -7.2534      2.00000
      6      -6.1216      2.00000
      7      -6.0458      2.00000
      8      -5.9372      2.00000
      9      -5.8763      2.00000
     10      -5.7278      2.00000
     11      -5.5978      2.00000
     12      -5.4831      2.00000
     13      -5.4245      2.00000
     14      -5.2792      2.00000
     15      -5.0275      2.00000
     16      -4.9797      2.00000
     17      -4.9262      2.00000
     18      -4.8980      2.00000
     19      -4.8843      2.00000
     20      -4.8585      2.00000
     21      -4.8455      2.00000
     22      -4.8247      2.00000
     23      -4.8006      2.00000
     24      -4.7850      2.00000
     25      -4.7629      2.00000
     26      -4.7506      2.00000
     27      -4.6987      2.00000
     28      -4.6756      2.00000
     29      -4.6192      2.00000
     30      -4.5544      2.00000
     31      -4.4191      2.00000
     32      -4.3808      2.00000
     33      -4.3492      2.00000
     34      -4.3364      2.00000
     35      -4.2537      2.00000
     36      -4.1667      2.00000
     37      -4.0715      2.00000
     38      -4.0540      2.00000
     39      -4.0297      2.00000
     40      -4.0044      2.00000
     41      -3.9597      2.00000
     42      -3.9309      2.00000
     43      -3.8764      2.00000
     44      -3.8620      2.00000
     45      -3.7906      2.00000
     46      -3.7306      2.00000
     47      -3.6949      2.00000
     48      -3.6756      2.00000
     49      -3.6552      2.00000
     50      -3.6370      2.00000
     51      -3.4930      2.00000
     52      -3.4842      2.00000
     53      -3.4438      2.00000
     54      -3.3922      2.00000
     55      -3.3816      2.00000
     56      -3.3362      2.00000
     57      -3.2431      2.00000
     58      -3.2087      2.00000
     59      -3.1746      2.00000
     60      -3.1446      2.00000
     61      -3.1307      2.00000
     62      -3.1028      2.00000
     63      -3.0420      2.00000
     64      -3.0028      2.00000
     65      -2.9599      2.00000
     66      -2.9275      2.00000
     67      -2.9222      2.00000
     68      -2.9057      2.00000
     69      -2.8647      2.00000
     70      -2.8206      2.00000
[...]
     86      -2.1927      2.00000
     87      -2.1840      2.00000
     88      -2.1792      2.00000
     89      -2.1582      2.00000
     90      -2.1340      2.00000
     91      -2.1105      2.00000
     92      -2.0951      2.00000
     93      -2.0654      2.00000
     94      -1.9897      2.00000
     95      -1.9758      2.00000
     96      -1.9524      2.00000
     97      -1.8869      2.00000
     98      -1.8739      2.00000
     99      -1.8460      2.00000
    100      -1.8330      2.00000
    101      -1.7690      2.00000
    102      -1.7640      2.00000
    103      -1.7212      2.00000
    104      -1.7135      2.00000
    105      -1.6878      2.00000
    106      -1.6642      2.00000
    107      -1.6509      2.00000
    108      -1.6187      2.00000
    109      -1.6130      2.00000
    110      -1.5315      2.00000
    111      -1.5102      2.00000
    112      -1.4593      2.00000
    113      -1.4368      2.00000
    114      -1.3668      2.00000
    115      -1.2972      2.00000
    116      -1.2866      2.00000
    117      -1.2096      2.00000
    118      -1.1777      2.00000
    119      -1.1329      2.00000
    120      -1.0875      2.00000
    121      -1.0767      2.00000
    122      -1.0489      2.00000
    123      -1.0243      2.00000
    124      -1.0065      2.00000
    125      -0.9904      2.00000
    126      -0.9607      2.00000
    127      -0.9445      2.00000
    128      -0.9227      2.00000
    129      -0.9062      2.00000
    130      -0.8958      2.00000
    131      -0.8404      2.00000
    132      -0.8043      2.00000
    133      -0.7635      2.00000
    134      -0.7359      2.00000
    135      -0.7094      2.00000
    136      -0.6878      2.00000
    137      -0.6844      2.00000
    138      -0.6465      2.00000
    139      -0.5913      2.00000
    140      -0.5520      2.00000
    141      -0.4854      2.00000
    142      -0.4575      2.00000
    143      -0.3846      2.00000
    144      -0.2944      2.00000
    145      -0.2619      2.00000
    146      -0.1769      2.00000
    147      -0.1708      2.00000
    148      -0.1313      2.00000
    149      -0.0853      2.00000
    150      -0.0431      2.00000
    151      -0.0261      2.00000
    152       0.0554      2.00000
    153       0.0635      2.00000
    154       0.0927      2.00000
    155       0.1036      2.00000
    156       0.1152      2.00000
    157       0.1185      2.00000
    158       0.1753      2.00000
    159       0.2095      2.00000
    160       0.2138      2.00000
    161       0.2524      2.00000
    162       0.3003      2.00000
    163       0.3248      2.00000
    164       0.3534      2.00000
    165       0.3811      2.00000
    166       0.4129      2.00001
    167       0.5366      2.00040
    168       0.5856      2.00137
    169       0.6022      2.00201
    170       0.6266      2.00344
    171       0.6453      2.00506
    172       0.6827      2.01032
    173       0.7078      2.01581
    174       0.7932      2.04831
    175       0.8013      2.05206
    176       0.8202      2.06034
    177       0.8605      2.07085
    178       0.8750      2.06982
    179       0.9200      2.03610
    180       0.9451      1.98838
    181       0.9505      1.97484
    182       1.0309      1.60456
    183       1.0662      1.34890
    184       1.1015      1.05923
    185       1.1094      0.99218
    186       1.1117      0.97296
    187       1.1325      0.79842
    188       1.1596      0.58277
    189       1.1754      0.46707
    190       1.1940      0.34408
    191       1.3098     -0.05165
    192       1.3376     -0.06876
    193       1.3754     -0.06773
    194       1.4015     -0.05834
    195       1.4365     -0.04245
    196       1.5144     -0.01450
    197       1.5939     -0.00319
    198       1.7371     -0.00008
    199       1.8310     -0.00000
    200       1.9946     -0.00000
    201       2.2540     -0.00000
    202       2.3495     -0.00000
    203       2.8091     -0.00000
    204       2.9458     -0.00000
    205       2.9667     -0.00000
    206       2.9984     -0.00000
    207       3.0154     -0.00000
    208       3.2154     -0.00000
    209       3.3792     -0.00000
    210       3.5225     -0.00000
    211       3.5707     -0.00000
    212       3.6010     -0.00000
    213       3.7262     -0.00000
    214       3.8303     -0.00000
    215       3.9668     -0.00000
    216       4.1613     -0.00000
    217       4.2434     -0.00000
    218       4.4028     -0.00000
    219       4.4379     -0.00000
    220       4.6095     -0.00000
    221       4.6447     -0.00000
    222       4.8268     -0.00000
    223       5.1689     -0.00000
    224       5.5535     -0.00000
    225       5.7826     -0.00000
    226       6.5311     -0.00000
    227       6.5848      0.00000
    228       6.7385      0.00000


--------------------------------------------------------------------------------------------------------


 soft charge-density along one line, spin component           1
         0         1         2         3         4         5         6         7         8         9
 total charge-density along one line
 
 pseudopotential strength for first ion, spin component:           1
 10.096   0.015   0.004   0.010   0.000  -0.004  -0.009   0.000
  0.015  -0.002  -0.000  -0.000  -0.000  -0.000  -0.000   0.000
  0.004  -0.000  -4.246  -0.006   0.001  -0.010  -0.002   0.000
  0.010  -0.000  -0.006  -4.261   0.002  -0.002  -0.016   0.000
  0.000  -0.000   0.001   0.002  -4.244   0.000   0.000  -0.009
 -0.004  -0.000  -0.010  -0.002   0.000  -0.770  -0.000   0.000
 -0.009  -0.000  -0.002  -0.016   0.000  -0.000  -0.770   0.000
  0.000   0.000   0.000   0.000  -0.009   0.000   0.000  -0.770
 total augmentation occupancy for first ion, spin component:           1
  1.644  -0.860  -0.003  -0.006  -0.045   0.033   0.081  -0.020
 -0.860   1.194  -0.217  -0.533   0.079  -0.086  -0.224   0.027
 -0.003  -0.217   0.855   0.204   0.007   0.115   0.055  -0.003
 -0.006  -0.533   0.204   1.315  -0.006   0.056   0.246  -0.007
 -0.045   0.079   0.007  -0.006   0.782  -0.003  -0.007   0.096
  0.033  -0.086   0.115   0.056  -0.003   0.020   0.022  -0.002
  0.081  -0.224   0.055   0.246  -0.007   0.022   0.070  -0.005
 -0.020   0.027  -0.003  -0.007   0.096  -0.002  -0.005   0.013


------------------------ aborting loop because EDIFF is reached ----------------------------------------


    CHARGE:  cpu time    0.8696: real time    0.8755
    FORLOC:  cpu time    0.0548: real time    0.0551
    FORNL :  cpu time    3.4614: real time    3.4857
    STRESS:  cpu time   10.3417: real time   10.4152
    FORCOR:  cpu time    0.2083: real time    0.2096
    FORHAR:  cpu time    0.0874: real time    0.0880
    MIXING:  cpu time    0.0061: real time    0.0061
    OFIELD:  cpu time    0.0000: real time    0.0000

  FORCE on cell =-STRESS in cart. coord.  units (eV):
  Direction    XX          YY          ZZ          XY          YZ          ZX
  --------------------------------------------------------------------------------------
  Alpha Z   975.10247   975.10247   975.10247
  Ewald  111361.60095111397.94070************  -181.21573   260.66739   -79.55707
  Hartree118127.94505118119.07076************  -120.98557   108.03504   -45.20079
  E(xc)   -1666.08036 -1665.73695 -1673.35184    -0.39837     0.72219    -0.19810
  Local  ************************240225.52258   292.91941  -343.20834   118.93617
  n-local   124.54746   123.78010    91.59508    -1.41121     1.78348    -0.37259
  augment  1895.64993  1893.21330  1932.24561     2.58157    -4.81750     1.13223
  Kinetic  5525.72874  5513.88559  5598.76281     8.74983   -22.65517     6.08444
  Fock        0.00000     0.00000     0.00000     0.00000     0.00000     0.00000
  -------------------------------------------------------------------------------------
  Total     -35.44342   -38.10560    -3.09485     0.23991     0.52709     0.82429
  in kB     -42.21370   -45.38440    -3.68602     0.28574     0.62777     0.98174
  external pressure =      -30.43 kB  Pullay stress =        0.00 kB


 VOLUME and BASIS-vectors are now :
 -----------------------------------------------------------------------------
  energy-cutoff  :      450.00
  volume of cell :     1345.22
      direct lattice vectors                 reciprocal lattice vectors
     7.296955120 -4.212899000  0.000000000     0.137043463  0.000000000  0.000000000
     0.000000000  8.425798000  0.000000000     0.068521732  0.118683121  0.000000000
     0.000000000  0.000000000 21.879635000     0.000000000  0.000000000  0.045704602

  length of vectors
     8.425798004  8.425798000 21.879635000     0.137043463  0.137043463  0.045704602


 FORCES acting on ions
    electron-ion (+dipol)            ewald-force                    non-local-force                 convergence-correction
 -----------------------------------------------------------------------------------------------
   0.141E+02 0.204E+02 -.888E+03   -.148E+02 -.253E+02 0.877E+03   0.269E+00 0.446E+01 0.113E+02   -.181E-02 -.768E-02 0.381E-02
   -.743E+02 0.366E+02 -.161E+04   0.732E+02 -.310E+02 0.163E+04   0.162E+01 -.526E+01 -.244E+02   0.194E-02 0.138E-01 0.158E-01
   0.509E+02 -.103E+03 -.156E+04   -.570E+02 0.125E+03 0.161E+04   0.631E+01 -.214E+02 -.574E+02   0.164E-01 -.870E-02 0.812E-02
   0.173E+00 0.145E+00 0.234E+04   -.166E+00 -.991E-01 -.234E+04   0.725E-02 -.420E-01 -.120E+01   0.168E-01 -.506E-01 0.862E-02
   0.176E+00 0.411E+00 0.234E+04   -.159E+00 -.427E+00 -.234E+04   -.150E-01 -.338E-01 -.111E+01   -.350E-01 0.664E-02 0.581E-03
   -.707E-01 -.572E-02 0.234E+04   0.214E-01 0.298E-02 -.234E+04   0.255E-01 -.845E-02 -.114E+01   -.408E-02 0.529E-02 -.913E-03
   0.118E+00 -.163E+00 0.234E+04   -.113E+00 0.160E+00 -.234E+04   -.226E-02 0.182E-01 -.117E+01   0.187E-02 0.397E-01 0.535E-02
   0.133E+00 -.142E+00 0.234E+04   -.165E+00 0.163E+00 -.234E+04   0.103E-01 0.197E-01 -.128E+01   0.139E-01 -.185E-01 0.147E-02
   -.394E+00 0.807E-01 0.234E+04   0.388E+00 -.127E+00 -.234E+04   0.155E-01 0.942E-02 -.121E+01   0.173E-01 0.361E-01 0.400E-02
   0.275E+00 -.418E+00 0.234E+04   -.154E+00 0.266E+00 -.234E+04   -.764E-01 0.948E-01 -.111E+01   -.304E-01 0.117E-01 -.648E-02
   -.241E+00 -.485E-01 0.234E+04   0.224E+00 0.122E+00 -.234E+04   -.114E-01 -.183E-01 -.126E+01   0.330E-01 -.415E-01 0.215E-04
   -.896E-01 0.671E-01 0.234E+04   0.123E+00 -.613E-01 -.234E+04   -.152E-01 -.213E-02 -.104E+01   -.133E-01 0.110E-01 0.627E-02
   -.557E+00 -.118E+01 0.858E+03   0.501E+00 0.112E+01 -.857E+03   0.102E+00 0.369E-01 -.433E+00   -.422E-01 0.247E-01 -.356E-01
   -.394E+00 -.177E+01 0.863E+03   0.248E+00 0.180E+01 -.863E+03   0.130E+00 0.814E-01 -.256E+00   0.151E-01 -.172E-01 -.899E-02
   0.227E+00 0.803E+00 0.861E+03   -.135E+00 -.892E+00 -.861E+03   -.422E-01 0.333E-01 -.331E+00   0.203E-01 -.186E-01 -.265E-01
   0.202E+01 0.154E+01 0.864E+03   -.205E+01 -.157E+01 -.864E+03   -.386E-01 0.295E-01 -.395E+00   -.457E-02 -.157E-01 0.404E-03
   -.840E+00 0.352E+01 0.863E+03   0.809E+00 -.353E+01 -.863E+03   0.444E-01 -.757E-01 -.318E+00   -.692E-02 0.363E-01 -.206E-03
   0.106E+01 -.148E+01 0.861E+03   -.107E+01 0.149E+01 -.861E+03   -.574E-01 0.502E-01 -.256E+00   0.198E-01 -.913E-02 0.137E-01
   0.135E+01 0.613E-01 0.862E+03   -.135E+01 0.965E-01 -.861E+03   -.266E-01 -.118E+00 -.346E+00   -.149E-01 -.854E-02 -.106E-01
   -.194E+01 -.199E+01 0.864E+03   0.194E+01 0.203E+01 -.864E+03   0.411E-01 0.539E-01 -.425E+00   0.166E-01 -.205E-01 -.174E-01
   -.814E+00 0.939E+00 0.860E+03   0.862E+00 -.824E+00 -.859E+03   0.124E-01 -.844E-01 -.272E+00   -.317E-02 0.279E-01 -.377E-01
   -.148E+01 -.177E+01 -.634E+03   0.137E+01 0.174E+01 0.633E+03   0.172E+00 0.315E-01 0.419E+00   -.156E-01 -.125E-01 0.151E-01
   0.264E+01 0.228E+01 -.635E+03   -.265E+01 -.213E+01 0.634E+03   -.394E-01 -.276E+00 0.416E+00   0.343E-02 -.189E-01 -.775E-02
   -.407E+01 0.219E+01 -.643E+03   0.378E+01 -.186E+01 0.643E+03   0.253E+00 -.309E+00 0.358E+00   0.400E-01 -.532E-03 -.458E-01
   -.177E+01 0.106E+02 -.634E+03   0.130E+01 -.991E+01 0.635E+03   0.437E+00 -.638E+00 -.381E+00   -.585E-02 0.240E-01 -.571E-01
   0.130E+02 0.236E+01 -.639E+03   -.123E+02 -.252E+01 0.639E+03   -.729E+00 0.420E-01 -.227E+00   0.180E-01 0.430E-01 0.187E-01
   -.220E+01 -.661E+01 -.631E+03   0.212E+01 0.648E+01 0.631E+03   -.361E-01 0.658E-01 0.380E+00   -.293E-02 -.103E-01 -.130E-01
   -.398E+01 -.242E+01 -.639E+03   0.402E+01 0.240E+01 0.639E+03   0.192E-01 0.670E-01 0.344E+00   -.125E-01 0.378E-02 -.281E-01
   0.541E+00 -.126E+01 -.619E+03   -.519E+00 0.125E+01 0.618E+03   0.350E-01 -.545E-01 0.580E+00   -.139E-01 0.870E-02 -.574E-01
   -.539E+01 -.134E+01 -.638E+03   0.534E+01 0.119E+01 0.638E+03   0.233E+00 0.118E+00 0.104E+00   -.129E-01 -.811E-02 0.422E-01
   -.137E+02 -.796E+01 -.214E+04   0.144E+02 0.830E+01 0.214E+04   -.801E+00 -.280E+00 0.148E+01   -.185E-02 -.167E-01 -.339E-01
   0.167E+02 0.308E+02 -.216E+04   -.172E+02 -.314E+02 0.215E+04   0.369E+00 0.662E+00 0.126E+01   0.846E-02 0.772E-02 0.295E-01
   0.293E+02 -.442E+01 -.212E+04   -.297E+02 0.449E+01 0.212E+04   0.382E+00 -.116E+00 0.129E+01   0.144E-01 0.120E-01 -.323E-03
   -.811E+01 0.319E+01 -.217E+04   0.803E+01 -.357E+01 0.217E+04   0.249E-01 0.445E+00 0.107E+01   0.480E-03 -.103E-01 0.361E-02
   0.221E+02 0.109E+02 -.219E+04   -.222E+02 -.114E+02 0.219E+04   -.717E-01 0.560E+00 0.853E+00   0.188E-01 0.361E-02 0.446E-01
   0.606E+02 0.572E+02 -.197E+04   -.633E+02 -.558E+02 0.198E+04   0.256E+01 -.117E+01 -.332E+01   0.386E-01 -.165E-01 0.235E-01
   -.523E+02 -.486E+02 -.207E+04   0.537E+02 0.511E+02 0.207E+04   -.132E+01 -.252E+01 0.237E+01   -.389E-01 -.224E-01 -.392E-01
   -.629E+02 0.884E+02 -.203E+04   0.631E+02 -.890E+02 0.203E+04   -.208E+00 0.522E+00 -.141E+01   -.543E-02 0.384E-01 -.226E-01
   0.105E+02 -.611E+02 -.213E+04   -.104E+02 0.625E+02 0.213E+04   -.252E-01 -.132E+01 0.119E+01   -.209E-02 -.291E-01 0.367E-01
 -----------------------------------------------------------------------------------------------
   -.956E+01 0.265E+02 0.775E+02   -.181E-12 0.711E-13 0.273E-11   0.956E+01 -.264E+02 -.773E+02   0.472E-01 -.769E-02 -.167E+00
 
 
 POSITION                                       TOTAL-FORCE (eV/Angst)
 -----------------------------------------------------------------------------------
      5.03499      0.65632     10.32774        -0.452512     -0.409255      0.142920
      6.70978     -0.57999     10.14813         0.561512      0.367808      0.150857
      4.92349      1.06302     11.41091         0.253508     -0.043147     -0.054133
      7.20031     -1.38846      1.62732         0.029767     -0.050576      0.129613
      2.33567      1.42014      1.62732        -0.034677     -0.046467      0.146825
      4.76799      0.01584      1.62732        -0.029117     -0.009588      0.139265
      7.20031      1.42015      1.62732         0.002911      0.051601      0.125425
      2.33567      4.22875      1.62732        -0.008795      0.018680      0.126800
      4.76799      2.82445      1.62732         0.025785     -0.004207      0.143634
      2.33567      7.03734      1.62732         0.012483     -0.049431      0.057572
      4.76799      5.63304      1.62732         0.003901      0.010049      0.129597
      7.20031      4.22874      1.62732         0.003497      0.010998      0.037796
      1.52490      0.01584      3.92052         0.002555     -0.008168     -0.110782
      3.95722     -1.38846      3.92052        -0.002313      0.093186     -0.062458
      6.38953     -2.79276      3.92052         0.069169     -0.077529     -0.116410
      1.52490      2.82445      3.92052        -0.079962     -0.023865     -0.171089
      3.95722      1.42015      3.92052         0.005159     -0.045136     -0.062007
      6.38953      0.01585      3.92052        -0.050037      0.049495      0.023029
      1.52490      5.63305      3.92052        -0.039196      0.027982     -0.140461
      3.95722      4.22874      3.92052         0.065625      0.069238     -0.149006
      6.38953      2.82445      3.92052         0.056128      0.054795     -0.148462
      0.70271      4.21174      6.19477         0.042865     -0.011463     -0.019504
      3.15524      5.64844      6.18861        -0.042419     -0.152134     -0.052600
      5.57279     -1.38629      6.20631        -0.005409      0.017783      0.202485
      0.69236      1.43137      6.20143        -0.038797      0.066264      0.125367
      3.16227      0.00629      6.21776        -0.065734     -0.078183     -0.181709
      0.72733      7.03104      6.18870        -0.119097     -0.080512      0.007516
      5.57770      4.21655      6.19977         0.041097      0.050615     -0.096349
      3.14554      2.82446      6.16541         0.042565     -0.060078      0.184911
      5.56370      1.41633      6.21612         0.166892     -0.044119     -0.183678
      2.39063      4.21224      8.43399        -0.106361      0.043997      0.102966
      4.78369      5.59628      8.48954        -0.068349      0.041971     -0.161083
      2.33497      1.39821      8.44447        -0.048350     -0.038649      0.052776
      7.22594      4.17465      8.49081        -0.056838      0.051098      0.035824
      2.34873      6.98110      8.53317        -0.122370      0.037610     -0.225216
      4.67409      0.01391      8.58200        -0.118475      0.295302     -0.030519
      7.25569      1.42736      8.45590         0.042183     -0.064059      0.097201
      7.26514     -1.50531      8.57649        -0.008439     -0.079375      0.101412
      4.78293      2.84533      8.51189         0.069643      0.017470     -0.298325
 -----------------------------------------------------------------------------------
    total drift:                                0.048998      0.143951      0.012862
  FORCES: max atom, RMS     0.687994    0.200918
  Number: max atom                 2
  FORCE total and by dimension    1.254731    0.561512


--------------------------------------------------------------------------------------------------------



  FREE ENERGIE OF THE ION-ELECTRON SYSTEM (eV)
  ---------------------------------------------------
  free  energy   TOTEN  =      -230.68571410 eV

  energy  without entropy=     -230.65426422  energy(sigma->0) =     -230.67523080
 
 d Force = 0.5677433E-01[ 0.512E-01, 0.623E-01]  d Energy = 0.5685005E-01-0.757E-04
 d Force =-0.6357092E+01[-0.617E+01,-0.655E+01]  d Ewald  =-0.6357216E+01 0.124E-03


--------------------------------------------------------------------------------------------------------


    POTLOK:  cpu time    0.1847: real time    0.2355


--------------------------------------------------------------------------------------------------------


 stress matrix after NEB project (eV)
    -35.44342      0.23991      0.82429
      0.23991    -38.10560      0.52709
      0.82429      0.52709     -3.09485
  FORCES: max atom, RMS     0.687994    0.200918
  FORCE total and by dimension    1.254731    0.561512
  Stress total and by dimension   52.152477   38.105604
 Quasi-Newton relaxation of ions (Broydens 2nd method)
  g(Force)  = 0.304E-01   g(Stress)= 0.000E+00

 retain information from N=  3 steps
 eigenvalues of (default step * inverse Hessian matrix)
  average eigenvalue of G=   2.4588
 eigenvalue spectrum of G is  1.9981  0.5872  4.7911
  RESET_HESSIAN           0


--------------------------------------------------------------------------------------------------------


    WAVPRE:  cpu time    0.0736: real time    0.2524
    FEWALD:  cpu time    0.0016: real time    0.0016

 real space projection operators:
  total allocation   :      13542.72 KBytes
  max/ min on nodes  :       6777.91       6764.81

    ORTHCH:  cpu time    1.4660: real time    1.4877
     LOOP+:  cpu time  106.4451: real time  107.6101


--------------------------------------- Iteration      6(   1)  ---------------------------------------


