 running on    8 total cores
 distrk:  each k-point on    8 cores,    1 groups
 distr:  one band on    2 cores,    4 groups
 using from now: INCAR     
 vasp.5.4.4 16052018 (build Apr 24 2014 20:13:14) complex standard
 Contain Constrained Minimization Technique (TS), Periodic NBO, VASPsol, libbeef, VASP2WANNIER90, Constrained Cell Relaxation
 POSCAR found type information on POSCAR  C  O  Pt
 POSCAR found :  3 types and      39 ions
 scaLAPACK will be used
 LDA part: xc-table for Pade appr. of Perdew
 POSCAR found type information on POSCAR  C  O  Pt
 POSCAR found :  3 types and      39 ions
 POSCAR, INCAR and KPOINTS ok, starting setup
 FFT: planning ...
 WAVECAR not read
 entering main loop
       N       E                     dE             d eps       ncg     rms          rms(c)
DAV:   1     0.242298155682E+04    0.24230E+04   -0.15954E+05  1824   0.129E+03
DAV:   2    -0.629286474445E+02   -0.24859E+04   -0.23099E+04  2120   0.286E+02
DAV:   3    -0.240766653570E+03   -0.17784E+03   -0.16120E+03  2160   0.691E+01
DAV:   4    -0.248586780575E+03   -0.78201E+01   -0.75402E+01  2336   0.138E+01
DAV:   5    -0.248814249415E+03   -0.22747E+00   -0.22548E+00  2384   0.243E+00    0.276E+01
RMM:   6    -0.246596813808E+03    0.22174E+01   -0.55960E+01  1828   0.150E+01    0.302E+01
RMM:   7    -0.242238028023E+03    0.43588E+01   -0.33612E+01  1831   0.914E+00    0.202E+01
RMM:   8    -0.244750083058E+03   -0.25121E+01   -0.95211E+00  1826   0.476E+00    0.228E+01
RMM:   9    -0.231839335718E+03    0.12911E+02   -0.46739E+00  1831   0.354E+00    0.903E+00
RMM:  10    -0.230721697698E+03    0.11176E+01   -0.15783E+00  1831   0.203E+00    0.554E+00
RMM:  11    -0.230305889047E+03    0.41581E+00   -0.48023E-01  1831   0.110E+00    0.321E+00
RMM:  12    -0.230160322099E+03    0.14557E+00   -0.19183E-01  1842   0.686E-01    0.214E+00
RMM:  13    -0.230159865161E+03    0.45694E-03   -0.13751E-01  1832   0.617E-01    0.199E+00
RMM:  14    -0.230107937251E+03    0.51928E-01   -0.86780E-02  1832   0.516E-01    0.843E-01
RMM:  15    -0.230101655882E+03    0.62814E-02   -0.34028E-02  1830   0.323E-01    0.605E-01
RMM:  16    -0.230096981147E+03    0.46747E-02   -0.73584E-03  1829   0.147E-01    0.265E-01
RMM:  17    -0.230096387385E+03    0.59376E-03   -0.17382E-03  1821   0.714E-02    0.163E-01
RMM:  18    -0.230096681233E+03   -0.29385E-03   -0.97529E-04  1800   0.534E-02    0.135E-01
RMM:  19    -0.230096715121E+03   -0.33888E-04   -0.47697E-04  1432   0.386E-02
   1 F= -.23009672E+03 E0= -.23008784E+03  d E =-.230097E+03
 BRION: g(F)=  0.297E+00 g(S)=  0.000E+00
 bond charge predicted
       N       E                     dE             d eps       ncg     rms          rms(c)
DAV:   1    -0.230305968558E+03   -0.20929E+00   -0.30601E+01  1856   0.989E+00    0.617E-01
RMM:   2    -0.230358661843E+03   -0.52693E-01   -0.49148E-01  1834   0.154E+00    0.907E-01
RMM:   3    -0.230351473001E+03    0.71888E-02   -0.35788E-02  1863   0.339E-01    0.624E-01
RMM:   4    -0.230351913486E+03   -0.44049E-03   -0.57199E-03  1891   0.127E-01    0.627E-01
RMM:   5    -0.230346854270E+03    0.50592E-02   -0.22788E-03  1842   0.778E-02    0.329E-01
RMM:   6    -0.230345946823E+03    0.90745E-03   -0.27532E-03  1830   0.867E-02    0.235E-01
RMM:   7    -0.230346049010E+03   -0.10219E-03   -0.45922E-03  1830   0.115E-01    0.206E-01
RMM:   8    -0.230345491302E+03    0.55771E-03   -0.13058E-03  1816   0.622E-02    0.816E-02
RMM:   9    -0.230345429169E+03    0.62132E-04   -0.20424E-04  1028   0.263E-02
   2 F= -.23034543E+03 E0= -.23033609E+03  d E =-.248714E+00
 BRION: g(F)=  0.163E+00 g(S)=  0.000E+00 retain N=  1 mean eig= 1.67
 eig:   1.672
 bond charge predicted
       N       E                     dE             d eps       ncg     rms          rms(c)
DAV:   1    -0.230428856982E+03   -0.83366E-01   -0.42756E+01  1824   0.121E+01    0.849E-01
RMM:   2    -0.230521431911E+03   -0.92575E-01   -0.85550E-01  1835   0.192E+00    0.128E+00
RMM:   3    -0.230516391671E+03    0.50402E-02   -0.50580E-02  1881   0.397E-01    0.116E+00
RMM:   4    -0.230502692077E+03    0.13700E-01   -0.13008E-02  1848   0.193E-01    0.696E-01
RMM:   5    -0.230496441461E+03    0.62506E-02   -0.70733E-03  1843   0.140E-01    0.463E-01
RMM:   6    -0.230495375080E+03    0.10664E-02   -0.88838E-03  1831   0.157E-01    0.387E-01
RMM:   7    -0.230493831743E+03    0.15433E-02   -0.56239E-03  1833   0.128E-01    0.251E-01
RMM:   8    -0.230492941495E+03    0.89025E-03   -0.15733E-03  1822   0.682E-02    0.101E-01
RMM:   9    -0.230492854821E+03    0.86674E-04   -0.26550E-04  1066   0.304E-02
   3 F= -.23049285E+03 E0= -.23048274E+03  d E =-.147426E+00
 BRION: g(F)=  0.381E+00 g(S)=  0.000E+00 retain N=  2 mean eig= 1.38
 eig:   1.376  1.376
 bond charge predicted
       N       E                     dE             d eps       ncg     rms          rms(c)
DAV:   1    -0.230593796122E+03   -0.10085E+00   -0.21707E+01  1832   0.871E+00    0.609E-01
RMM:   2    -0.230648981285E+03   -0.55185E-01   -0.47162E-01  1846   0.140E+00    0.111E+00
RMM:   3    -0.230641789662E+03    0.71916E-02   -0.25877E-02  1872   0.285E-01    0.832E-01
RMM:   4    -0.230633532463E+03    0.82572E-02   -0.68840E-03  1849   0.143E-01    0.476E-01
RMM:   5    -0.230631202917E+03    0.23295E-02   -0.30323E-03  1837   0.911E-02    0.363E-01
RMM:   6    -0.230630566139E+03    0.63678E-03   -0.58746E-03  1830   0.129E-01    0.309E-01
RMM:   7    -0.230629453321E+03    0.11128E-02   -0.36650E-03  1829   0.103E-01    0.181E-01
RMM:   8    -0.230629030837E+03    0.42248E-03   -0.10110E-03  1812   0.546E-02    0.943E-02
RMM:   9    -0.230628903498E+03    0.12734E-03   -0.20069E-04  1027   0.260E-02    0.514E-02
RMM:  10    -0.230628864048E+03    0.39451E-04   -0.70338E-05   962   0.169E-02
   4 F= -.23062886E+03 E0= -.23061842E+03  d E =-.136009E+00
 BRION: g(F)=  0.417E-01 g(S)=  0.000E+00 retain N=  2 mean eig= 0.57
 eig:   0.575  0.575
 bond charge predicted
       N       E                     dE             d eps       ncg     rms          rms(c)
DAV:   1    -0.230671314466E+03   -0.42411E-01   -0.90196E+00  1832   0.590E+00    0.399E-01
RMM:   2    -0.230689544601E+03   -0.18230E-01   -0.16879E-01  1832   0.839E-01    0.440E-01
RMM:   3    -0.230692567581E+03   -0.30230E-02   -0.10721E-02  1865   0.184E-01    0.651E-01
RMM:   4    -0.230687580656E+03    0.49869E-02   -0.28524E-03  1835   0.890E-02    0.356E-01
RMM:   5    -0.230686023758E+03    0.15569E-02   -0.13963E-03  1821   0.635E-02    0.165E-01
RMM:   6    -0.230686209360E+03   -0.18560E-03   -0.12930E-03  1814   0.595E-02    0.194E-01
RMM:   7    -0.230685973171E+03    0.23619E-03   -0.10927E-03  1812   0.554E-02    0.137E-01
RMM:   8    -0.230685727594E+03    0.24558E-03   -0.29839E-04  1154   0.308E-02    0.332E-02
RMM:   9    -0.230685714096E+03    0.13498E-04   -0.57324E-05   951   0.144E-02
   5 F= -.23068571E+03 E0= -.23067523E+03  d E =-.568500E-01
 BRION: g(F)=  0.304E-01 g(S)=  0.000E+00 retain N=  3 mean eig= 2.46
 eig:   1.998  0.587  4.791
 bond charge predicted
       N       E                     dE             d eps       ncg     rms          rms(c)
[mpiexec@node11] Sending Ctrl-C to processes as requested
[mpiexec@node11] Press Ctrl-C again to force abort
