<?xml version="1.0" encoding="ISO-8859-1"?>
<modeling>
 <generator>
  <i name="program" type="string"> vasp </i>
  <i name="version" type="string">5.4.4  </i>
  <i name="subversion" type="string">16052018 (build Apr 24 2014 20:13:14) complex standard parallel Constrained Minimization Technique (TS), Periodic NBO, VASPsol, libbeef, VASP2WANNIER90, Constrained Cell Relaxation </i>
  <i name="platform" type="string">Center for Computational Chemistry </i>
  <i name="user" type="string">phu </i>
  <i name="host" type="string">node11 </i>
  <i name="date" type="string">2025 11 24 </i>
  <i name="time" type="string">22:09:29 </i>
 </generator>
 <incar>
  <i type="string" name="SYSTEM"> metal</i>
  <i type="int" name="ISTART">     0</i>
  <i type="string" name="PREC">normal</i>
  <i type="string" name="ALGO">Fast</i>
  <i type="int" name="NSIM">     4</i>
  <i type="int" name="ISPIN">     1</i>
  <i type="int" name="NELMIN">     8</i>
  <i type="int" name="IBRION">     1</i>
  <i name="EDIFFG">     -0.05000000</i>
  <i type="int" name="NSW">  5000</i>
  <i type="int" name="ISIF">     2</i>
  <i type="int" name="ISYM">     0</i>
  <i name="ENCUT">    450.00000000</i>
  <i name="POTIM">      0.20000000</i>
  <i type="string" name="LREAL">A</i>
  <i type="int" name="ISMEAR">     1</i>
  <i name="SIGMA">      0.20000000</i>
  <i type="logical" name="LWAVE"> F  </i>
  <i type="logical" name="LCHARG"> F  </i>
  <v type="int" name="KPOINT_BSE">    -1     0     0     0</v>
  <i type="int" name="VOSKOWN">     0</i>
 </incar>
 <structure name="primitive_cell" >
  <crystal>
   <varray name="basis" >
    <v>       7.29695512      -4.21289900       0.00000000 </v>
    <v>       0.00000000       8.42579800       0.00000000 </v>
    <v>       0.00000000       0.00000000      21.87963500 </v>
   </varray>
   <i name="volume">   1345.21837528 </i>
   <varray name="rec_basis" >
    <v>       0.13704346       0.00000000       0.00000000 </v>
    <v>       0.06852173       0.11868312       0.00000000 </v>
    <v>       0.00000000       0.00000000       0.04570460 </v>
   </varray>
  </crystal>
  <varray name="positions" >
   <v>      -0.30225994       0.43266783       0.47093270 </v>
   <v>      -0.33039648       0.45952371      -0.47917877 </v>
   <v>      -0.35366449       0.32252615       0.39389210 </v>
   <v>      -0.08861800       0.38483633       0.46429163 </v>
   <v>      -0.34407532      -0.33464838       0.39081178 </v>
   <v>      -0.00850852      -0.33659541       0.38325602 </v>
   <v>       0.31785650       0.32627628       0.38631890 </v>
   <v>      -0.00151916       0.32019273       0.38936750 </v>
   <v>       0.32320799      -0.01147184       0.39162064 </v>
   <v>      -0.34299228      -0.00832586       0.38872155 </v>
   <v>      -0.23827400      -0.45266224       0.28796659 </v>
   <v>      -0.00937289      -0.01039662       0.38803141 </v>
   <v>       0.43417018       0.22192118       0.28543268 </v>
   <v>      -0.23125693       0.21445556       0.28131231 </v>
   <v>       0.32723934      -0.33582010       0.38369601 </v>
   <v>       0.09453732      -0.45028332       0.28658391 </v>
   <v>       0.42921097      -0.44603633       0.27845542 </v>
   <v>      -0.23887577      -0.11285822       0.28403689 </v>
   <v>       0.10246919      -0.11604232       0.28406937 </v>
   <v>       0.43481519      -0.11464150       0.28370986 </v>
   <v>       0.09086431       0.21516163       0.28174384 </v>
   <v>      -0.45768900       0.43970300       0.17918600 </v>
   <v>      -0.12435600       0.43970300       0.17918600 </v>
   <v>      -0.45768900       0.10636900       0.17918600 </v>
   <v>      -0.12435600      -0.22696400       0.17918600 </v>
   <v>       0.20897700       0.10636900       0.17918600 </v>
   <v>      -0.45768900      -0.22696400       0.17918600 </v>
   <v>      -0.12435600       0.10636900       0.17918600 </v>
   <v>       0.20897700      -0.22696400       0.17918600 </v>
   <v>       0.20897700       0.43970300       0.17918600 </v>
   <v>      -0.34657800       0.32859100       0.07437600 </v>
   <v>      -0.34657800      -0.33807500       0.07437600 </v>
   <v>      -0.01324500      -0.33807500       0.07437600 </v>
   <v>       0.32008800       0.32859100       0.07437600 </v>
   <v>      -0.01324500       0.32859100       0.07437600 </v>
   <v>       0.32008800      -0.00474200       0.07437600 </v>
   <v>      -0.34657800      -0.00474200       0.07437600 </v>
   <v>      -0.01324500      -0.00474200       0.07437600 </v>
   <v>       0.32008800      -0.33807500       0.07437600 </v>
  </varray>
 </structure>
 <varray name="primitive_index" >
  <v type="int" >        1 </v>
  <v type="int" >        3 </v>
  <v type="int" >       36 </v>
  <v type="int" >        2 </v>
  <v type="int" >       39 </v>
  <v type="int" >       37 </v>
  <v type="int" >       33 </v>
  <v type="int" >       38 </v>
  <v type="int" >       35 </v>
  <v type="int" >       32 </v>
  <v type="int" >       30 </v>
  <v type="int" >       34 </v>
  <v type="int" >       26 </v>
  <v type="int" >       24 </v>
  <v type="int" >       31 </v>
  <v type="int" >       22 </v>
  <v type="int" >       29 </v>
  <v type="int" >       28 </v>
  <v type="int" >       27 </v>
  <v type="int" >       23 </v>
  <v type="int" >       25 </v>
  <v type="int" >       17 </v>
  <v type="int" >       18 </v>
  <v type="int" >       14 </v>
  <v type="int" >       21 </v>
  <v type="int" >       13 </v>
  <v type="int" >       20 </v>
  <v type="int" >       15 </v>
  <v type="int" >       19 </v>
  <v type="int" >       16 </v>
  <v type="int" >        6 </v>
  <v type="int" >        9 </v>
  <v type="int" >        7 </v>
  <v type="int" >        5 </v>
  <v type="int" >        4 </v>
  <v type="int" >       10 </v>
  <v type="int" >       11 </v>
  <v type="int" >       12 </v>
  <v type="int" >        8 </v>
 </varray>
 <kpoints>
  <generation param="Gamma">
   <v type="int" name="divisions">       2        2        1 </v>
   <v name="usershift">      0.00000000       0.00000000       0.00000000 </v>
   <v name="genvec1">      0.50000000       0.00000000       0.00000000 </v>
   <v name="genvec2">     -0.00000000       0.50000000       0.00000000 </v>
   <v name="genvec3">      0.00000000       0.00000000       1.00000000 </v>
   <v name="shift">      0.00000000       0.00000000       0.00000000 </v>
  </generation>
  <varray name="kpointlist" >
   <v>       0.00000000       0.00000000       0.00000000 </v>
   <v>       0.50000000       0.00000000       0.00000000 </v>
   <v>      -0.00000000       0.50000000       0.00000000 </v>
   <v>       0.50000000       0.50000000       0.00000000 </v>
  </varray>
  <varray name="weights" >
   <v>       0.25000000 </v>
   <v>       0.25000000 </v>
   <v>       0.25000000 </v>
   <v>       0.25000000 </v>
  </varray>
 </kpoints>
 <parameters>
  <separator name="general" >
   <i type="string" name="SYSTEM">metal</i>
   <i type="logical" name="LCOMPAT"> F  </i>
  </separator>
  <separator name="electronic" >
   <i type="string" name="PREC">normal</i>
   <i name="ENMAX">    450.00000000</i>
   <i name="ENAUG">    644.87300000</i>
   <i name="EDIFF">      0.00010000</i>
   <i type="int" name="IALGO">    68</i>
   <i type="int" name="IWAVPR">    11</i>
   <i type="int" name="NBANDS">   228</i>
   <i name="NELECT">    376.00000000</i>
   <i type="int" name="TURBO">     0</i>
   <i type="int" name="IRESTART">     0</i>
   <i type="int" name="NREBOOT">     0</i>
   <i type="int" name="NMIN">     0</i>
   <i name="EREF">      0.00000000</i>
   <separator name="electronic smearing" >
    <i type="int" name="ISMEAR">     1</i>
    <i name="SIGMA">      0.20000000</i>
    <i name="KSPACING">      0.50000000</i>
    <i type="logical" name="KGAMMA"> T  </i>
   </separator>
   <separator name="electronic projectors" >
    <i type="logical" name="LREAL"> T  </i>
    <v name="ROPT">     -0.00050000     -0.00050000     -0.00050000</v>
    <i type="int" name="LMAXPAW">  -100</i>
    <i type="int" name="LMAXMIX">     2</i>
    <i type="logical" name="NLSPLINE"> F  </i>
   </separator>
   <separator name="electronic startup" >
    <i type="int" name="ISTART">     0</i>
    <i type="int" name="ICHARG">     2</i>
    <i type="int" name="INIWAV">     1</i>
   </separator>
   <separator name="electronic spin" >
    <i type="int" name="ISPIN">     1</i>
    <i type="logical" name="LNONCOLLINEAR"> F  </i>
    <v name="MAGMOM">      1.00000000      1.00000000      1.00000000      1.00000000      1.00000000      1.00000000      1.00000000      1.00000000      1.00000000      1.00000000      1.00000000      1.00000000      1.00000000      1.00000000      1.00000000      1.00000000      1.00000000      1.00000000      1.00000000      1.00000000
      1.00000000      1.00000000      1.00000000      1.00000000      1.00000000      1.00000000      1.00000000      1.00000000      1.00000000      1.00000000      1.00000000      1.00000000      1.00000000      1.00000000      1.00000000      1.00000000      1.00000000      1.00000000      1.00000000</v>
    <i name="NUPDOWN">     -1.00000000</i>
    <i type="logical" name="LSORBIT"> F  </i>
    <v name="SAXIS">      0.00000000      0.00000000      1.00000000</v>
    <i type="logical" name="LSPIRAL"> F  </i>
    <v name="QSPIRAL">      0.00000000      0.00000000      0.00000000</v>
    <i type="logical" name="LZEROZ"> F  </i>
   </separator>
   <separator name="electronic exchange-correlation" >
    <i type="logical" name="LASPH"> F  </i>
    <i type="logical" name="LMETAGGA"> F  </i>
   </separator>
   <separator name="electronic convergence" >
    <i type="int" name="NELM">    60</i>
    <i type="int" name="NELMDL">    -5</i>
    <i type="int" name="NELMIN">     8</i>
    <i name="ENINI">    450.00000000</i>
    <separator name="electronic convergence detail" >
     <i type="logical" name="LDIAG"> T  </i>
     <i type="logical" name="LSUBROT"> F  </i>
     <i name="WEIMIN">      0.00100000</i>
     <i name="EBREAK">      0.00000011</i>
     <i name="DEPER">      0.30000000</i>
     <i type="int" name="NRMM">     4</i>
     <i name="TIME">      0.40000000</i>
    </separator>
   </separator>
   <separator name="electronic mixer" >
    <i name="AMIX">      0.40000000</i>
    <i name="BMIX">      1.00000000</i>
    <i name="AMIN">      0.10000000</i>
    <i name="AMIX_MAG">      1.60000000</i>
    <i name="BMIX_MAG">      1.00000000</i>
    <separator name="electronic mixer details" >
     <i type="int" name="IMIX">     4</i>
     <i type="logical" name="MIXFIRST"> F  </i>
     <i type="int" name="MAXMIX">   -45</i>
     <i name="WC">    100.00000000</i>
     <i type="int" name="INIMIX">     1</i>
     <i type="int" name="MIXPRE">     1</i>
     <i type="int" name="MREMOVE">     5</i>
    </separator>
   </separator>
   <separator name="electronic dipolcorrection" >
    <i type="logical" name="LDIPOL"> F  </i>
    <i type="logical" name="LMONO"> F  </i>
    <i type="int" name="IDIPOL">     0</i>
    <i name="EPSILON">      1.00000000</i>
    <v name="DIPOL">   -100.00000000   -100.00000000   -100.00000000</v>
    <i name="EFIELD">      0.00000000</i>
   </separator>
  </separator>
  <separator name="grids" >
   <i type="int" name="NGX">    48</i>
   <i type="int" name="NGY">    48</i>
   <i type="int" name="NGZ">   120</i>
   <i type="int" name="NGXF">    96</i>
   <i type="int" name="NGYF">    96</i>
   <i type="int" name="NGZF">   240</i>
   <i type="logical" name="ADDGRID"> F  </i>
  </separator>
  <separator name="ionic" >
   <i type="int" name="NSW">  5000</i>
   <i type="int" name="IBRION">     1</i>
   <i type="int" name="MDALGO">     0</i>
   <i type="int" name="ISIF">     2</i>
   <i name="PSTRESS">      0.00000000</i>
   <i name="EDIFFG">     -0.05000000</i>
   <i type="int" name="NFREE">     0</i>
   <i name="POTIM">      0.20000000</i>
   <i name="SMASS">     -3.00000000</i>
   <i name="SCALEE">      1.00000000</i>
  </separator>
  <separator name="ionic md" >
   <i name="TEBEG">      0.00010000</i>
   <i name="TEEND">      0.00010000</i>
   <i type="int" name="NBLOCK">     1</i>
   <i type="int" name="KBLOCK">  5000</i>
   <i type="int" name="NPACO">   256</i>
   <i name="APACO">     16.00000000</i>
  </separator>
  <separator name="symmetry" >
   <i type="int" name="ISYM">     0</i>
   <i name="SYMPREC">      0.00001000</i>
  </separator>
  <separator name="dos" >
   <i type="int" name="LORBIT">     0</i>
   <v name="RWIGS">     -1.00000000     -1.00000000     -1.00000000</v>
   <i type="int" name="NEDOS">   301</i>
   <i name="EMIN">     10.00000000</i>
   <i name="EMAX">    -10.00000000</i>
   <i name="EFERMI">      0.00000000</i>
  </separator>
  <separator name="writing" >
   <i type="int" name="NWRITE">     2</i>
   <i type="logical" name="LWAVE"> F  </i>
   <i type="logical" name="LDOWNSAMPLE"> F  </i>
   <i type="logical" name="LCHARG"> F  </i>
   <i type="logical" name="LPARD"> F  </i>
   <i type="logical" name="LVTOT"> F  </i>
   <i type="logical" name="LVHAR"> F  </i>
   <i type="logical" name="LELF"> F  </i>
   <i type="logical" name="LOPTICS"> F  </i>
   <v name="STM">      0.00000000      0.00000000      0.00000000      0.00000000      0.00000000      0.00000000      0.00000000</v>
  </separator>
  <separator name="performance" >
   <i type="int" name="NPAR">     4</i>
   <i type="int" name="NSIM">     4</i>
   <i type="int" name="NBLK">    -1</i>
   <i type="logical" name="LPLANE"> T  </i>
   <i type="logical" name="LSCALAPACK"> T  </i>
   <i type="logical" name="LSCAAWARE"> F  </i>
   <i type="logical" name="LSCALU"> F  </i>
   <i type="logical" name="LASYNC"> F  </i>
   <i type="logical" name="LORBITALREAL"> F  </i>
  </separator>
  <separator name="miscellaneous" >
   <i type="int" name="IDIOT">     3</i>
   <i type="int" name="ISPECIAL">     0</i>
   <i type="logical" name="LMUSIC"> F  </i>
   <v name="POMASS">     12.01100000     16.00000000    195.08000000</v>
   <v name="DARWINR">      0.00000000      0.00000000      0.00000000</v>
   <v name="DARWINV">      1.00000000      1.00000000      1.00000000</v>
   <i type="logical" name="LCORR"> T  </i>
  </separator>
  <i type="logical" name="GGA_COMPAT"> T  </i>
  <i type="logical" name="LBERRY"> F  </i>
  <i type="int" name="ICORELEVEL">     0</i>
  <i type="logical" name="LDAU"> F  </i>
  <i type="int" name="I_CONSTRAINED_M">     0</i>
  <separator name="electronic exchange-correlation" >
   <i type="string" name="GGA">--</i>
   <i type="int" name="VOSKOWN">     0</i>
   <i type="logical" name="LHFCALC"> F  </i>
   <i type="string" name="PRECFOCK"></i>
   <i type="logical" name="LSYMGRAD"> F  </i>
   <i type="logical" name="LHFONE"> F  </i>
   <i type="logical" name="LRHFCALC"> F  </i>
   <i type="logical" name="LTHOMAS"> F  </i>
   <i type="logical" name="LMODELHF"> F  </i>
   <i name="ENCUT4O">     -1.00000000</i>
   <i type="int" name="EXXOEP">     0</i>
   <i type="int" name="FOURORBIT">     0</i>
   <i name="AEXX">      0.00000000</i>
   <i name="HFALPHA">      0.00000000</i>
   <i name="MCALPHA">      0.00000000</i>
   <i name="ALDAX">      1.00000000</i>
   <i name="AGGAX">      1.00000000</i>
   <i name="ALDAC">      1.00000000</i>
   <i name="AGGAC">      1.00000000</i>
   <i type="int" name="NKREDX">     1</i>
   <i type="int" name="NKREDY">     1</i>
   <i type="int" name="NKREDZ">     1</i>
   <i type="logical" name="SHIFTRED"> F  </i>
   <i type="logical" name="ODDONLY"> F  </i>
   <i type="logical" name="EVENONLY"> F  </i>
   <i type="int" name="LMAXFOCK">     0</i>
   <i type="int" name="NMAXFOCKAE">     0</i>
   <i type="logical" name="LFOCKAEDFT"> F  </i>
   <i name="HFSCREEN">      0.00000000</i>
   <i name="HFSCREENC">      0.00000000</i>
   <i type="int" name="NBANDSGWLOW">     0</i>
  </separator>
  <separator name="vdW DFT" >
   <i type="logical" name="LUSE_VDW"> F  </i>
   <i name="Zab_VDW">     -0.84910000</i>
   <i name="PARAM1">      0.12340000</i>
   <i name="PARAM2">      1.00000000</i>
   <i name="PARAM3">      0.00000000</i>
  </separator>
  <separator name="model GW" >
   <i type="int" name="MODEL_GW">     0</i>
   <i name="MODEL_EPS0">     20.69566731</i>
   <i name="MODEL_ALPHA">      1.00000000</i>
  </separator>
  <separator name="linear response parameters" >
   <i type="logical" name="LEPSILON"> F  </i>
   <i type="logical" name="LRPA"> F  </i>
   <i type="logical" name="LNABLA"> F  </i>
   <i type="logical" name="LVEL"> F  </i>
   <i type="int" name="KINTER">     0</i>
   <i name="CSHIFT">      0.10000000</i>
   <i name="OMEGAMAX">     -1.00000000</i>
   <i name="DEG_THRESHOLD">      0.00200000</i>
   <i name="RTIME">     -0.10000000</i>
   <i name="WPLASMAI">      0.00000000</i>
   <v name="DFIELD">      0.00000000      0.00000000      0.00000000</v>
   <v name="WPLASMA">      0.00000000      0.00000000      0.00000000      0.00000000      0.00000000      0.00000000      0.00000000      0.00000000      0.00000000</v>
  </separator>
  <separator name="orbital magnetization" >
   <i type="logical" name="NUCIND"> F  </i>
   <v name="MAGPOS">      0.00000000      0.00000000      0.00000000</v>
   <i type="logical" name="LNICSALL"> T  </i>
   <i type="logical" name="ORBITALMAG"> F  </i>
   <i type="logical" name="LMAGBLOCH"> F  </i>
   <i type="logical" name="LCHIMAG"> F  </i>
   <i type="logical" name="LGAUGE"> T  </i>
   <i type="int" name="MAGATOM">     0</i>
   <v name="MAGDIPOL">      0.00000000      0.00000000      0.00000000</v>
   <v name="AVECCONST">      0.00000000      0.00000000      0.00000000</v>
  </separator>
  <separator name="response functions" >
   <i type="logical" name="LADDER"> F  </i>
   <i type="logical" name="LRPAFORCE"> F  </i>
   <i type="logical" name="LFXC"> F  </i>
   <i type="logical" name="LHARTREE"> T  </i>
   <i type="int" name="IBSE">     0</i>
   <v type="int" name="KPOINT">    -1     0     0     0</v>
   <i type="logical" name="LTCTE"> F  </i>
   <i type="logical" name="LTETE"> F  </i>
   <i type="logical" name="LTRIPLET"> F  </i>
   <i type="logical" name="LFXCEPS"> F  </i>
   <i type="logical" name="LFXHEG"> F  </i>
   <i type="int" name="NATURALO">     2</i>
   <i type="logical" name="L2ORDER"> F  </i>
   <i type="logical" name="LMP2LT"> F  </i>
   <i type="logical" name="LUSEW"> F  </i>
   <i name="ENCUTGW">     -2.00000000</i>
   <i name="ENCUTGWSOFT">     -2.00000000</i>
   <i name="ENCUTLF">     -1.00000000</i>
   <i type="int" name="LMAXMP2">    -1</i>
   <i name="SCISSOR">      0.00000000</i>
   <i type="int" name="NOMEGA">     0</i>
   <i type="int" name="NOMEGAR">     0</i>
   <i type="int" name="NBANDSGW">    -1</i>
   <i type="int" name="NBANDSO">    -1</i>
   <i type="int" name="NBANDSV">    -1</i>
   <i type="int" name="NELM">     1</i>
   <i type="int" name="NELMHF">     1</i>
   <i type="int" name="DIM">     3</i>
   <i type="int" name="ANTIRES">     0</i>
   <i name="OMEGAMAX">    -30.00000000</i>
   <i name="OMEGAMIN">    -30.00000000</i>
   <i name="OMEGATL">   -200.00000000</i>
   <i type="int" name="OMEGAGRID">   140</i>
   <i name="CSHIFT">     -0.10000000</i>
   <i type="logical" name="SELFENERGY"> F  </i>
   <i type="logical" name="LSPECTRAL"> F  </i>
   <i type="logical" name="LSPECTRALGW"> F  </i>
   <i type="logical" name="LSINGLES"> F  </i>
   <i type="logical" name="LFERMIGW"> F  </i>
   <i type="logical" name="ODDONLYGW"> F  </i>
   <i type="logical" name="EVENONLYGW"> F  </i>
   <i type="int" name="NKREDLFX">     1</i>
   <i type="int" name="NKREDLFY">     1</i>
   <i type="int" name="NKREDLFZ">     1</i>
   <i type="int" name="MAXMEM">  2800</i>
   <i type="int" name="TELESCOPE">     0</i>
   <i type="int" name="TAUPAR">     1</i>
   <i type="int" name="OMEGAPAR">    -1</i>
   <i name="LAMBDA">      1.00000000</i>
  </separator>
  <separator name="External order field" >
   <i name="OFIELD_KAPPA">      0.00000000</i>
   <v name="OFIELD_K">      0.00000000      0.00000000      0.00000000</v>
   <i name="OFIELD_Q6_NEAR">      0.00000000</i>
   <i name="OFIELD_Q6_FAR">      0.00000000</i>
   <i name="OFIELD_A">      0.00000000</i>
  </separator>
  <separator name="solvation model" >
   <i type="logical" name="LSOL"> F  </i>
  </separator>
 </parameters>
 <atominfo>
  <atoms>      39 </atoms>
  <types>       3 </types>
  <array name="atoms" >
   <dimension dim="1">ion</dimension>
   <field type="string">element</field>
   <field type="int">atomtype</field>
   <set>
    <rc><c>C </c><c>   1</c></rc>
    <rc><c>O </c><c>   2</c></rc>
    <rc><c>O </c><c>   2</c></rc>
    <rc><c>Pt</c><c>   3</c></rc>
    <rc><c>Pt</c><c>   3</c></rc>
    <rc><c>Pt</c><c>   3</c></rc>
    <rc><c>Pt</c><c>   3</c></rc>
    <rc><c>Pt</c><c>   3</c></rc>
    <rc><c>Pt</c><c>   3</c></rc>
    <rc><c>Pt</c><c>   3</c></rc>
    <rc><c>Pt</c><c>   3</c></rc>
    <rc><c>Pt</c><c>   3</c></rc>
    <rc><c>Pt</c><c>   3</c></rc>
    <rc><c>Pt</c><c>   3</c></rc>
    <rc><c>Pt</c><c>   3</c></rc>
    <rc><c>Pt</c><c>   3</c></rc>
    <rc><c>Pt</c><c>   3</c></rc>
    <rc><c>Pt</c><c>   3</c></rc>
    <rc><c>Pt</c><c>   3</c></rc>
    <rc><c>Pt</c><c>   3</c></rc>
    <rc><c>Pt</c><c>   3</c></rc>
    <rc><c>Pt</c><c>   3</c></rc>
    <rc><c>Pt</c><c>   3</c></rc>
    <rc><c>Pt</c><c>   3</c></rc>
    <rc><c>Pt</c><c>   3</c></rc>
    <rc><c>Pt</c><c>   3</c></rc>
    <rc><c>Pt</c><c>   3</c></rc>
    <rc><c>Pt</c><c>   3</c></rc>
    <rc><c>Pt</c><c>   3</c></rc>
    <rc><c>Pt</c><c>   3</c></rc>
    <rc><c>Pt</c><c>   3</c></rc>
    <rc><c>Pt</c><c>   3</c></rc>
    <rc><c>Pt</c><c>   3</c></rc>
    <rc><c>Pt</c><c>   3</c></rc>
    <rc><c>Pt</c><c>   3</c></rc>
    <rc><c>Pt</c><c>   3</c></rc>
    <rc><c>Pt</c><c>   3</c></rc>
    <rc><c>Pt</c><c>   3</c></rc>
    <rc><c>Pt</c><c>   3</c></rc>
   </set>
  </array>
  <array name="atomtypes" >
   <dimension dim="1">type</dimension>
   <field type="int">atomspertype</field>
   <field type="string">element</field>
   <field>mass</field>
   <field>valence</field>
   <field type="string">pseudopotential</field>
   <set>
    <rc><c>   1</c><c>C </c><c>     12.01100000</c><c>      4.00000000</c><c> PAW_PBE C 08Apr2002                    </c></rc>
    <rc><c>   2</c><c>O </c><c>     16.00000000</c><c>      6.00000000</c><c> PAW_PBE O 08Apr2002                    </c></rc>
    <rc><c>  36</c><c>Pt</c><c>    195.08000000</c><c>     10.00000000</c><c>  PAW_PBE Pt 04Feb2005                  </c></rc>
   </set>
  </array>
 </atominfo>
 <structure name="initialpos" >
  <crystal>
   <varray name="basis" >
    <v>       7.29695512      -4.21289900       0.00000000 </v>
    <v>       0.00000000       8.42579800       0.00000000 </v>
    <v>       0.00000000       0.00000000      21.87963500 </v>
   </varray>
   <i name="volume">   1345.21837528 </i>
   <varray name="rec_basis" >
    <v>       0.13704346       0.00000000       0.00000000 </v>
    <v>       0.06852173       0.11868312       0.00000000 </v>
    <v>       0.00000000       0.00000000       0.04570460 </v>
   </varray>
  </crystal>
  <varray name="positions" >
   <v>       0.69774006       0.43266783       0.47093270 </v>
   <v>       0.91138200       0.38483633       0.46429163 </v>
   <v>       0.66960352       0.45952371       0.52082123 </v>
   <v>       0.98675500       0.32859100       0.07437600 </v>
   <v>       0.32008800       0.32859100       0.07437600 </v>
   <v>       0.65342200       0.32859100       0.07437600 </v>
   <v>       0.98675500       0.66192500       0.07437600 </v>
   <v>       0.32008800       0.66192500       0.07437600 </v>
   <v>       0.65342200       0.66192500       0.07437600 </v>
   <v>       0.32008800       0.99525800       0.07437600 </v>
   <v>       0.65342200       0.99525800       0.07437600 </v>
   <v>       0.98675500       0.99525800       0.07437600 </v>
   <v>       0.20897700       0.10636900       0.17918600 </v>
   <v>       0.54231100       0.10636900       0.17918600 </v>
   <v>       0.87564400       0.10636900       0.17918600 </v>
   <v>       0.20897700       0.43970300       0.17918600 </v>
   <v>       0.54231100       0.43970300       0.17918600 </v>
   <v>       0.87564400       0.43970300       0.17918600 </v>
   <v>       0.20897700       0.77303600       0.17918600 </v>
   <v>       0.54231100       0.77303600       0.17918600 </v>
   <v>       0.87564400       0.77303600       0.17918600 </v>
   <v>       0.09453732       0.54971668       0.28658391 </v>
   <v>       0.43481519       0.88535850       0.28370986 </v>
   <v>       0.76874307       0.21445556       0.28131231 </v>
   <v>       0.09086431       0.21516163       0.28174384 </v>
   <v>       0.43417018       0.22192118       0.28543268 </v>
   <v>       0.10246919       0.88395768       0.28406937 </v>
   <v>       0.76112423       0.88714178       0.28403689 </v>
   <v>       0.42921097       0.55396367       0.27845542 </v>
   <v>       0.76172600       0.54733776       0.28796659 </v>
   <v>       0.32723934       0.66417990       0.38369601 </v>
   <v>       0.65700772       0.99167414       0.38872155 </v>
   <v>       0.31785650       0.32627628       0.38631890 </v>
   <v>       0.99062711       0.98960338       0.38803141 </v>
   <v>       0.32320799       0.98852816       0.39162064 </v>
   <v>       0.64633551       0.32252615       0.39389210 </v>
   <v>       0.99149148       0.66340459       0.38325602 </v>
   <v>       0.99848084       0.32019273       0.38936750 </v>
   <v>       0.65592468       0.66535162       0.39081178 </v>
  </varray>
  <varray name="selective"  type="logical" >
   <v type="logical" >  T  T  T </v>
   <v type="logical" >  T  T  T </v>
   <v type="logical" >  T  T  T </v>
   <v type="logical" >  F  F  F </v>
   <v type="logical" >  F  F  F </v>
   <v type="logical" >  F  F  F </v>
   <v type="logical" >  F  F  F </v>
   <v type="logical" >  F  F  F </v>
   <v type="logical" >  F  F  F </v>
   <v type="logical" >  F  F  F </v>
   <v type="logical" >  F  F  F </v>
   <v type="logical" >  F  F  F </v>
   <v type="logical" >  F  F  F </v>
   <v type="logical" >  F  F  F </v>
   <v type="logical" >  F  F  F </v>
   <v type="logical" >  F  F  F </v>
   <v type="logical" >  F  F  F </v>
   <v type="logical" >  F  F  F </v>
   <v type="logical" >  F  F  F </v>
   <v type="logical" >  F  F  F </v>
   <v type="logical" >  F  F  F </v>
   <v type="logical" >  T  T  T </v>
   <v type="logical" >  T  T  T </v>
   <v type="logical" >  T  T  T </v>
   <v type="logical" >  T  T  T </v>
   <v type="logical" >  T  T  T </v>
   <v type="logical" >  T  T  T </v>
   <v type="logical" >  T  T  T </v>
   <v type="logical" >  T  T  T </v>
   <v type="logical" >  T  T  T </v>
   <v type="logical" >  T  T  T </v>
   <v type="logical" >  T  T  T </v>
   <v type="logical" >  T  T  T </v>
   <v type="logical" >  T  T  T </v>
   <v type="logical" >  T  T  T </v>
   <v type="logical" >  T  T  T </v>
   <v type="logical" >  T  T  T </v>
   <v type="logical" >  T  T  T </v>
   <v type="logical" >  T  T  T </v>
  </varray>
  <nose>
   <v>      -3.00000000       0.00000000       0.00010000       0.00010000 </v>
  </nose>
 </structure>
 <calculation>
  <scstep>
   <time name="dav">   12.17   12.28</time>
   <time name="total">   12.37   12.54</time>
   <energy>
    <i name="alphaZ">    975.10247152 </i>
    <i name="ewald">  91615.58153055 </i>
    <i name="hartreedc">-120702.96126799 </i>
    <i name="XCdc">    189.87506465 </i>
    <i name="pawpsdc">  24789.08602224 </i>
    <i name="pawaedc"> -23775.73976456 </i>
    <i name="eentropy">      0.00411224 </i>
    <i name="bandstr">   2072.13922730 </i>
    <i name="atom">  27259.89416086 </i>
    <i name="e_fr_energy">   2422.98155682 </i>
    <i name="e_wo_entrp">   2422.97744458 </i>
    <i name="e_0_energy">   2422.98018608 </i>
   </energy>
  </scstep>
  <scstep>
   <time name="dav">   13.76   13.88</time>
   <time name="total">   13.76   13.88</time>
   <energy>
    <i name="e_fr_energy">    -62.92864744 </i>
    <i name="e_wo_entrp">    -62.90860853 </i>
    <i name="e_0_energy">    -62.92196780 </i>
   </energy>
  </scstep>
  <scstep>
   <time name="dav">   13.99   14.11</time>
   <time name="total">   13.99   14.11</time>
   <energy>
    <i name="e_fr_energy">   -240.76665357 </i>
    <i name="e_wo_entrp">   -240.75852005 </i>
    <i name="e_0_energy">   -240.76394240 </i>
   </energy>
  </scstep>
  <scstep>
   <time name="dav">   14.71   14.82</time>
   <time name="total">   14.71   14.83</time>
   <energy>
    <i name="e_fr_energy">   -248.58678058 </i>
    <i name="e_wo_entrp">   -248.57742350 </i>
    <i name="e_0_energy">   -248.58366155 </i>
   </energy>
  </scstep>
  <scstep>
   <time name="dav">   15.26   15.38</time>
   <time name="total">   16.10   16.23</time>
   <energy>
    <i name="e_fr_energy">   -248.81424942 </i>
    <i name="e_wo_entrp">   -248.80475652 </i>
    <i name="e_0_energy">   -248.81108512 </i>
   </energy>
  </scstep>
  <scstep>
   <time name="diag">    2.07    2.09</time>
   <time name="diis">    7.20    7.26</time>
   <time name="orth">    0.28    0.28</time>
   <time name="total">   10.49   10.57</time>
   <energy>
    <i name="e_fr_energy">   -246.59681381 </i>
    <i name="e_wo_entrp">   -246.45095816 </i>
    <i name="e_0_energy">   -246.54819526 </i>
   </energy>
  </scstep>
  <scstep>
   <time name="diag">    2.04    2.06</time>
   <time name="diis">    7.21    7.27</time>
   <time name="orth">    0.27    0.27</time>
   <time name="total">   10.53   10.61</time>
   <energy>
    <i name="e_fr_energy">   -242.23802802 </i>
    <i name="e_wo_entrp">   -242.15928994 </i>
    <i name="e_0_energy">   -242.21178200 </i>
   </energy>
  </scstep>
  <scstep>
   <time name="diag">    2.05    2.06</time>
   <time name="diis">    7.25    7.31</time>
   <time name="orth">    0.27    0.28</time>
   <time name="total">   10.58   10.66</time>
   <energy>
    <i name="e_fr_energy">   -244.75008306 </i>
    <i name="e_wo_entrp">   -244.63392902 </i>
    <i name="e_0_energy">   -244.71136504 </i>
   </energy>
  </scstep>
  <scstep>
   <time name="diag">    2.02    2.04</time>
   <time name="diis">    7.26    7.32</time>
   <time name="orth">    0.28    0.28</time>
   <time name="total">   10.51   10.59</time>
   <energy>
    <i name="e_fr_energy">   -231.83933572 </i>
    <i name="e_wo_entrp">   -231.79213102 </i>
    <i name="e_0_energy">   -231.82360082 </i>
   </energy>
  </scstep>
  <scstep>
   <time name="diag">    2.08    2.10</time>
   <time name="diis">    7.14    7.20</time>
   <time name="orth">    0.27    0.27</time>
   <time name="total">   10.42   10.50</time>
   <energy>
    <i name="e_fr_energy">   -230.72169770 </i>
    <i name="e_wo_entrp">   -230.72022919 </i>
    <i name="e_0_energy">   -230.72120819 </i>
   </energy>
  </scstep>
  <scstep>
   <time name="diag">    2.13    2.14</time>
   <time name="diis">    6.63    6.68</time>
   <time name="orth">    0.27    0.27</time>
   <time name="total">    9.86    9.94</time>
   <energy>
    <i name="e_fr_energy">   -230.30588905 </i>
    <i name="e_wo_entrp">   -230.26630785 </i>
    <i name="e_0_energy">   -230.29269531 </i>
   </energy>
  </scstep>
  <scstep>
   <time name="diag">    2.02    2.03</time>
   <time name="diis">    7.14    7.20</time>
   <time name="orth">    0.27    0.27</time>
   <time name="total">   10.21   10.28</time>
   <energy>
    <i name="e_fr_energy">   -230.16032210 </i>
    <i name="e_wo_entrp">   -230.12467210 </i>
    <i name="e_0_energy">   -230.14843877 </i>
   </energy>
  </scstep>
  <scstep>
   <time name="diag">    1.95    1.97</time>
   <time name="diis">    7.09    7.14</time>
   <time name="orth">    0.27    0.27</time>
   <time name="total">   10.28   10.35</time>
   <energy>
    <i name="e_fr_energy">   -230.15986516 </i>
    <i name="e_wo_entrp">   -230.12943164 </i>
    <i name="e_0_energy">   -230.14972065 </i>
   </energy>
  </scstep>
  <scstep>
   <time name="diag">    1.98    1.99</time>
   <time name="diis">    7.07    7.13</time>
   <time name="orth">    0.27    0.27</time>
   <time name="total">   10.28   10.36</time>
   <energy>
    <i name="e_fr_energy">   -230.10793725 </i>
    <i name="e_wo_entrp">   -230.08209625 </i>
    <i name="e_0_energy">   -230.09932358 </i>
   </energy>
  </scstep>
  <scstep>
   <time name="diag">    1.98    1.99</time>
   <time name="diis">    7.11    7.16</time>
   <time name="orth">    0.27    0.28</time>
   <time name="total">   10.22   10.30</time>
   <energy>
    <i name="e_fr_energy">   -230.10165588 </i>
    <i name="e_wo_entrp">   -230.07557471 </i>
    <i name="e_0_energy">   -230.09296216 </i>
   </energy>
  </scstep>
  <scstep>
   <time name="diag">    1.86    1.88</time>
   <time name="diis">    7.15    7.21</time>
   <time name="orth">    0.27    0.27</time>
   <time name="total">   10.29   10.37</time>
   <energy>
    <i name="e_fr_energy">   -230.09698115 </i>
    <i name="e_wo_entrp">   -230.07128387 </i>
    <i name="e_0_energy">   -230.08841539 </i>
   </energy>
  </scstep>
  <scstep>
   <time name="diag">    2.02    2.03</time>
   <time name="diis">    7.07    7.12</time>
   <time name="orth">    0.27    0.27</time>
   <time name="total">   10.35   10.43</time>
   <energy>
    <i name="e_fr_energy">   -230.09638738 </i>
    <i name="e_wo_entrp">   -230.06929150 </i>
    <i name="e_0_energy">   -230.08735542 </i>
   </energy>
  </scstep>
  <scstep>
   <time name="diag">    2.03    2.05</time>
   <time name="diis">    7.09    7.14</time>
   <time name="orth">    0.27    0.27</time>
   <time name="total">   10.35   10.42</time>
   <energy>
    <i name="e_fr_energy">   -230.09668123 </i>
    <i name="e_wo_entrp">   -230.07068935 </i>
    <i name="e_0_energy">   -230.08801727 </i>
   </energy>
  </scstep>
  <scstep>
   <time name="diag">    1.97    1.98</time>
   <time name="diis">    5.89    5.94</time>
   <time name="orth">    0.27    0.28</time>
   <time name="total">    8.33    8.39</time>
   <energy>
    <i name="alphaZ">    975.10247152 </i>
    <i name="ewald">  91615.58153055 </i>
    <i name="hartreedc">-120313.02151889 </i>
    <i name="XCdc">    178.46109240 </i>
    <i name="pawpsdc">  30148.35684774 </i>
    <i name="pawaedc"> -29234.67185811 </i>
    <i name="eentropy">     -0.02662059 </i>
    <i name="bandstr">   -859.77282062 </i>
    <i name="atom">  27259.89416086 </i>
    <i name="e_fr_energy">   -230.09671512 </i>
    <i name="e_wo_entrp">   -230.07009453 </i>
    <i name="e_0_energy">   -230.08784159 </i>
   </energy>
  </scstep>
  <structure>
   <crystal>
    <varray name="basis" >
     <v>       7.29695512      -4.21289900       0.00000000 </v>
     <v>       0.00000000       8.42579800       0.00000000 </v>
     <v>       0.00000000       0.00000000      21.87963500 </v>
    </varray>
    <i name="volume">   1345.21837528 </i>
    <varray name="rec_basis" >
     <v>       0.13704346       0.00000000       0.00000000 </v>
     <v>       0.06852173       0.11868312       0.00000000 </v>
     <v>       0.00000000       0.00000000       0.04570460 </v>
    </varray>
   </crystal>
   <varray name="positions" >
    <v>       0.69774006       0.43266783       0.47093270 </v>
    <v>       0.91138200       0.38483633       0.46429163 </v>
    <v>       0.66960352       0.45952371       0.52082123 </v>
    <v>       0.98675500       0.32859100       0.07437600 </v>
    <v>       0.32008800       0.32859100       0.07437600 </v>
    <v>       0.65342200       0.32859100       0.07437600 </v>
    <v>       0.98675500       0.66192500       0.07437600 </v>
    <v>       0.32008800       0.66192500       0.07437600 </v>
    <v>       0.65342200       0.66192500       0.07437600 </v>
    <v>       0.32008800       0.99525800       0.07437600 </v>
    <v>       0.65342200       0.99525800       0.07437600 </v>
    <v>       0.98675500       0.99525800       0.07437600 </v>
    <v>       0.20897700       0.10636900       0.17918600 </v>
    <v>       0.54231100       0.10636900       0.17918600 </v>
    <v>       0.87564400       0.10636900       0.17918600 </v>
    <v>       0.20897700       0.43970300       0.17918600 </v>
    <v>       0.54231100       0.43970300       0.17918600 </v>
    <v>       0.87564400       0.43970300       0.17918600 </v>
    <v>       0.20897700       0.77303600       0.17918600 </v>
    <v>       0.54231100       0.77303600       0.17918600 </v>
    <v>       0.87564400       0.77303600       0.17918600 </v>
    <v>       0.09453732       0.54971668       0.28658391 </v>
    <v>       0.43481519       0.88535850       0.28370986 </v>
    <v>       0.76874307       0.21445556       0.28131231 </v>
    <v>       0.09086431       0.21516163       0.28174384 </v>
    <v>       0.43417018       0.22192118       0.28543268 </v>
    <v>       0.10246919       0.88395768       0.28406937 </v>
    <v>       0.76112423       0.88714178       0.28403689 </v>
    <v>       0.42921097       0.55396367       0.27845542 </v>
    <v>       0.76172600       0.54733776       0.28796659 </v>
    <v>       0.32723934       0.66417990       0.38369601 </v>
    <v>       0.65700772       0.99167414       0.38872155 </v>
    <v>       0.31785650       0.32627628       0.38631890 </v>
    <v>       0.99062711       0.98960338       0.38803141 </v>
    <v>       0.32320799       0.98852816       0.39162064 </v>
    <v>       0.64633551       0.32252615       0.39389210 </v>
    <v>       0.99149148       0.66340459       0.38325602 </v>
    <v>       0.99848084       0.32019273       0.38936750 </v>
    <v>       0.65592468       0.66535162       0.39081178 </v>
   </varray>
  </structure>
  <varray name="forces" >
   <v>      -0.51816604      -0.43237956       0.61389697 </v>
   <v>       0.57617184       0.00390456      -0.43491448 </v>
   <v>       0.40905537       0.20664442       0.19992326 </v>
   <v>       0.07636304      -0.04835208       0.12822973 </v>
   <v>      -0.03630479      -0.06714974       0.05976722 </v>
   <v>      -0.05734996       0.00394943       0.13988269 </v>
   <v>      -0.00312985       0.02581127       0.14819705 </v>
   <v>      -0.03444478       0.01755314       0.14361455 </v>
   <v>       0.03608972      -0.02113362       0.14016760 </v>
   <v>       0.02499420      -0.02179003       0.07248234 </v>
   <v>       0.00147888      -0.01766178       0.15886171 </v>
   <v>       0.00785425       0.03250565       0.05015066 </v>
   <v>       0.07823858      -0.11871425       0.00567937 </v>
   <v>      -0.09770539       0.13830252       0.05403905 </v>
   <v>       0.06074674      -0.20763240      -0.56713173 </v>
   <v>      -0.30555941       0.13329966      -0.28380162 </v>
   <v>       0.17894349      -0.13274013       0.03410518 </v>
   <v>       0.01904582       0.22607309       0.18276561 </v>
   <v>      -0.07597102      -0.00708301       0.08528636 </v>
   <v>       0.15931105       0.21464243      -0.43096648 </v>
   <v>       0.01574041      -0.01072378       0.19936600 </v>
   <v>       0.18664879      -0.41041677      -1.32376465 </v>
   <v>      -0.25963838       0.50195218      -0.28997616 </v>
   <v>      -0.62779709       0.79018996       0.64373412 </v>
   <v>       0.56061537      -0.06494684       0.47088000 </v>
   <v>      -0.03110233      -0.47078777      -0.26370806 </v>
   <v>      -0.19622466       0.35407315      -0.47952165 </v>
   <v>       0.35673790      -0.91348272      -0.18443389 </v>
   <v>       0.18616941      -0.55458968       1.01334670 </v>
   <v>      -0.13031523       0.23733509      -1.24752152 </v>
   <v>       0.16087218      -0.15905553       0.59649270 </v>
   <v>      -0.11615870       0.13213423      -0.09391081 </v>
   <v>       0.30079985      -0.17730269      -0.17256867 </v>
   <v>       0.00257409       0.10688179      -0.00635090 </v>
   <v>      -0.03688141       0.21762759      -0.39299417 </v>
   <v>      -0.62824471      -0.05288324      -0.74748365 </v>
   <v>       0.28183410       0.31793096       1.20371749 </v>
   <v>      -0.41008238       0.17433778       0.98491426 </v>
   <v>      -0.11520894       0.05367673      -0.41045216 </v>
  </varray>
  <varray name="stress" >
   <v>     -41.63866083       0.80319996       1.14878296 </v>
   <v>       0.80319996     -44.03010867       1.10533941 </v>
   <v>       1.14878285       1.10533953      -0.14987774 </v>
  </varray>
  <energy>
   <i name="e_fr_energy">   -230.09671512 </i>
   <i name="e_wo_entrp">   -230.08784159 </i>
   <i name="e_0_energy">     -0.02662059 </i>
  </energy>
  <time name="totalsc">  230.82  233.06</time>
 </calculation>
 <calculation>
  <scstep>
   <time name="dav">   12.41   12.53</time>
   <time name="total">   13.42   13.57</time>
   <energy>
    <i name="alphaZ">    975.10247152 </i>
    <i name="ewald">  91593.10809279 </i>
    <i name="hartreedc">-120291.34836390 </i>
    <i name="XCdc">    178.39989335 </i>
    <i name="pawpsdc">  30148.91911039 </i>
    <i name="pawaedc"> -29235.22301051 </i>
    <i name="eentropy">     -0.03093058 </i>
    <i name="bandstr">   -859.12739248 </i>
    <i name="atom">  27259.89416086 </i>
    <i name="e_fr_energy">   -230.30596856 </i>
    <i name="e_wo_entrp">   -230.27503798 </i>
    <i name="e_0_energy">   -230.29565837 </i>
   </energy>
  </scstep>
  <scstep>
   <time name="diag">    2.07    2.09</time>
   <time name="diis">    7.27    7.34</time>
   <time name="orth">    0.28    0.28</time>
   <time name="total">   10.65   10.76</time>
   <energy>
    <i name="e_fr_energy">   -230.35866184 </i>
    <i name="e_wo_entrp">   -230.33712967 </i>
    <i name="e_0_energy">   -230.35148445 </i>
   </energy>
  </scstep>
  <scstep>
   <time name="diag">    2.06    2.08</time>
   <time name="diis">    7.20    7.28</time>
   <time name="orth">    0.28    0.28</time>
   <time name="total">   10.51   10.63</time>
   <energy>
    <i name="e_fr_energy">   -230.35147300 </i>
    <i name="e_wo_entrp">   -230.31857820 </i>
    <i name="e_0_energy">   -230.34050807 </i>
   </energy>
  </scstep>
  <scstep>
   <time name="diag">    2.05    2.07</time>
   <time name="diis">    7.03    7.09</time>
   <time name="orth">    0.26    0.26</time>
   <time name="total">   10.17   10.26</time>
   <energy>
    <i name="e_fr_energy">   -230.35191349 </i>
    <i name="e_wo_entrp">   -230.32579618 </i>
    <i name="e_0_energy">   -230.34320772 </i>
   </energy>
  </scstep>
  <scstep>
   <time name="diag">    1.86    1.87</time>
   <time name="diis">    6.53    6.58</time>
   <time name="orth">    0.28    0.28</time>
   <time name="total">    9.64    9.71</time>
   <energy>
    <i name="e_fr_energy">   -230.34685427 </i>
    <i name="e_wo_entrp">   -230.31939307 </i>
    <i name="e_0_energy">   -230.33770054 </i>
   </energy>
  </scstep>
  <scstep>
   <time name="diag">    2.08    2.10</time>
   <time name="diis">    7.19    7.24</time>
   <time name="orth">    0.28    0.28</time>
   <time name="total">   10.53   10.60</time>
   <energy>
    <i name="e_fr_energy">   -230.34594682 </i>
    <i name="e_wo_entrp">   -230.31769592 </i>
    <i name="e_0_energy">   -230.33652985 </i>
   </energy>
  </scstep>
  <scstep>
   <time name="diag">    2.07    2.09</time>
   <time name="diis">    7.13    7.18</time>
   <time name="orth">    0.27    0.27</time>
   <time name="total">   10.48   10.55</time>
   <energy>
    <i name="e_fr_energy">   -230.34604901 </i>
    <i name="e_wo_entrp">   -230.31869641 </i>
    <i name="e_0_energy">   -230.33693148 </i>
   </energy>
  </scstep>
  <scstep>
   <time name="diag">    2.11    2.12</time>
   <time name="diis">    7.38    7.43</time>
   <time name="orth">    0.27    0.27</time>
   <time name="total">   10.87   10.95</time>
   <energy>
    <i name="e_fr_energy">   -230.34549130 </i>
    <i name="e_wo_entrp">   -230.31716574 </i>
    <i name="e_0_energy">   -230.33604945 </i>
   </energy>
  </scstep>
  <scstep>
   <time name="diag">    2.11    2.13</time>
   <time name="diis">    4.54    4.57</time>
   <time name="orth">    0.28    0.28</time>
   <time name="total">    7.12    7.17</time>
   <energy>
    <i name="alphaZ">    975.10247152 </i>
    <i name="ewald">  91593.10809279 </i>
    <i name="hartreedc">-120296.78986824 </i>
    <i name="XCdc">    178.42458807 </i>
    <i name="pawpsdc">  30130.39580928 </i>
    <i name="pawaedc"> -29216.54129232 </i>
    <i name="eentropy">     -0.02801985 </i>
    <i name="bandstr">   -853.91137130 </i>
    <i name="atom">  27259.89416086 </i>
    <i name="e_fr_energy">   -230.34542917 </i>
    <i name="e_wo_entrp">   -230.31740932 </i>
    <i name="e_0_energy">   -230.33608922 </i>
   </energy>
  </scstep>
  <structure>
   <crystal>
    <varray name="basis" >
     <v>       7.29695512      -4.21289900       0.00000000 </v>
     <v>       0.00000000       8.42579800       0.00000000 </v>
     <v>       0.00000000       0.00000000      21.87963500 </v>
    </varray>
    <i name="volume">   1345.21837528 </i>
    <varray name="rec_basis" >
     <v>       0.13704346       0.00000000       0.00000000 </v>
     <v>       0.06852173       0.11868312       0.00000000 </v>
     <v>       0.00000000       0.00000000       0.04570460 </v>
    </varray>
   </crystal>
   <varray name="positions" >
    <v>       0.69636975       0.43099242       0.47147413 </v>
    <v>       0.91290571       0.38560712       0.46390805 </v>
    <v>       0.67068528       0.46053785       0.52099756 </v>
    <v>       0.98675500       0.32859100       0.07437600 </v>
    <v>       0.32008800       0.32859100       0.07437600 </v>
    <v>       0.65342200       0.32859100       0.07437600 </v>
    <v>       0.98675500       0.66192500       0.07437600 </v>
    <v>       0.32008800       0.66192500       0.07437600 </v>
    <v>       0.65342200       0.66192500       0.07437600 </v>
    <v>       0.32008800       0.99525800       0.07437600 </v>
    <v>       0.65342200       0.99525800       0.07437600 </v>
    <v>       0.98675500       0.99525800       0.07437600 </v>
    <v>       0.20897700       0.10636900       0.17918600 </v>
    <v>       0.54231100       0.10636900       0.17918600 </v>
    <v>       0.87564400       0.10636900       0.17918600 </v>
    <v>       0.20897700       0.43970300       0.17918600 </v>
    <v>       0.54231100       0.43970300       0.17918600 </v>
    <v>       0.87564400       0.43970300       0.17918600 </v>
    <v>       0.20897700       0.77303600       0.17918600 </v>
    <v>       0.54231100       0.77303600       0.17918600 </v>
    <v>       0.87564400       0.77303600       0.17918600 </v>
    <v>       0.09503092       0.54902353       0.28541640 </v>
    <v>       0.43412857       0.88616478       0.28345412 </v>
    <v>       0.76708284       0.21543517       0.28188006 </v>
    <v>       0.09234687       0.21575417       0.28215914 </v>
    <v>       0.43408793       0.22080183       0.28520010 </v>
    <v>       0.10195027       0.88450913       0.28364645 </v>
    <v>       0.76206764       0.88552140       0.28387423 </v>
    <v>       0.42970330       0.55293969       0.27934915 </v>
    <v>       0.76138138       0.54770900       0.28686632 </v>
    <v>       0.32766477       0.66402834       0.38422209 </v>
    <v>       0.65670053       0.99182317       0.38863872 </v>
    <v>       0.31865198       0.32626795       0.38616670 </v>
    <v>       0.99063392       0.98985156       0.38802581 </v>
    <v>       0.32311045       0.98897781       0.39127404 </v>
    <v>       0.64467410       0.32157432       0.39323285 </v>
    <v>       0.99223681       0.66450538       0.38431765 </v>
    <v>       0.99739636       0.32004977       0.39023616 </v>
    <v>       0.65562000       0.66532222       0.39044978 </v>
   </varray>
  </structure>
  <varray name="forces" >
   <v>      -0.49678861      -0.69196797      -0.36175358 </v>
   <v>       0.58148381       0.11265296      -0.17139700 </v>
   <v>       0.29539822       0.32530398       0.72467118 </v>
   <v>       0.06293369      -0.05003840       0.12341112 </v>
   <v>      -0.03404346      -0.06015638       0.08753809 </v>
   <v>      -0.04820908       0.00215864       0.14429214 </v>
   <v>      -0.00282588       0.03446877       0.14198553 </v>
   <v>      -0.02366765       0.01935821       0.13919371 </v>
   <v>       0.03243584      -0.01305905       0.14472453 </v>
   <v>       0.02277740      -0.03073200       0.06753664 </v>
   <v>       0.00202235      -0.01171792       0.14999507 </v>
   <v>       0.00448466       0.02696552       0.03878978 </v>
   <v>       0.06880388      -0.08559258      -0.03721155 </v>
   <v>      -0.07481086       0.13263270       0.01339060 </v>
   <v>       0.06022100      -0.16904077      -0.42122100 </v>
   <v>      -0.23809449       0.09148224      -0.26107022 </v>
   <v>       0.13071245      -0.10727716       0.00170707 </v>
   <v>      -0.00345957       0.18515121       0.13254966 </v>
   <v>      -0.06388416       0.00208637       0.01967480 </v>
   <v>       0.13001453       0.17489896      -0.33795297 </v>
   <v>       0.02135065       0.00398009       0.11024247 </v>
   <v>       0.13795381      -0.23542303      -0.83522567 </v>
   <v>      -0.18772067       0.25589281      -0.19963142 </v>
   <v>      -0.41223866       0.49806960       0.54533170 </v>
   <v>       0.33087360       0.00570941       0.39738800 </v>
   <v>      -0.05199095      -0.38054586      -0.27784322 </v>
   <v>      -0.21062156       0.17624717      -0.29388217 </v>
   <v>       0.26203619      -0.59703945      -0.15092757 </v>
   <v>       0.14402891      -0.37929749       0.79464266 </v>
   <v>       0.04068544       0.16637622      -0.91611169 </v>
   <v>       0.04587330      -0.06489960       0.41118793 </v>
   <v>      -0.10808259       0.08696045      -0.14731253 </v>
   <v>       0.18372010      -0.12417509      -0.10360808 </v>
   <v>      -0.01926126       0.10178565       0.00316312 </v>
   <v>      -0.08927068       0.14122872      -0.36087646 </v>
   <v>      -0.43438232       0.19760034      -0.33503439 </v>
   <v>       0.23153627       0.16380760       0.76085297 </v>
   <v>      -0.23774306       0.06789161       0.65037021 </v>
   <v>      -0.05225058       0.02825353      -0.39157946 </v>
  </varray>
  <varray name="stress" >
   <v>     -42.29940159       0.58480908       0.85426160 </v>
   <v>       0.58480906     -44.82539898       1.09010169 </v>
   <v>       0.85426176       1.09010176      -1.17747495 </v>
  </varray>
  <energy>
   <i name="e_fr_energy">   -230.34542917 </i>
   <i name="e_wo_entrp">   -230.33608922 </i>
   <i name="e_0_energy">     -0.02801985 </i>
  </energy>
  <time name="totalsc">  110.04  111.24</time>
 </calculation>
 <calculation>
  <scstep>
   <time name="dav">   12.18   12.33</time>
   <time name="total">   13.12   13.30</time>
   <energy>
    <i name="alphaZ">    975.10247152 </i>
    <i name="ewald">  91562.11596804 </i>
    <i name="hartreedc">-120269.53669498 </i>
    <i name="XCdc">    178.26426678 </i>
    <i name="pawpsdc">  30130.10398527 </i>
    <i name="pawaedc"> -29216.24870829 </i>
    <i name="eentropy">     -0.03266556 </i>
    <i name="bandstr">   -850.09164062 </i>
    <i name="atom">  27259.89416086 </i>
    <i name="e_fr_energy">   -230.42885698 </i>
    <i name="e_wo_entrp">   -230.39619142 </i>
    <i name="e_0_energy">   -230.41796846 </i>
   </energy>
  </scstep>
  <scstep>
   <time name="diag">    2.07    2.09</time>
   <time name="diis">    6.89    6.95</time>
   <time name="orth">    0.27    0.27</time>
   <time name="total">   10.11   10.20</time>
   <energy>
    <i name="e_fr_energy">   -230.52143191 </i>
    <i name="e_wo_entrp">   -230.50114135 </i>
    <i name="e_0_energy">   -230.51466839 </i>
   </energy>
  </scstep>
  <scstep>
   <time name="diag">    2.01    2.03</time>
   <time name="diis">    7.25    7.30</time>
   <time name="orth">    0.27    0.27</time>
   <time name="total">   10.50   10.58</time>
   <energy>
    <i name="e_fr_energy">   -230.51639167 </i>
    <i name="e_wo_entrp">   -230.47834622 </i>
    <i name="e_0_energy">   -230.50370986 </i>
   </energy>
  </scstep>
  <scstep>
   <time name="diag">    2.04    2.05</time>
   <time name="diis">    7.17    7.23</time>
   <time name="orth">    0.28    0.28</time>
   <time name="total">   10.48   10.56</time>
   <energy>
    <i name="e_fr_energy">   -230.50269208 </i>
    <i name="e_wo_entrp">   -230.47128962 </i>
    <i name="e_0_energy">   -230.49222459 </i>
   </energy>
  </scstep>
  <scstep>
   <time name="diag">    2.07    2.09</time>
   <time name="diis">    7.13    7.18</time>
   <time name="orth">    0.27    0.28</time>
   <time name="total">   10.51   10.59</time>
   <energy>
    <i name="e_fr_energy">   -230.49644146 </i>
    <i name="e_wo_entrp">   -230.46781008 </i>
    <i name="e_0_energy">   -230.48689767 </i>
   </energy>
  </scstep>
  <scstep>
   <time name="diag">    2.07    2.08</time>
   <time name="diis">    7.10    7.15</time>
   <time name="orth">    0.28    0.28</time>
   <time name="total">   10.39   10.47</time>
   <energy>
    <i name="e_fr_energy">   -230.49537508 </i>
    <i name="e_wo_entrp">   -230.46406339 </i>
    <i name="e_0_energy">   -230.48493785 </i>
   </energy>
  </scstep>
  <scstep>
   <time name="diag">    2.14    2.16</time>
   <time name="diis">    6.96    7.01</time>
   <time name="orth">    0.28    0.28</time>
   <time name="total">   10.36   10.43</time>
   <energy>
    <i name="e_fr_energy">   -230.49383174 </i>
    <i name="e_wo_entrp">   -230.46460215 </i>
    <i name="e_0_energy">   -230.48408854 </i>
   </energy>
  </scstep>
  <scstep>
   <time name="diag">    2.08    2.09</time>
   <time name="diis">    6.91    6.96</time>
   <time name="orth">    0.27    0.28</time>
   <time name="total">   10.38   10.45</time>
   <energy>
    <i name="e_fr_energy">   -230.49294149 </i>
    <i name="e_wo_entrp">   -230.46200843 </i>
    <i name="e_0_energy">   -230.48263047 </i>
   </energy>
  </scstep>
  <scstep>
   <time name="diag">    2.04    2.05</time>
   <time name="diis">    4.55    4.58</time>
   <time name="orth">    0.28    0.28</time>
   <time name="total">    7.05    7.11</time>
   <energy>
    <i name="alphaZ">    975.10247152 </i>
    <i name="ewald">  91562.11596804 </i>
    <i name="hartreedc">-120264.38350045 </i>
    <i name="XCdc">    178.17940584 </i>
    <i name="pawpsdc">  30117.96215439 </i>
    <i name="pawaedc"> -29204.07993459 </i>
    <i name="eentropy">     -0.03034651 </i>
    <i name="bandstr">   -855.25323392 </i>
    <i name="atom">  27259.89416086 </i>
    <i name="e_fr_energy">   -230.49285482 </i>
    <i name="e_wo_entrp">   -230.46250831 </i>
    <i name="e_0_energy">   -230.48273932 </i>
   </energy>
  </scstep>
  <structure>
   <crystal>
    <varray name="basis" >
     <v>       7.29695512      -4.21289900       0.00000000 </v>
     <v>       0.00000000       8.42579800       0.00000000 </v>
     <v>       0.00000000       0.00000000      21.87963500 </v>
    </varray>
    <i name="volume">   1345.21837528 </i>
    <varray name="rec_basis" >
     <v>       0.13704346       0.00000000       0.00000000 </v>
     <v>       0.06852173       0.11868312       0.00000000 </v>
     <v>       0.00000000       0.00000000       0.04570460 </v>
    </varray>
   </crystal>
   <varray name="positions" >
    <v>       0.69424702       0.42737046       0.47095862 </v>
    <v>       0.91539034       0.38726630       0.46366380 </v>
    <v>       0.67194749       0.46237273       0.52203024 </v>
    <v>       0.98675500       0.32859100       0.07437600 </v>
    <v>       0.32008800       0.32859100       0.07437600 </v>
    <v>       0.65342200       0.32859100       0.07437600 </v>
    <v>       0.98675500       0.66192500       0.07437600 </v>
    <v>       0.32008800       0.66192500       0.07437600 </v>
    <v>       0.65342200       0.66192500       0.07437600 </v>
    <v>       0.32008800       0.99525800       0.07437600 </v>
    <v>       0.65342200       0.99525800       0.07437600 </v>
    <v>       0.98675500       0.99525800       0.07437600 </v>
    <v>       0.20897700       0.10636900       0.17918600 </v>
    <v>       0.54231100       0.10636900       0.17918600 </v>
    <v>       0.87564400       0.10636900       0.17918600 </v>
    <v>       0.20897700       0.43970300       0.17918600 </v>
    <v>       0.54231100       0.43970300       0.17918600 </v>
    <v>       0.87564400       0.43970300       0.17918600 </v>
    <v>       0.20897700       0.77303600       0.17918600 </v>
    <v>       0.54231100       0.77303600       0.17918600 </v>
    <v>       0.87564400       0.77303600       0.17918600 </v>
    <v>       0.09562038       0.54844709       0.28422617 </v>
    <v>       0.43332645       0.88671064       0.28316963 </v>
    <v>       0.76532137       0.21639752       0.28265718 </v>
    <v>       0.09376067       0.21648219       0.28272544 </v>
    <v>       0.43386578       0.21928257       0.28480416 </v>
    <v>       0.10105030       0.88471134       0.28322765 </v>
    <v>       0.76318730       0.88387191       0.28365915 </v>
    <v>       0.43031872       0.55184383       0.28048155 </v>
    <v>       0.76155523       0.54841159       0.28556083 </v>
    <v>       0.32786078       0.66388619       0.38480805 </v>
    <v>       0.65623871       0.99191405       0.38842880 </v>
    <v>       0.31943700       0.32620096       0.38601905 </v>
    <v>       0.99055162       0.99018707       0.38803032 </v>
    <v>       0.32272901       0.98930970       0.39075977 </v>
    <v>       0.64281802       0.32137749       0.39275541 </v>
    <v>       0.99322614       0.66560621       0.38540190 </v>
    <v>       0.99638051       0.31979307       0.39116297 </v>
    <v>       0.65539674       0.66531514       0.38989176 </v>
   </varray>
  </structure>
  <varray name="forces" >
   <v>      -0.80337276       0.47670615       2.91292101 </v>
   <v>       0.54163549       0.28818039       0.13231316 </v>
   <v>       0.69937898      -0.83813069      -2.53137591 </v>
   <v>       0.04856611      -0.05109195       0.12630384 </v>
   <v>      -0.03386604      -0.05385766       0.11929259 </v>
   <v>      -0.03671708      -0.00175435       0.14307174 </v>
   <v>      -0.00075762       0.04283320       0.13599675 </v>
   <v>      -0.01611440       0.01946571       0.13245402 </v>
   <v>       0.03114306      -0.00801020       0.14581880 </v>
   <v>       0.01649095      -0.04087333       0.06287390 </v>
   <v>       0.00421308      -0.00359812       0.13591634 </v>
   <v>       0.00272059       0.01718733       0.04130987 </v>
   <v>       0.04178113      -0.04798425      -0.08274847 </v>
   <v>      -0.04292715       0.11811185      -0.02708437 </v>
   <v>       0.06373306      -0.13014551      -0.27143438 </v>
   <v>      -0.16020676       0.03645744      -0.22155944 </v>
   <v>       0.07166619      -0.07798860      -0.02896639 </v>
   <v>      -0.02747647       0.12691113       0.07810418 </v>
   <v>      -0.05259784       0.01506703      -0.05529482 </v>
   <v>       0.09959192       0.12442876      -0.23798488 </v>
   <v>       0.03710469       0.02512504      -0.00994869 </v>
   <v>       0.08623882      -0.10351915      -0.39518689 </v>
   <v>      -0.12222952       0.02418072      -0.12255679 </v>
   <v>      -0.18797493       0.23269988       0.39776019 </v>
   <v>       0.13051597       0.05256134       0.27948830 </v>
   <v>      -0.07283060      -0.24115767      -0.26103916 </v>
   <v>      -0.19964792       0.02246338      -0.13632905 </v>
   <v>       0.14876579      -0.24664674      -0.11961501 </v>
   <v>       0.09884443      -0.21072093       0.50563235 </v>
   <v>       0.14884451       0.06550953      -0.54723549 </v>
   <v>      -0.04742091       0.00345322       0.24658894 </v>
   <v>      -0.08755065       0.05665653      -0.17807639 </v>
   <v>       0.06420864      -0.07840149      -0.01352215 </v>
   <v>      -0.04082267       0.08475195       0.01678879 </v>
   <v>      -0.11906943       0.08926880      -0.30457709 </v>
   <v>      -0.37021087       0.20638010      -0.38790305 </v>
   <v>       0.15058531       0.04643621       0.38085764 </v>
   <v>      -0.08425810      -0.04433143       0.27562179 </v>
   <v>       0.02002300       0.00337637      -0.33667579 </v>
  </varray>
  <varray name="stress" >
   <v>     -42.45407999       0.70254472       1.64151429 </v>
   <v>       0.70254485     -45.68377964      -0.19152592 </v>
   <v>       1.64151426      -0.19152585      -5.93093619 </v>
  </varray>
  <energy>
   <i name="e_fr_energy">   -230.49285482 </i>
   <i name="e_wo_entrp">   -230.48273932 </i>
   <i name="e_0_energy">     -0.03034651 </i>
  </energy>
  <time name="totalsc">  109.57  110.82</time>
 </calculation>
 <calculation>
  <scstep>
   <time name="dav">   12.19   12.37</time>
   <time name="total">   13.20   13.40</time>
   <energy>
    <i name="alphaZ">    975.10247152 </i>
    <i name="ewald">  91565.87956134 </i>
    <i name="hartreedc">-120265.76824983 </i>
    <i name="XCdc">    178.25534475 </i>
    <i name="pawpsdc">  30117.66508565 </i>
    <i name="pawaedc"> -29203.78069486 </i>
    <i name="eentropy">     -0.03388501 </i>
    <i name="bandstr">   -857.80759056 </i>
    <i name="atom">  27259.89416086 </i>
    <i name="e_fr_energy">   -230.59379612 </i>
    <i name="e_wo_entrp">   -230.55991112 </i>
    <i name="e_0_energy">   -230.58250112 </i>
   </energy>
  </scstep>
  <scstep>
   <time name="diag">    2.06    2.09</time>
   <time name="diis">    6.88    6.98</time>
   <time name="orth">    0.27    0.27</time>
   <time name="total">   10.21   10.36</time>
   <energy>
    <i name="e_fr_energy">   -230.64898129 </i>
    <i name="e_wo_entrp">   -230.62648238 </i>
    <i name="e_0_energy">   -230.64148165 </i>
   </energy>
  </scstep>
  <scstep>
   <time name="diag">    2.02    2.05</time>
   <time name="diis">    7.00    7.10</time>
   <time name="orth">    0.30    0.31</time>
   <time name="total">   10.13   10.27</time>
   <energy>
    <i name="e_fr_energy">   -230.64178966 </i>
    <i name="e_wo_entrp">   -230.60594050 </i>
    <i name="e_0_energy">   -230.62983994 </i>
   </energy>
  </scstep>
  <scstep>
   <time name="diag">    1.94    1.96</time>
   <time name="diis">    7.08    7.13</time>
   <time name="orth">    0.27    0.28</time>
   <time name="total">   10.26   10.34</time>
   <energy>
    <i name="e_fr_energy">   -230.63353246 </i>
    <i name="e_wo_entrp">   -230.60085528 </i>
    <i name="e_0_energy">   -230.62264007 </i>
   </energy>
  </scstep>
  <scstep>
   <time name="diag">    2.04    2.05</time>
   <time name="diis">    7.06    7.11</time>
   <time name="orth">    0.27    0.27</time>
   <time name="total">   10.40   10.47</time>
   <energy>
    <i name="e_fr_energy">   -230.63120292 </i>
    <i name="e_wo_entrp">   -230.60118095 </i>
    <i name="e_0_energy">   -230.62119560 </i>
   </energy>
  </scstep>
  <scstep>
   <time name="diag">    2.03    2.04</time>
   <time name="diis">    7.00    7.05</time>
   <time name="orth">    0.28    0.28</time>
   <time name="total">   10.18   10.26</time>
   <energy>
    <i name="e_fr_energy">   -230.63056614 </i>
    <i name="e_wo_entrp">   -230.59837754 </i>
    <i name="e_0_energy">   -230.61983661 </i>
   </energy>
  </scstep>
  <scstep>
   <time name="diag">    2.08    2.09</time>
   <time name="diis">    7.07    7.12</time>
   <time name="orth">    0.27    0.28</time>
   <time name="total">   10.41   10.48</time>
   <energy>
    <i name="e_fr_energy">   -230.62945332 </i>
    <i name="e_wo_entrp">   -230.59857144 </i>
    <i name="e_0_energy">   -230.61915936 </i>
   </energy>
  </scstep>
  <scstep>
   <time name="diag">    2.03    2.04</time>
   <time name="diis">    7.17    7.23</time>
   <time name="orth">    0.28    0.28</time>
   <time name="total">   10.56   10.64</time>
   <energy>
    <i name="e_fr_energy">   -230.62903084 </i>
    <i name="e_wo_entrp">   -230.59726167 </i>
    <i name="e_0_energy">   -230.61844111 </i>
   </energy>
  </scstep>
  <scstep>
   <time name="diag">    2.05    2.07</time>
   <time name="diis">    4.35    4.38</time>
   <time name="orth">    0.28    0.28</time>
   <time name="total">    7.65    7.70</time>
   <energy>
    <i name="e_fr_energy">   -230.62890350 </i>
    <i name="e_wo_entrp">   -230.59764330 </i>
    <i name="e_0_energy">   -230.61848343 </i>
   </energy>
  </scstep>
  <scstep>
   <time name="diag">    2.03    2.04</time>
   <time name="diis">    4.11    4.14</time>
   <time name="orth">    0.27    0.27</time>
   <time name="total">    6.59    6.64</time>
   <energy>
    <i name="alphaZ">    975.10247152 </i>
    <i name="ewald">  91565.87956134 </i>
    <i name="hartreedc">-120273.05596350 </i>
    <i name="XCdc">    178.33022668 </i>
    <i name="pawpsdc">  30122.20346592 </i>
    <i name="pawaedc"> -29208.32884631 </i>
    <i name="eentropy">     -0.03133134 </i>
    <i name="bandstr">   -850.62260922 </i>
    <i name="atom">  27259.89416086 </i>
    <i name="e_fr_energy">   -230.62886405 </i>
    <i name="e_wo_entrp">   -230.59753271 </i>
    <i name="e_0_energy">   -230.61842027 </i>
   </energy>
  </scstep>
  <structure>
   <crystal>
    <varray name="basis" >
     <v>       7.29695512      -4.21289900       0.00000000 </v>
     <v>       0.00000000       8.42579800       0.00000000 </v>
     <v>       0.00000000       0.00000000      21.87963500 </v>
    </varray>
    <i name="volume">   1345.21837528 </i>
    <varray name="rec_basis" >
     <v>       0.13704346       0.00000000       0.00000000 </v>
     <v>       0.06852173       0.11868312       0.00000000 </v>
     <v>       0.00000000       0.00000000       0.04570460 </v>
    </varray>
   </crystal>
   <varray name="positions" >
    <v>       0.69212168       0.42543559       0.47187041 </v>
    <v>       0.91738999       0.38879588       0.46358642 </v>
    <v>       0.67348260       0.46289942       0.52155242 </v>
    <v>       0.98675500       0.32859100       0.07437600 </v>
    <v>       0.32008800       0.32859100       0.07437600 </v>
    <v>       0.65342200       0.32859100       0.07437600 </v>
    <v>       0.98675500       0.66192500       0.07437600 </v>
    <v>       0.32008800       0.66192500       0.07437600 </v>
    <v>       0.65342200       0.66192500       0.07437600 </v>
    <v>       0.32008800       0.99525800       0.07437600 </v>
    <v>       0.65342200       0.99525800       0.07437600 </v>
    <v>       0.98675500       0.99525800       0.07437600 </v>
    <v>       0.20897700       0.10636900       0.17918600 </v>
    <v>       0.54231100       0.10636900       0.17918600 </v>
    <v>       0.87564400       0.10636900       0.17918600 </v>
    <v>       0.20897700       0.43970300       0.17918600 </v>
    <v>       0.54231100       0.43970300       0.17918600 </v>
    <v>       0.87564400       0.43970300       0.17918600 </v>
    <v>       0.20897700       0.77303600       0.17918600 </v>
    <v>       0.54231100       0.77303600       0.17918600 </v>
    <v>       0.87564400       0.77303600       0.17918600 </v>
    <v>       0.09604306       0.54808002       0.28342453 </v>
    <v>       0.43274532       0.88695513       0.28296656 </v>
    <v>       0.76414367       0.21704687       0.28323762 </v>
    <v>       0.09468101       0.21700945       0.28314418 </v>
    <v>       0.43365712       0.21816503       0.28448460 </v>
    <v>       0.10032177       0.88472175       0.28294670 </v>
    <v>       0.76397174       0.88281412       0.28349461 </v>
    <v>       0.43077080       0.55109141       0.28129716 </v>
    <v>       0.76183094       0.54895011       0.28463512 </v>
    <v>       0.32790818       0.66378435       0.38522394 </v>
    <v>       0.65588309       0.99196941       0.38824317 </v>
    <v>       0.31993791       0.32612111       0.38593411 </v>
    <v>       0.99045738       0.99043242       0.38803959 </v>
    <v>       0.32237805       0.98951000       0.39035878 </v>
    <v>       0.64136635       0.32126380       0.39234021 </v>
    <v>       0.99394270       0.66633982       0.38614066 </v>
    <v>       0.99573087       0.31955641       0.39177407 </v>
    <v>       0.65530114       0.66532716       0.38945412 </v>
   </varray>
  </structure>
  <varray name="forces" >
   <v>      -0.55739477      -0.38495441       0.23693648 </v>
   <v>       0.54847583       0.36059368       0.25091360 </v>
   <v>       0.33147535      -0.07111456      -0.18563261 </v>
   <v>       0.03680379      -0.05049749       0.12652125 </v>
   <v>      -0.03339877      -0.04933291       0.13858991 </v>
   <v>      -0.03067276      -0.00710816       0.14493989 </v>
   <v>       0.00141445       0.04612361       0.13074223 </v>
   <v>      -0.01177403       0.01966208       0.12964455 </v>
   <v>       0.02710370      -0.00604464       0.14105875 </v>
   <v>       0.01582459      -0.04718754       0.06348413 </v>
   <v>       0.00420588       0.00558055       0.13082576 </v>
   <v>       0.00340891       0.01470500       0.03323689 </v>
   <v>       0.02550755      -0.02123943      -0.10219364 </v>
   <v>      -0.01904211       0.10823990      -0.05385746 </v>
   <v>       0.06709095      -0.09709081      -0.16251288 </v>
   <v>      -0.10818450      -0.00454930      -0.19732067 </v>
   <v>       0.02716789      -0.05969651      -0.05241563 </v>
   <v>      -0.04536100       0.08172810       0.03631271 </v>
   <v>      -0.04276486       0.02452066      -0.11368496 </v>
   <v>       0.07682472       0.09109431      -0.17357090 </v>
   <v>       0.04841783       0.04015496      -0.09644359 </v>
   <v>       0.05224980      -0.02182318      -0.10358232 </v>
   <v>      -0.06746094      -0.12787631      -0.06963985 </v>
   <v>      -0.04862706       0.07573960       0.27990672 </v>
   <v>      -0.00529663       0.07493899       0.18926524 </v>
   <v>      -0.07958147      -0.13426043      -0.22768463 </v>
   <v>      -0.15845426      -0.07081386      -0.02802839 </v>
   <v>       0.07574507      -0.01881621      -0.09663965 </v>
   <v>       0.06553012      -0.09847125       0.29478187 </v>
   <v>       0.19106710      -0.01271440      -0.30661267 </v>
   <v>      -0.09958136       0.04647343       0.14752081 </v>
   <v>      -0.07451401       0.03808932      -0.18686452 </v>
   <v>      -0.02094116      -0.04947766       0.03746726 </v>
   <v>      -0.05502728       0.07134168       0.02709080 </v>
   <v>      -0.13786113       0.04947750      -0.25645340 </v>
   <v>      -0.16446570       0.34477974      -0.02900742 </v>
   <v>       0.07796177      -0.02132510       0.15405286 </v>
   <v>       0.02074835      -0.13860669       0.06268890 </v>
   <v>       0.06338013      -0.00024223      -0.31383543 </v>
  </varray>
  <varray name="stress" >
   <v>     -42.37124392       0.33108265       0.95457899 </v>
   <v>       0.33108264     -45.44204808       0.66857534 </v>
   <v>       0.95457900       0.66857536      -3.66835818 </v>
  </varray>
  <energy>
   <i name="e_fr_energy">   -230.62886405 </i>
   <i name="e_wo_entrp">   -230.61842027 </i>
   <i name="e_0_energy">     -0.03133134 </i>
  </energy>
  <time name="totalsc">  116.54  117.86</time>
 </calculation>
 <calculation>
  <scstep>
   <time name="dav">   12.11   12.25</time>
   <time name="total">   13.14   13.29</time>
   <energy>
    <i name="alphaZ">    975.10247152 </i>
    <i name="ewald">  91572.23677719 </i>
    <i name="hartreedc">-120279.56227783 </i>
    <i name="XCdc">    178.34232350 </i>
    <i name="pawpsdc">  30121.96932689 </i>
    <i name="pawaedc"> -29208.09560672 </i>
    <i name="eentropy">     -0.03129089 </i>
    <i name="bandstr">   -850.52719900 </i>
    <i name="atom">  27259.89416086 </i>
    <i name="e_fr_energy">   -230.67131447 </i>
    <i name="e_wo_entrp">   -230.64002358 </i>
    <i name="e_0_energy">   -230.66088417 </i>
   </energy>
  </scstep>
  <scstep>
   <time name="diag">    1.99    2.01</time>
   <time name="diis">    7.01    7.08</time>
   <time name="orth">    0.26    0.26</time>
   <time name="total">   10.10   10.20</time>
   <energy>
    <i name="e_fr_energy">   -230.68954460 </i>
    <i name="e_wo_entrp">   -230.65880601 </i>
    <i name="e_0_energy">   -230.67929840 </i>
   </energy>
  </scstep>
  <scstep>
   <time name="diag">    2.04    2.05</time>
   <time name="diis">    7.18    7.23</time>
   <time name="orth">    0.27    0.27</time>
   <time name="total">   10.45   10.52</time>
   <energy>
    <i name="e_fr_energy">   -230.69256758 </i>
    <i name="e_wo_entrp">   -230.65739581 </i>
    <i name="e_0_energy">   -230.68084366 </i>
   </energy>
  </scstep>
  <scstep>
   <time name="diag">    2.03    2.04</time>
   <time name="diis">    7.13    7.19</time>
   <time name="orth">    0.27    0.27</time>
   <time name="total">   10.59   10.67</time>
   <energy>
    <i name="e_fr_energy">   -230.68758066 </i>
    <i name="e_wo_entrp">   -230.65829526 </i>
    <i name="e_0_energy">   -230.67781886 </i>
   </energy>
  </scstep>
  <scstep>
   <time name="diag">    2.05    2.07</time>
   <time name="diis">    7.19    7.25</time>
   <time name="orth">    0.27    0.28</time>
   <time name="total">   10.57   10.65</time>
   <energy>
    <i name="e_fr_energy">   -230.68602376 </i>
    <i name="e_wo_entrp">   -230.65378544 </i>
    <i name="e_0_energy">   -230.67527765 </i>
   </energy>
  </scstep>
  <scstep>
   <time name="diag">    2.07    2.09</time>
   <time name="diis">    6.91    6.96</time>
   <time name="orth">    0.27    0.27</time>
   <time name="total">   10.14   10.21</time>
   <energy>
    <i name="e_fr_energy">   -230.68620936 </i>
    <i name="e_wo_entrp">   -230.65583588 </i>
    <i name="e_0_energy">   -230.67608487 </i>
   </energy>
  </scstep>
  <scstep>
   <time name="diag">    2.04    2.05</time>
   <time name="diis">    6.93    6.98</time>
   <time name="orth">    0.28    0.28</time>
   <time name="total">   10.13   10.20</time>
   <energy>
    <i name="e_fr_energy">   -230.68597317 </i>
    <i name="e_wo_entrp">   -230.65392016 </i>
    <i name="e_0_energy">   -230.67528883 </i>
   </energy>
  </scstep>
  <scstep>
   <time name="diag">    2.08    2.10</time>
   <time name="diis">    4.72    4.76</time>
   <time name="orth">    0.28    0.28</time>
   <time name="total">    8.05    8.10</time>
   <energy>
    <i name="e_fr_energy">   -230.68572759 </i>
    <i name="e_wo_entrp">   -230.65445306 </i>
    <i name="e_0_energy">   -230.67530275 </i>
   </energy>
  </scstep>
  <scstep>
   <time name="diag">    2.00    2.01</time>
   <time name="diis">    4.05    4.08</time>
   <time name="orth">    0.27    0.27</time>
   <time name="total">    6.51    6.56</time>
   <energy>
    <i name="alphaZ">    975.10247152 </i>
    <i name="ewald">  91572.23677719 </i>
    <i name="hartreedc">-120280.48778823 </i>
    <i name="XCdc">    178.34586805 </i>
    <i name="pawpsdc">  30123.57970142 </i>
    <i name="pawaedc"> -29209.75032604 </i>
    <i name="eentropy">     -0.03144988 </i>
    <i name="bandstr">   -849.57512898 </i>
    <i name="atom">  27259.89416086 </i>
    <i name="e_fr_energy">   -230.68571410 </i>
    <i name="e_wo_entrp">   -230.65426422 </i>
    <i name="e_0_energy">   -230.67523080 </i>
   </energy>
  </scstep>
  <structure>
   <crystal>
    <varray name="basis" >
     <v>       7.29695512      -4.21289900       0.00000000 </v>
     <v>       0.00000000       8.42579800       0.00000000 </v>
     <v>       0.00000000       0.00000000      21.87963500 </v>
    </varray>
    <i name="volume">   1345.21837528 </i>
    <varray name="rec_basis" >
     <v>       0.13704346       0.00000000       0.00000000 </v>
     <v>       0.06852173       0.11868312       0.00000000 </v>
     <v>       0.00000000       0.00000000       0.04570460 </v>
    </varray>
   </crystal>
   <varray name="positions" >
    <v>       0.69001315       0.42290125       0.47202544 </v>
    <v>       0.91953146       0.39093053       0.46381612 </v>
    <v>       0.67473239       0.46352866       0.52153110 </v>
    <v>       0.98675500       0.32859100       0.07437600 </v>
    <v>       0.32008800       0.32859100       0.07437600 </v>
    <v>       0.65342200       0.32859100       0.07437600 </v>
    <v>       0.98675500       0.66192500       0.07437600 </v>
    <v>       0.32008800       0.66192500       0.07437600 </v>
    <v>       0.65342200       0.66192500       0.07437600 </v>
    <v>       0.32008800       0.99525800       0.07437600 </v>
    <v>       0.65342200       0.99525800       0.07437600 </v>
    <v>       0.98675500       0.99525800       0.07437600 </v>
    <v>       0.20897700       0.10636900       0.17918600 </v>
    <v>       0.54231100       0.10636900       0.17918600 </v>
    <v>       0.87564400       0.10636900       0.17918600 </v>
    <v>       0.20897700       0.43970300       0.17918600 </v>
    <v>       0.54231100       0.43970300       0.17918600 </v>
    <v>       0.87564400       0.43970300       0.17918600 </v>
    <v>       0.20897700       0.77303600       0.17918600 </v>
    <v>       0.54231100       0.77303600       0.17918600 </v>
    <v>       0.87564400       0.77303600       0.17918600 </v>
    <v>       0.09630174       0.54801371       0.28312938 </v>
    <v>       0.43240511       0.88657735       0.28284810 </v>
    <v>       0.76371474       0.21732838       0.28365689 </v>
    <v>       0.09488326       0.21732152       0.28343402 </v>
    <v>       0.43336799       0.21743001       0.28418020 </v>
    <v>       0.09967533       0.88430343       0.28285185 </v>
    <v>       0.76438787       0.88262737       0.28335809 </v>
    <v>       0.43107597       0.55075335       0.28178740 </v>
    <v>       0.76246922       0.54932936       0.28410531 </v>
    <v>       0.32761990       0.66373179       0.38547235 </v>
    <v>       0.65557293       0.99196985       0.38801115 </v>
    <v>       0.31999254       0.32593998       0.38595118 </v>
    <v>       0.99026846       0.99059413       0.38806922 </v>
    <v>       0.32187759       0.98947793       0.39000528 </v>
    <v>       0.64055384       0.32192807       0.39223667 </v>
    <v>       0.99434548       0.66657618       0.38647336 </v>
    <v>       0.99563980       0.31916538       0.39198486 </v>
    <v>       0.65546936       0.66542694       0.38903248 </v>
   </varray>
  </structure>
  <varray name="forces" >
   <v>      -0.45251202      -0.40925510       0.14291979 </v>
   <v>       0.56151229       0.36780760       0.15085714 </v>
   <v>       0.25350810      -0.04314666      -0.05413262 </v>
   <v>       0.02976724      -0.05057625       0.12961259 </v>
   <v>      -0.03467683      -0.04646728       0.14682510 </v>
   <v>      -0.02911669      -0.00958833       0.13926467 </v>
   <v>       0.00291118       0.05160111       0.12542472 </v>
   <v>      -0.00879471       0.01868046       0.12680015 </v>
   <v>       0.02578460      -0.00420691       0.14363448 </v>
   <v>       0.01248298      -0.04943061       0.05757152 </v>
   <v>       0.00390114       0.01004853       0.12959688 </v>
   <v>       0.00349728       0.01099808       0.03779585 </v>
   <v>       0.00255490      -0.00816824      -0.11078247 </v>
   <v>      -0.00231322       0.09318601      -0.06245773 </v>
   <v>       0.06916916      -0.07752858      -0.11641025 </v>
   <v>      -0.07996240      -0.02386457      -0.17108920 </v>
   <v>       0.00515935      -0.04513589      -0.06200723 </v>
   <v>      -0.05003715       0.04949462       0.02302909 </v>
   <v>      -0.03919621       0.02798166      -0.14046140 </v>
   <v>       0.06562462       0.06923826      -0.14900617 </v>
   <v>       0.05612832       0.05479517      -0.14846192 </v>
   <v>       0.04286465      -0.01146333      -0.01950425 </v>
   <v>      -0.04241882      -0.15213432      -0.05259983 </v>
   <v>      -0.00540943       0.01778257       0.20248539 </v>
   <v>      -0.03879672       0.06626426       0.12536676 </v>
   <v>      -0.06573402      -0.07818326      -0.18170927 </v>
   <v>      -0.11909717      -0.08051160       0.00751571 </v>
   <v>       0.04109654       0.05061452      -0.09634854 </v>
   <v>       0.04256543      -0.06007762       0.18491102 </v>
   <v>       0.16689243      -0.04411945      -0.18367788 </v>
   <v>      -0.10636094       0.04399724       0.10296647 </v>
   <v>      -0.06834926       0.04197106      -0.16108284 </v>
   <v>      -0.04834956      -0.03864936       0.05277631 </v>
   <v>      -0.05683813       0.05109829       0.03582397 </v>
   <v>      -0.12236992       0.03760971      -0.22521576 </v>
   <v>      -0.11847450       0.29530162      -0.03051902 </v>
   <v>       0.04218336      -0.06405874       0.09720121 </v>
   <v>      -0.00843921      -0.07937457       0.10141208 </v>
   <v>       0.06964331       0.01746993      -0.29832451 </v>
  </varray>
  <varray name="stress" >
   <v>     -42.21369944       0.28573822       0.98174498 </v>
   <v>       0.28573820     -45.38440451       0.62777278 </v>
   <v>       0.98174491       0.62777276      -3.68601873 </v>
  </varray>
  <energy>
   <i name="e_fr_energy">   -230.68571410 </i>
   <i name="e_wo_entrp">   -230.67523080 </i>
   <i name="e_0_energy">     -0.03144988 </i>
  </energy>
  <time name="totalsc">  106.45  107.61</time>
 </calculation>
 <calculation>
  <scstep>
