metal                                   
           1
     7.296955   -4.212899    0.000000
     0.000000    8.425798    0.000000
     0.000000    0.000000   21.879635
   C    O    Pt
   1   2  36
Direct configuration=     1
   0.69774006  0.43266783  0.47093270
   0.91138200  0.38483633  0.46429163
   0.66960352  0.45952371  0.52082123
   0.98675500  0.32859100  0.07437600
   0.32008800  0.32859100  0.07437600
   0.65342200  0.32859100  0.07437600
   0.98675500  0.66192500  0.07437600
   0.32008800  0.66192500  0.07437600
   0.65342200  0.66192500  0.07437600
   0.32008800  0.99525800  0.07437600
   0.65342200  0.99525800  0.07437600
   0.98675500  0.99525800  0.07437600
   0.20897700  0.10636900  0.17918600
   0.54231100  0.10636900  0.17918600
   0.87564400  0.10636900  0.17918600
   0.20897700  0.43970300  0.17918600
   0.54231100  0.43970300  0.17918600
   0.87564400  0.43970300  0.17918600
   0.20897700  0.77303600  0.17918600
   0.54231100  0.77303600  0.17918600
   0.87564400  0.77303600  0.17918600
   0.09453732  0.54971668  0.28658391
   0.43481519  0.88535850  0.28370986
   0.76874307  0.21445556  0.28131231
   0.09086431  0.21516163  0.28174384
   0.43417018  0.22192118  0.28543268
   0.10246919  0.88395768  0.28406937
   0.76112423  0.88714178  0.28403689
   0.42921097  0.55396367  0.27845542
   0.76172600  0.54733776  0.28796659
   0.32723934  0.66417990  0.38369601
   0.65700772  0.99167414  0.38872155
   0.31785650  0.32627628  0.38631890
   0.99062711  0.98960338  0.38803141
   0.32320799  0.98852816  0.39162064
   0.64633551  0.32252615  0.39389210
   0.99149148  0.66340459  0.38325602
   0.99848084  0.32019273  0.38936750
   0.65592468  0.66535162  0.39081178
Direct configuration=     2
   0.69636975  0.43099242  0.47147413
   0.91290571  0.38560712  0.46390805
   0.67068528  0.46053785  0.52099756
   0.98675500  0.32859100  0.07437600
   0.32008800  0.32859100  0.07437600
   0.65342200  0.32859100  0.07437600
   0.98675500  0.66192500  0.07437600
   0.32008800  0.66192500  0.07437600
   0.65342200  0.66192500  0.07437600
   0.32008800  0.99525800  0.07437600
   0.65342200  0.99525800  0.07437600
   0.98675500  0.99525800  0.07437600
   0.20897700  0.10636900  0.17918600
   0.54231100  0.10636900  0.17918600
   0.87564400  0.10636900  0.17918600
   0.20897700  0.43970300  0.17918600
   0.54231100  0.43970300  0.17918600
   0.87564400  0.43970300  0.17918600
   0.20897700  0.77303600  0.17918600
   0.54231100  0.77303600  0.17918600
   0.87564400  0.77303600  0.17918600
   0.09503092  0.54902353  0.28541640
   0.43412857  0.88616478  0.28345412
   0.76708284  0.21543517  0.28188006
   0.09234687  0.21575417  0.28215914
   0.43408793  0.22080183  0.28520010
   0.10195027  0.88450913  0.28364645
   0.76206764  0.88552140  0.28387423
   0.42970330  0.55293969  0.27934915
   0.76138138  0.54770900  0.28686632
   0.32766477  0.66402834  0.38422209
   0.65670053  0.99182317  0.38863872
   0.31865198  0.32626795  0.38616670
   0.99063392  0.98985156  0.38802581
   0.32311045  0.98897781  0.39127404
   0.64467410  0.32157432  0.39323285
   0.99223681  0.66450538  0.38431765
   0.99739636  0.32004977  0.39023616
   0.65562000  0.66532222  0.39044978
Direct configuration=     3
   0.69424702  0.42737046  0.47095862
   0.91539034  0.38726630  0.46366380
   0.67194749  0.46237273  0.52203024
   0.98675500  0.32859100  0.07437600
   0.32008800  0.32859100  0.07437600
   0.65342200  0.32859100  0.07437600
   0.98675500  0.66192500  0.07437600
   0.32008800  0.66192500  0.07437600
   0.65342200  0.66192500  0.07437600
   0.32008800  0.99525800  0.07437600
   0.65342200  0.99525800  0.07437600
   0.98675500  0.99525800  0.07437600
   0.20897700  0.10636900  0.17918600
   0.54231100  0.10636900  0.17918600
   0.87564400  0.10636900  0.17918600
   0.20897700  0.43970300  0.17918600
   0.54231100  0.43970300  0.17918600
   0.87564400  0.43970300  0.17918600
   0.20897700  0.77303600  0.17918600
   0.54231100  0.77303600  0.17918600
   0.87564400  0.77303600  0.17918600
   0.09562038  0.54844709  0.28422617
   0.43332645  0.88671064  0.28316963
   0.76532137  0.21639752  0.28265718
   0.09376067  0.21648219  0.28272544
   0.43386578  0.21928257  0.28480416
   0.10105030  0.88471134  0.28322765
   0.76318730  0.88387191  0.28365915
   0.43031872  0.55184383  0.28048155
   0.76155523  0.54841159  0.28556083
   0.32786078  0.66388619  0.38480805
   0.65623871  0.99191405  0.38842880
   0.31943700  0.32620096  0.38601905
   0.99055162  0.99018707  0.38803032
   0.32272901  0.98930970  0.39075977
   0.64281802  0.32137749  0.39275541
   0.99322614  0.66560621  0.38540190
   0.99638051  0.31979307  0.39116297
   0.65539674  0.66531514  0.38989176
Direct configuration=     4
   0.69212168  0.42543559  0.47187041
   0.91738999  0.38879588  0.46358642
   0.67348260  0.46289942  0.52155242
   0.98675500  0.32859100  0.07437600
   0.32008800  0.32859100  0.07437600
   0.65342200  0.32859100  0.07437600
   0.98675500  0.66192500  0.07437600
   0.32008800  0.66192500  0.07437600
   0.65342200  0.66192500  0.07437600
   0.32008800  0.99525800  0.07437600
   0.65342200  0.99525800  0.07437600
   0.98675500  0.99525800  0.07437600
   0.20897700  0.10636900  0.17918600
   0.54231100  0.10636900  0.17918600
   0.87564400  0.10636900  0.17918600
   0.20897700  0.43970300  0.17918600
   0.54231100  0.43970300  0.17918600
   0.87564400  0.43970300  0.17918600
   0.20897700  0.77303600  0.17918600
   0.54231100  0.77303600  0.17918600
   0.87564400  0.77303600  0.17918600
   0.09604306  0.54808002  0.28342453
   0.43274532  0.88695513  0.28296656
   0.76414367  0.21704687  0.28323762
   0.09468101  0.21700945  0.28314418
   0.43365712  0.21816503  0.28448460
   0.10032177  0.88472175  0.28294670
   0.76397174  0.88281412  0.28349461
   0.43077080  0.55109141  0.28129716
   0.76183094  0.54895011  0.28463512
   0.32790818  0.66378435  0.38522394
   0.65588309  0.99196941  0.38824317
   0.31993791  0.32612111  0.38593411
   0.99045738  0.99043242  0.38803959
   0.32237805  0.98951000  0.39035878
   0.64136635  0.32126380  0.39234021
   0.99394270  0.66633982  0.38614066
   0.99573087  0.31955641  0.39177407
   0.65530114  0.66532716  0.38945412
Direct configuration=     5
   0.69001315  0.42290125  0.47202544
   0.91953146  0.39093053  0.46381612
   0.67473239  0.46352866  0.52153110
   0.98675500  0.32859100  0.07437600
   0.32008800  0.32859100  0.07437600
   0.65342200  0.32859100  0.07437600
   0.98675500  0.66192500  0.07437600
   0.32008800  0.66192500  0.07437600
   0.65342200  0.66192500  0.07437600
   0.32008800  0.99525800  0.07437600
   0.65342200  0.99525800  0.07437600
   0.98675500  0.99525800  0.07437600
   0.20897700  0.10636900  0.17918600
   0.54231100  0.10636900  0.17918600
   0.87564400  0.10636900  0.17918600
   0.20897700  0.43970300  0.17918600
   0.54231100  0.43970300  0.17918600
   0.87564400  0.43970300  0.17918600
   0.20897700  0.77303600  0.17918600
   0.54231100  0.77303600  0.17918600
   0.87564400  0.77303600  0.17918600
   0.09630174  0.54801371  0.28312938
   0.43240511  0.88657735  0.28284810
   0.76371474  0.21732838  0.28365689
   0.09488326  0.21732152  0.28343402
   0.43336799  0.21743001  0.28418020
   0.09967533  0.88430343  0.28285185
   0.76438787  0.88262737  0.28335809
   0.43107597  0.55075335  0.28178740
   0.76246922  0.54932936  0.28410531
   0.32761990  0.66373179  0.38547235
   0.65557293  0.99196985  0.38801115
   0.31999254  0.32593998  0.38595118
   0.99026846  0.99059413  0.38806922
   0.32187759  0.98947793  0.39000528
   0.64055384  0.32192807  0.39223667
   0.99434548  0.66657618  0.38647336
   0.99563980  0.31916538  0.39198486
   0.65546936  0.66542694  0.38903248
