       N       E                     dE             d eps       ncg     rms          rms(c)
DAV:   1     0.241831137444E+04    0.24183E+04   -0.15948E+05  1824   0.129E+03
DAV:   2    -0.633351252798E+02   -0.24816E+04   -0.23061E+04  2112   0.286E+02
DAV:   3    -0.240453387049E+03   -0.17712E+03   -0.16075E+03  2144   0.688E+01
DAV:   4    -0.248233264617E+03   -0.77799E+01   -0.74782E+01  2320   0.138E+01
DAV:   5    -0.248483995388E+03   -0.25073E+00   -0.24843E+00  2488   0.251E+00    0.273E+01
RMM:   6    -0.245838353393E+03    0.26456E+01   -0.54010E+01  1831   0.148E+01    0.304E+01
RMM:   7    -0.244590496227E+03    0.12479E+01   -0.32566E+01  1830   0.897E+00    0.216E+01
RMM:   8    -0.244270753082E+03    0.31974E+00   -0.10070E+01  1827   0.479E+00    0.230E+01
RMM:   9    -0.232034292927E+03    0.12236E+02   -0.57819E+00  1831   0.397E+00    0.983E+00
RMM:  10    -0.230630324965E+03    0.14040E+01   -0.18918E+00  1831   0.224E+00    0.567E+00
RMM:  11    -0.230241973286E+03    0.38835E+00   -0.52088E-01  1831   0.112E+00    0.346E+00
RMM:  12    -0.230043398338E+03    0.19857E+00   -0.19263E-01  1848   0.680E-01    0.196E+00
RMM:  13    -0.230052875590E+03   -0.94773E-02   -0.12264E-01  1832   0.576E-01    0.200E+00
RMM:  14    -0.230003013274E+03    0.49862E-01   -0.92572E-02  1830   0.529E-01    0.101E+00
RMM:  15    -0.229996846842E+03    0.61664E-02   -0.37823E-02  1830   0.339E-01    0.730E-01
RMM:  16    -0.229989005107E+03    0.78417E-02   -0.83202E-03  1832   0.158E-01    0.246E-01
RMM:  17    -0.229988733398E+03    0.27171E-03   -0.18102E-03  1823   0.717E-02    0.185E-01
RMM:  18    -0.229989093053E+03   -0.35965E-03   -0.11682E-03  1817   0.574E-02    0.153E-01
RMM:  19    -0.229989007179E+03    0.85874E-04   -0.57535E-04  1565   0.415E-02
   1 F= -.22998901E+03 E0= -.22998876E+03  d E =-.229989E+03
       N       E                     dE             d eps       ncg     rms          rms(c)
DAV:   1    -0.230227891664E+03   -0.23880E+00   -0.40374E+01  1848   0.115E+01    0.895E-01
RMM:   2    -0.230322361250E+03   -0.94470E-01   -0.78645E-01  1836   0.186E+00    0.154E+00
RMM:   3    -0.230313206173E+03    0.91551E-02   -0.57807E-02  1863   0.421E-01    0.134E+00
RMM:   4    -0.230291384605E+03    0.21822E-01   -0.13162E-02  1851   0.191E-01    0.655E-01
RMM:   5    -0.230287122287E+03    0.42623E-02   -0.78715E-03  1831   0.146E-01    0.491E-01
RMM:   6    -0.230286940609E+03    0.18168E-03   -0.11312E-02  1827   0.180E-01    0.400E-01
RMM:   7    -0.230284950269E+03    0.19903E-02   -0.57316E-03  1828   0.130E-01    0.208E-01
RMM:   8    -0.230284498317E+03    0.45195E-03   -0.16945E-03  1820   0.706E-02    0.127E-01
RMM:   9    -0.230284329131E+03    0.16919E-03   -0.39553E-04  1299   0.355E-02    0.704E-02
RMM:  10    -0.230284318731E+03    0.10400E-04   -0.14205E-04   974   0.225E-02
   2 F= -.23028432E+03 E0= -.23028277E+03  d E =-.295312E+00
       N       E                     dE             d eps       ncg     rms          rms(c)
DAV:   1    -0.230352106010E+03   -0.67777E-01   -0.11650E+01  1824   0.642E+00    0.621E-01
RMM:   2    -0.230396550807E+03   -0.44445E-01   -0.47580E-01  1844   0.107E+00    0.682E-01
RMM:   3    -0.230391320163E+03    0.52306E-02   -0.16969E-02  1847   0.215E-01    0.632E-01
RMM:   4    -0.230389228051E+03    0.20921E-02   -0.38696E-03  1855   0.995E-02    0.539E-01
RMM:   5    -0.230387137245E+03    0.20908E-02   -0.64727E-03  1835   0.125E-01    0.516E-01
RMM:   6    -0.230384517259E+03    0.26200E-02   -0.77796E-03  1831   0.141E-01    0.291E-01
RMM:   7    -0.230383320885E+03    0.11964E-02   -0.25928E-03  1827   0.846E-02    0.148E-01
RMM:   8    -0.230383060689E+03    0.26020E-03   -0.57681E-04  1590   0.414E-02    0.880E-02
RMM:   9    -0.230382956877E+03    0.10381E-03   -0.17556E-04  1026   0.247E-02    0.442E-02
RMM:  10    -0.230382955463E+03    0.14138E-05   -0.87735E-05   968   0.177E-02
   3 F= -.23038296E+03 E0= -.23038095E+03  d E =-.986367E-01
       N       E                     dE             d eps       ncg     rms          rms(c)
