metal                                   
           1
     7.296955   -4.212899    0.000000
     0.000000    8.425798    0.000000
     0.000000    0.000000   21.879635
   C    O    Pt
   1   2  36
Direct configuration=     1
   0.70306704  0.43344777  0.47573762
   0.90167461  0.38032981  0.46655291
   0.67493049  0.46030366  0.52562615
   0.98675500  0.32859100  0.07437600
   0.32008800  0.32859100  0.07437600
   0.65342200  0.32859100  0.07437600
   0.98675500  0.66192500  0.07437600
   0.32008800  0.66192500  0.07437600
   0.65342200  0.66192500  0.07437600
   0.32008800  0.99525800  0.07437600
   0.65342200  0.99525800  0.07437600
   0.98675500  0.99525800  0.07437600
   0.20897700  0.10636900  0.17918600
   0.54231100  0.10636900  0.17918600
   0.87564400  0.10636900  0.17918600
   0.20897700  0.43970300  0.17918600
   0.54231100  0.43970300  0.17918600
   0.87564400  0.43970300  0.17918600
   0.20897700  0.77303600  0.17918600
   0.54231100  0.77303600  0.17918600
   0.87564400  0.77303600  0.17918600
   0.10029902  0.54422730  0.28788656
   0.43426015  0.88591007  0.28550506
   0.76809821  0.22136815  0.28546068
   0.09984718  0.21885214  0.28722685
   0.43280447  0.21723157  0.28671349
   0.09949238  0.88072597  0.28492219
   0.76487569  0.88095914  0.28518892
   0.43439452  0.55497479  0.28277936
   0.76097385  0.55052769  0.28175688
   0.32778332  0.66563537  0.38385450
   0.64903060  0.98769850  0.38635414
   0.32489909  0.32592956  0.38740244
   0.98954148  0.99058635  0.39257130
   0.32525326  0.99408464  0.39171368
   0.64458292  0.31847873  0.39188972
   0.99871941  0.66398278  0.38758051
   0.99348246  0.32026068  0.38720171
   0.65280660  0.66247973  0.39197250
Direct configuration=     2
   0.70265413  0.42984060  0.47451664
   0.90282425  0.38163489  0.46606318
   0.67552879  0.46099942  0.52567502
   0.98675500  0.32859100  0.07437600
   0.32008800  0.32859100  0.07437600
   0.65342200  0.32859100  0.07437600
   0.98675500  0.66192500  0.07437600
   0.32008800  0.66192500  0.07437600
   0.65342200  0.66192500  0.07437600
   0.32008800  0.99525800  0.07437600
   0.65342200  0.99525800  0.07437600
   0.98675500  0.99525800  0.07437600
   0.20897700  0.10636900  0.17918600
   0.54231100  0.10636900  0.17918600
   0.87564400  0.10636900  0.17918600
   0.20897700  0.43970300  0.17918600
   0.54231100  0.43970300  0.17918600
   0.87564400  0.43970300  0.17918600
   0.20897700  0.77303600  0.17918600
   0.54231100  0.77303600  0.17918600
   0.87564400  0.77303600  0.17918600
   0.09971456  0.54543277  0.28650151
   0.43380269  0.88643662  0.28458599
   0.76696693  0.22052380  0.28496601
   0.09923490  0.21764918  0.28660275
   0.43290037  0.21685240  0.28603092
   0.09931944  0.88096205  0.28481765
   0.76591521  0.88183950  0.28494160
   0.43437586  0.55382548  0.28269768
   0.76201181  0.55043612  0.28222956
   0.32772474  0.66482236  0.38480778
   0.65041146  0.98821882  0.38673655
   0.32447917  0.32605319  0.38763996
   0.98933757  0.99009304  0.39221323
   0.32385605  0.99330202  0.39161586
   0.64507098  0.32135998  0.39292621
   0.99768917  0.66460526  0.38774282
   0.99255935  0.32024367  0.38893037
   0.65391586  0.66268734  0.39157775
Direct configuration=     3
   0.70193528  0.42898643  0.47544387
   0.90346216  0.38242887  0.46598320
   0.67656425  0.46054973  0.52436300
   0.98675500  0.32859100  0.07437600
   0.32008800  0.32859100  0.07437600
   0.65342200  0.32859100  0.07437600
   0.98675500  0.66192500  0.07437600
   0.32008800  0.66192500  0.07437600
   0.65342200  0.66192500  0.07437600
   0.32008800  0.99525800  0.07437600
   0.65342200  0.99525800  0.07437600
   0.98675500  0.99525800  0.07437600
   0.20897700  0.10636900  0.17918600
   0.54231100  0.10636900  0.17918600
   0.87564400  0.10636900  0.17918600
   0.20897700  0.43970300  0.17918600
   0.54231100  0.43970300  0.17918600
   0.87564400  0.43970300  0.17918600
   0.20897700  0.77303600  0.17918600
   0.54231100  0.77303600  0.17918600
   0.87564400  0.77303600  0.17918600
   0.09950503  0.54583141  0.28601487
   0.43361983  0.88649395  0.28427692
   0.76657370  0.22018500  0.28482485
   0.09890543  0.21732559  0.28639783
   0.43294485  0.21672693  0.28577546
   0.09924644  0.88107604  0.28475335
   0.76625767  0.88219377  0.28482449
   0.43429710  0.55336578  0.28270544
   0.76246399  0.55037533  0.28243728
   0.32761711  0.66448536  0.38513138
   0.65091068  0.98845691  0.38685394
   0.32423389  0.32606970  0.38770881
   0.98926731  0.98995750  0.39204327
   0.32338567  0.99302177  0.39152768
   0.64481133  0.32221946  0.39315973
   0.99732402  0.66488745  0.38778461
   0.99231220  0.32022670  0.38952571
   0.65437735  0.66286592  0.39135984
