       N       E                     dE             d eps       ncg     rms          rms(c)
DAV:   1     0.242332148537E+04    0.24233E+04   -0.15953E+05  1824   0.129E+03
DAV:   2    -0.659826098022E+02   -0.24893E+04   -0.23131E+04  2144   0.286E+02
DAV:   3    -0.240925753082E+03   -0.17494E+03   -0.15893E+03  2120   0.690E+01
DAV:   4    -0.248593859107E+03   -0.76681E+01   -0.74049E+01  2336   0.137E+01
DAV:   5    -0.248824833762E+03   -0.23097E+00   -0.22850E+00  2480   0.242E+00    0.274E+01
RMM:   6    -0.246511156321E+03    0.23137E+01   -0.54903E+01  1829   0.149E+01    0.305E+01
RMM:   7    -0.243526850437E+03    0.29843E+01   -0.33037E+01  1831   0.906E+00    0.208E+01
RMM:   8    -0.244918853059E+03   -0.13920E+01   -0.98236E+00  1827   0.477E+00    0.228E+01
RMM:   9    -0.231957502516E+03    0.12961E+02   -0.52567E+00  1831   0.378E+00    0.898E+00
RMM:  10    -0.230768927237E+03    0.11886E+01   -0.16363E+00  1831   0.207E+00    0.549E+00
RMM:  11    -0.230385469364E+03    0.38346E+00   -0.48243E-01  1831   0.108E+00    0.326E+00
RMM:  12    -0.230218218949E+03    0.16725E+00   -0.18984E-01  1848   0.675E-01    0.200E+00
RMM:  13    -0.230229325970E+03   -0.11107E-01   -0.12529E-01  1831   0.590E-01    0.200E+00
RMM:  14    -0.230174692135E+03    0.54634E-01   -0.85876E-02  1832   0.513E-01    0.842E-01
RMM:  15    -0.230171750392E+03    0.29417E-02   -0.31456E-02  1831   0.309E-01    0.666E-01
RMM:  16    -0.230165156048E+03    0.65943E-02   -0.81631E-03  1830   0.154E-01    0.267E-01
RMM:  17    -0.230164504822E+03    0.65123E-03   -0.16924E-03  1821   0.701E-02    0.155E-01
RMM:  18    -0.230164945631E+03   -0.44081E-03   -0.91233E-04  1799   0.520E-02    0.121E-01
RMM:  19    -0.230164993536E+03   -0.47905E-04   -0.39325E-04  1311   0.348E-02
   1 F= -.23016499E+03 E0= -.23015849E+03  d E =-.230165E+03
       N       E                     dE             d eps       ncg     rms          rms(c)
DAV:   1    -0.230348694450E+03   -0.18375E+00   -0.28448E+01  1856   0.969E+00    0.683E-01
RMM:   2    -0.230414698504E+03   -0.66004E-01   -0.53834E-01  1836   0.155E+00    0.133E+00
RMM:   3    -0.230400245781E+03    0.14453E-01   -0.39293E-02  1854   0.351E-01    0.819E-01
RMM:   4    -0.230394130203E+03    0.61156E-02   -0.65372E-03  1888   0.135E-01    0.523E-01
RMM:   5    -0.230391069483E+03    0.30607E-02   -0.39421E-03  1832   0.104E-01    0.393E-01
RMM:   6    -0.230390284358E+03    0.78512E-03   -0.47640E-03  1831   0.116E-01    0.273E-01
RMM:   7    -0.230389857815E+03    0.42654E-03   -0.42570E-03  1829   0.113E-01    0.187E-01
RMM:   8    -0.230389382358E+03    0.47546E-03   -0.11251E-03  1815   0.578E-02    0.839E-02
RMM:   9    -0.230389340214E+03    0.42144E-04   -0.18746E-04  1005   0.255E-02
   2 F= -.23038934E+03 E0= -.23038250E+03  d E =-.224347E+00
       N       E                     dE             d eps       ncg     rms          rms(c)
DAV:   1    -0.230438031449E+03   -0.48649E-01   -0.10657E+01  1824   0.621E+00    0.550E-01
RMM:   2    -0.230473475465E+03   -0.35444E-01   -0.35847E-01  1846   0.105E+00    0.737E-01
RMM:   3    -0.230466649365E+03    0.68261E-02   -0.15085E-02  1847   0.214E-01    0.483E-01
RMM:   4    -0.230467059807E+03   -0.41044E-03   -0.35329E-03  1861   0.977E-02    0.523E-01
RMM:   5    -0.230464894573E+03    0.21652E-02   -0.27353E-03  1829   0.824E-02    0.462E-01
RMM:   6    -0.230463164359E+03    0.17302E-02   -0.70053E-03  1830   0.137E-01    0.283E-01
RMM:   7    -0.230461793002E+03    0.13714E-02   -0.24423E-03  1821   0.833E-02    0.123E-01
RMM:   8    -0.230461607746E+03    0.18526E-03   -0.53221E-04  1543   0.393E-02    0.788E-02
RMM:   9    -0.230461514316E+03    0.93430E-04   -0.14709E-04   997   0.228E-02
   3 F= -.23046151E+03 E0= -.23045456E+03  d E =-.721741E-01
       N       E                     dE             d eps       ncg     rms          rms(c)
