 vasp.5.4.4 16052018 (build Apr 24 2014 20:13:14) complex standard
 Contain Constrained Minimization Technique (TS), Periodic NBO, VASPsol, libbeef, VASP2WANNIER90, Constrained Cell Relaxation
 executed on Center for Computational Chemistry by phu@node09 date 2025.09.27 23:13:39
 running on    8 total cores
 distrk:  each k-point on    8 cores,    1 groups
 distr:  one band on NCORES_PER_BAND=   2 cores,    4 groups


--------------------------------------------------------------------------------------------------------


 INCAR:
 POTCAR:   PAW_PBE C 08Apr2002                    
 POTCAR:   PAW_PBE O 08Apr2002                    
 POTCAR:    PAW_PBE Pt 04Feb2005                  
 POTCAR:   PAW_PBE C 08Apr2002                    
   VRHFIN =C: s2p2                                                              
   LEXCH  = PE                                                                  
   EATOM  =   147.1560 eV,   10.8157 Ry                                         
                                                                                
   TITEL  = PAW_PBE C 08Apr2002                                                 
   LULTRA =        F    use ultrasoft PP ?                                      
   IUNSCR =        0    unscreen: 0-lin 1-nonlin 2-no                           
   RPACOR =     .000    partial core radius                                     
   POMASS =   12.011; ZVAL   =    4.000    mass and valenz                      
   RCORE  =    1.500    outmost cutoff radius                                   
   RWIGS  =    1.630; RWIGS  =     .863    wigner-seitz radius (au A)           
   ENMAX  =  400.000; ENMIN  =  300.000 eV                                      
   ICORE  =        2    local potential                                         
   LCOR   =        T    correct aug charges                                     
   LPAW   =        T    paw PP                                                  
   EAUG   =  644.873                                                            
   DEXC   =     .000                                                            
   RMAX   =    2.266    core radius for proj-oper                               
   RAUG   =    1.300    factor for augmentation sphere                          
   RDEP   =    1.501    radius for radial grids                                 
   RDEPT  =    1.300    core radius for aug-charge                              
   QCUT   =   -5.516; QGAM   =   11.032    optimization parameters              
                                                                                
   Description                                                                  
     l     E      TYP  RCUT    TYP  RCUT                                        
     0   .000     23  1.200                                                     
     0   .000     23  1.200                                                     
     1   .000     23  1.500                                                     
     1  2.500     23  1.500                                                     
     2   .000      7  1.500                                                     
  local pseudopotential read in
  atomic valenz-charges read in
  non local Contribution for L=           0  read in
    real space projection operators read in
  non local Contribution for L=           0  read in
    real space projection operators read in
  non local Contribution for L=           1  read in
    real space projection operators read in
  non local Contribution for L=           1  read in
    real space projection operators read in
    PAW grid and wavefunctions read in
 
   number of l-projection  operators is LMAX  =           4
   number of lm-projection operators is LMMAX =           8
 
 POTCAR:   PAW_PBE O 08Apr2002                    
   VRHFIN =O: s2p4                                                              
   LEXCH  = PE                                                                  
   EATOM  =   432.3788 eV,   31.7789 Ry                                         
                                                                                
   TITEL  = PAW_PBE O 08Apr2002                                                 
   LULTRA =        F    use ultrasoft PP ?                                      
   IUNSCR =        0    unscreen: 0-lin 1-nonlin 2-no                           
   RPACOR =     .000    partial core radius                                     
   POMASS =   16.000; ZVAL   =    6.000    mass and valenz                      
   RCORE  =    1.520    outmost cutoff radius                                   
   RWIGS  =    1.550; RWIGS  =     .820    wigner-seitz radius (au A)           
   ENMAX  =  400.000; ENMIN  =  300.000 eV                                      
   ICORE  =        2    local potential                                         
   LCOR   =        T    correct aug charges                                     
   LPAW   =        T    paw PP                                                  
   EAUG   =  605.392                                                            
   DEXC   =     .000                                                            
   RMAX   =    2.264    core radius for proj-oper                               
   RAUG   =    1.300    factor for augmentation sphere                          
   RDEP   =    1.550    radius for radial grids                                 
   QCUT   =   -5.520; QGAM   =   11.041    optimization parameters              
                                                                                
   Description                                                                  
     l     E      TYP  RCUT    TYP  RCUT                                        
     0   .000     23  1.200                                                     
     0  -.700     23  1.200                                                     
     1   .000     23  1.520                                                     
     1   .600     23  1.520                                                     
     2   .000      7  1.500                                                     
  local pseudopotential read in
  atomic valenz-charges read in
  non local Contribution for L=           0  read in
    real space projection operators read in
  non local Contribution for L=           0  read in
    real space projection operators read in
  non local Contribution for L=           1  read in
    real space projection operators read in
  non local Contribution for L=           1  read in
    real space projection operators read in
    PAW grid and wavefunctions read in
 
   number of l-projection  operators is LMAX  =           4
   number of lm-projection operators is LMMAX =           8
 
 POTCAR:    PAW_PBE Pt 04Feb2005                  
   VRHFIN =Pt: s1d9                                                             
   LEXCH  = PE                                                                  
   EATOM  =   729.1182 eV,   53.5887 Ry                                         
                                                                                
   TITEL  = PAW_PBE Pt 04Feb2005                                                
   LULTRA =        F    use ultrasoft PP ?                                      
   IUNSCR =        1    unscreen: 0-lin 1-nonlin 2-no                           
   RPACOR =    2.330    partial core radius                                     
   POMASS =  195.080; ZVAL   =   10.000    mass and valenz                      
   RCORE  =    2.600    outmost cutoff radius                                   
   RWIGS  =    2.750; RWIGS  =    1.455    wigner-seitz radius (au A)           
   ENMAX  =  230.283; ENMIN  =  172.712 eV                                      
   ICORE  =        3    local potential                                         
   LCOR   =        T    correct aug charges                                     
   LPAW   =        T    paw PP                                                  
   EAUG   =  358.966                                                            
   DEXC   =     .000                                                            
   RMAX   =    3.038    core radius for proj-oper                               
   RAUG   =    1.300    factor for augmentation sphere                          
   RDEP   =    2.761    radius for radial grids                                 
   QCUT   =   -4.114; QGAM   =    8.228    optimization parameters              
                                                                                
   Description                                                                  
     l     E      TYP  RCUT    TYP  RCUT                                        
     2   .000     23  2.500                                                     
     2   .000     23  2.500                                                     
     0   .000     23  2.500                                                     
     0   .000     23  2.500                                                     
     1  -.200     23  2.600                                                     
     1  1.500     23  2.600                                                     
     3   .000     23  2.500                                                     
  local pseudopotential read in
  partial core-charges read in
  atomic valenz-charges read in
  non local Contribution for L=           2  read in
    real space projection operators read in
  non local Contribution for L=           2  read in
    real space projection operators read in
  non local Contribution for L=           0  read in
    real space projection operators read in
  non local Contribution for L=           0  read in
    real space projection operators read in
  non local Contribution for L=           1  read in
    real space projection operators read in
  non local Contribution for L=           1  read in
    real space projection operators read in
    PAW grid and wavefunctions read in
 
   number of l-projection  operators is LMAX  =           6
   number of lm-projection operators is LMMAX =          18
 
 Optimization of the real space projectors (new method)

 maximal supplied QI-value         = 25.13
 optimisation between [QCUT,QGAM] = [ 10.81, 21.61] = [ 32.71,130.83] Ry 
 Optimized for a Real-space Cutoff    1.23 Angstroem

   l    n(q)    QCUT    max X(q) W(low)/X(q) W(high)/X(q)  e(spline) 
   0      8    10.807     5.582    0.53E-04    0.84E-04    0.44E-07
   0      8    10.807    69.432    0.35E-03    0.71E-03    0.24E-06
   1      7    10.807     2.780    0.44E-04    0.88E-04    0.89E-07
   1      7    10.807     4.549    0.14E-03    0.28E-03    0.13E-06
 Optimization of the real space projectors (new method)

 maximal supplied QI-value         = 24.76
 optimisation between [QCUT,QGAM] = [ 10.64, 21.54] = [ 31.73,129.89] Ry 
 Optimized for a Real-space Cutoff    1.23 Angstroem

   l    n(q)    QCUT    max X(q) W(low)/X(q) W(high)/X(q)  e(spline) 
   0      8    10.645     4.192    0.69E-04    0.93E-04    0.58E-07
   0      8    10.645     8.473    0.40E-03    0.65E-03    0.17E-06
   1      7    10.645     2.474    0.80E-04    0.12E-03    0.30E-07
   1      7    10.645     3.912    0.24E-03    0.53E-03    0.16E-06
 Optimization of the real space projectors (new method)

 maximal supplied QI-value         = 14.36
 optimisation between [QCUT,QGAM] = [ 10.77, 21.69] = [ 32.49,131.70] Ry 
 Optimized for a Real-space Cutoff    1.46 Angstroem

   l    n(q)    QCUT    max X(q) W(low)/X(q) W(high)/X(q)  e(spline) 
   2      9    10.771     3.903    0.38E-04    0.12E-03    0.82E-07
   2      9    10.771    18.372    0.13E-03    0.32E-03    0.28E-06
   0     10    10.771    13.697    0.11E-04    0.86E-05    0.85E-08
   0     10    10.771    65.529    0.40E-04    0.12E-03    0.14E-06
   1      9    10.771     7.604    0.48E-04    0.31E-04    0.38E-07
   1      9    10.771    12.136    0.35E-03    0.16E-03    0.23E-06
 PAW_PBE C 08Apr2002                    :
 energy of atom  1       EATOM= -147.1560
 kinetic energy error for atom=    0.0116 (will be added to EATOM!!)
 PAW_PBE O 08Apr2002                    :
 energy of atom  2       EATOM= -432.3788
 kinetic energy error for atom=    0.0389 (will be added to EATOM!!)
  PAW_PBE Pt 04Feb2005                  :
 energy of atom  3       EATOM= -729.1182
 kinetic energy error for atom=    0.0051 (will be added to EATOM!!)
 
 
 POSCAR: C    O    Pt                            
  positions in direct lattice
  No initial velocities read in
 exchange correlation table for  LEXCH =        8
   RHO(1)=    0.500       N(1)  =     2000
   RHO(2)=  100.500       N(2)  =     4000

 VTST: version 3.2, (02/03/18)

 CHAIN: initializing optimizer
 
 OPT: Using VASP QUASI-newton optimizer
 CHAIN: Read ICHAIN            0
 
 POSCAR: C    O    Pt                            
  positions in direct lattice
  No initial velocities read in
 


--------------------------------------------------------------------------------------------------------


 ion  position               nearest neighbor table
   1  0.701  0.431  0.471-   3 1.16  36 1.93   2 1.96
   2  0.903  0.381  0.464-   1 1.96  38 2.04  36 2.57
   3  0.672  0.458  0.521-   1 1.16
   4  0.987  0.329  0.074-  15 2.81  16 2.81  12 2.81   5 2.81  11 2.81   6 2.81  18 2.81   8 2.81
                             7 2.81
   5  0.320  0.329  0.074-  13 2.81  10 2.81   4 2.81  12 2.81  16 2.81  17 2.81   8 2.81   9 2.81
                             6 2.81
   6  0.653  0.329  0.074-  14 2.81  18 2.81  11 2.81   4 2.81  17 2.81   7 2.81  10 2.81   9 2.81
                             5 2.81
   7  0.987  0.662  0.074-  18 2.81  21 2.81  19 2.81  12 2.81   8 2.81  10 2.81   9 2.81   6 2.81
                             4 2.81
   8  0.320  0.662  0.074-  16 2.81  19 2.81  10 2.81   7 2.81  20 2.81   4 2.81  11 2.81   5 2.81
                             9 2.81
   9  0.653  0.662  0.074-  17 2.81  20 2.81  21 2.81  11 2.81  12 2.81   7 2.81   6 2.81   5 2.81
                             8 2.81
  10  0.320  0.995  0.074-  13 2.81  19 2.81   5 2.81   8 2.81  12 2.81   7 2.81  14 2.81   6 2.81
                            11 2.81
  11  0.653  0.995  0.074-  14 2.81  20 2.81  15 2.81   9 2.81   6 2.81  12 2.81   4 2.81   8 2.81
                            10 2.81
  12  0.987  0.995  0.074-  15 2.81  21 2.81  13 2.81   7 2.81   4 2.81  10 2.81   5 2.81  11 2.81
                             9 2.81
  13  0.209  0.106  0.179-   5 2.81  10 2.81  12 2.81  19 2.81  15 2.81  21 2.81  16 2.81  14 2.81
                            17 2.81  26 2.83  27 2.84  25 2.86
  14  0.542  0.106  0.179-   6 2.81  11 2.81  20 2.81  15 2.81  10 2.81  18 2.81  19 2.81  17 2.81
                            13 2.81  26 2.82  24 2.85  23 2.85
  15  0.876  0.106  0.179-  28 2.80  12 2.81   4 2.81  11 2.81  21 2.81  13 2.81  14 2.81  20 2.81
                            16 2.81  18 2.81  25 2.83  24 2.86
  16  0.209  0.440  0.179-  22 2.69   8 2.81   4 2.81  19 2.81  18 2.81   5 2.81  15 2.81  20 2.81
                            13 2.81  17 2.81  25 2.82  29 2.83
  17  0.542  0.440  0.179-   9 2.81  20 2.81  21 2.81  18 2.81   6 2.81   5 2.81  14 2.81  16 2.81
                            13 2.81  26 2.81  29 2.82  30 2.83
  18  0.876  0.440  0.179-  22 2.73   7 2.81   6 2.81  21 2.81  16 2.81  19 2.81  17 2.81   4 2.81
                            14 2.81  15 2.81  30 2.82  24 2.88
  19  0.209  0.773  0.179-  22 2.71  10 2.81   8 2.81   7 2.81  16 2.81  13 2.81  21 2.81  18 2.81
                            14 2.81  20 2.81  27 2.81  23 2.84
  20  0.542  0.773  0.179-   9 2.81  11 2.81  17 2.81  14 2.81  15 2.81  21 2.81   8 2.81  16 2.81
                            19 2.81  28 2.81  23 2.83  29 2.84
  21  0.876  0.773  0.179-   7 2.81  12 2.81   9 2.81  18 2.81  15 2.81  19 2.81  13 2.81  17 2.81
                            20 2.81  28 2.81  27 2.83  30 2.85
  22  0.102  0.550  0.278-  16 2.69  19 2.71  18 2.73  25 2.75  29 2.79  23 2.79  27 2.80  30 2.84
                            24 2.86  37 2.91  38 2.92  31 2.94
  23  0.432  0.882  0.286-  35 2.75  24 2.79  22 2.79  31 2.79  28 2.80  29 2.80  27 2.81  32 2.81
                            20 2.83  26 2.84  19 2.84  14 2.85
  24  0.761  0.214  0.287-  38 2.76  28 2.78  26 2.78  25 2.79  23 2.79  30 2.79  32 2.81  36 2.82
                            14 2.85  22 2.86  15 2.86  18 2.88
  25  0.096  0.221  0.285-  38 2.64  33 2.70  22 2.75  24 2.79  28 2.80  29 2.80  34 2.81  16 2.82
                            15 2.83  26 2.86  13 2.86  27 2.88
  26  0.434  0.219  0.285-  33 2.71  30 2.77  36 2.77  24 2.78  29 2.79  17 2.81  35 2.82  14 2.82
                            13 2.83  27 2.84  23 2.84  25 2.86
  27  0.098  0.881  0.285-  37 2.71  34 2.76  35 2.77  22 2.80  23 2.81  19 2.81  28 2.82  30 2.82
                            21 2.83  26 2.84  13 2.84  25 2.88
  28  0.766  0.887  0.284-  39 2.74  24 2.78  32 2.80  23 2.80  15 2.80  25 2.80  34 2.80  21 2.81
                            20 2.81  27 2.82  29 2.83  30 2.85
  29  0.432  0.549  0.285-  33 2.70  39 2.76  26 2.79  22 2.79  25 2.80  23 2.80  30 2.80  17 2.82
                            28 2.83  16 2.83  20 2.84  31 2.85
  30  0.763  0.546  0.285-  39 2.74  26 2.77  37 2.79  24 2.79  29 2.80  18 2.82  27 2.82  17 2.83
                            36 2.84  22 2.84  21 2.85  28 2.85
  31  0.321  0.666  0.391-  35 2.73  32 2.76  37 2.78  23 2.79  29 2.85  39 2.85  33 2.86  38 2.86
                            22 2.94
  32  0.656  0.987  0.391-  39 2.71  31 2.76  34 2.79  28 2.80  24 2.81  38 2.81  23 2.81  35 2.84
                            36 2.89
  33  0.319  0.326  0.384-  38 2.70  25 2.70  29 2.70  26 2.71  36 2.73  34 2.81  35 2.85  31 2.86
                            39 2.88
  34  0.989  0.989  0.388-  37 2.71  38 2.73  39 2.74  27 2.76  35 2.79  32 2.79  28 2.80  33 2.81
                            25 2.81
  35  0.320  0.989  0.388-  37 2.72  31 2.73  36 2.75  23 2.75  27 2.77  34 2.79  26 2.82  32 2.84
                            33 2.85
  36  0.640  0.321  0.391-   1 1.93   2 2.57  33 2.73  35 2.75  26 2.77  24 2.82  30 2.84  39 2.84
                            32 2.89  37 2.96  38 3.01
  37  0.993  0.670  0.387-  34 2.71  27 2.71  35 2.72  31 2.78  30 2.79  39 2.79  22 2.91  36 2.96
                            38 2.99
  38  0.994  0.316  0.387-   2 2.04  25 2.64  33 2.70  34 2.73  24 2.76  32 2.81  31 2.86  22 2.92
                            37 2.99  36 3.01
  39  0.660  0.668  0.386-  32 2.71  34 2.74  30 2.74  28 2.74  29 2.76  37 2.79  36 2.84  31 2.85
                            33 2.88
 

IMPORTANT INFORMATION: All symmetrisations will be switched off!
NOSYMM: (Re-)initialisation of all symmetry stuff for point group C_1.

 
 
 KPOINTS: mesh auto                               

Automatic generation of k-mesh.
Space group operators:
 irot       det(A)        alpha          n_x          n_y          n_z        tau_x        tau_y        tau_z
    1     1.000000     0.000000     1.000000     0.000000     0.000000     0.000000     0.000000     0.000000
 
 Subroutine IBZKPT returns following result:
 ===========================================
 
 Found      4 irreducible k-points:
 
 Following reciprocal coordinates:
            Coordinates               Weight
  0.000000  0.000000  0.000000      1.000000
  0.500000  0.000000  0.000000      1.000000
 -0.000000  0.500000  0.000000      1.000000
  0.500000  0.500000  0.000000      1.000000
 
 Following cartesian coordinates:
            Coordinates               Weight
  0.000000  0.000000  0.000000      1.000000
  0.068522  0.000000  0.000000      1.000000
  0.034261  0.059342  0.000000      1.000000
  0.102783  0.059342  0.000000      1.000000
 


--------------------------------------------------------------------------------------------------------




 Dimension of arrays:
   k-points           NKPTS =      4   k-points in BZ     NKDIM =      4   number of bands    NBANDS=    228
   number of dos      NEDOS =    301   number of ions     NIONS =     39
   non local maximal  LDIM  =      6   non local SUM 2l+1 LMDIM =     18
   total plane-waves  NPLWV = 276480
   max r-space proj   IRMAX =   2756   max aug-charges    IRDMAX=  12646
   dimension x,y,z NGX =    48 NGY =   48 NGZ =  120
   dimension x,y,z NGXF=    96 NGYF=   96 NGZF=  240
   support grid    NGXF=    96 NGYF=   96 NGZF=  240
   ions per type =               1   2  36
   NGX,Y,Z   is equivalent  to a cutoff of   9.47,  9.47,  9.12 a.u.
   NGXF,Y,Z  is equivalent  to a cutoff of  18.94, 18.94, 18.24 a.u.

 SYSTEM =  metal                                   
 POSCAR =  C    O    Pt                            

 Startparameter for this run:
   NWRITE =      2    write-flag & timer
   PREC   = normal    normal or accurate (medium, high low for compatibility)
   ISTART =      0    job   : 0-new  1-cont  2-samecut
   ICHARG =      2    charge: 1-file 2-atom 10-const
   ISPIN  =      1    spin polarized calculation?
   LNONCOLLINEAR =      F non collinear calculations
   LSORBIT =      F    spin-orbit coupling
   INIWAV =      1    electr: 0-lowe 1-rand  2-diag
   LASPH  =      F    aspherical Exc in radial PAW
   METAGGA=      F    non-selfconsistent MetaGGA calc.

 Electronic Relaxation 1
   ENCUT  =  450.0 eV  33.07 Ry    5.75 a.u.  14.57 14.57 37.84*2*pi/ulx,y,z
   ENINI  =  450.0     initial cutoff
   ENAUG  =  644.9 eV  augmentation charge cutoff
   NELM   =     60;   NELMIN=  8; NELMDL= -5     # of ELM steps 
   EDIFF  = 0.1E-03   stopping-criterion for ELM
   LREAL  =      T    real-space projection
   NLSPLINE    = F    spline interpolate recip. space projectors
   LCOMPAT=      F    compatible to vasp.4.4
   GGA_COMPAT  = T    GGA compatible to vasp.4.4-vasp.4.6
   LMAXPAW     = -100 max onsite density
   LMAXMIX     =    2 max onsite mixed and CHGCAR
   VOSKOWN=      0    Vosko Wilk Nusair interpolation
   ROPT   =   -0.00050  -0.00050  -0.00050
 Ionic relaxation
   EDIFFG = -.5E-01   stopping-criterion for IOM
   NSW    =   5000    number of steps for IOM
   NBLOCK =      1;   KBLOCK =   5000    inner block; outer block 
   IBRION =      1    ionic relax: 0-MD 1-quasi-New 2-CG
   NFREE  =      0    steps in history (QN), initial steepest desc. (CG)
   ISIF   =      2    stress and relaxation
   IWAVPR =     11    prediction:  0-non 1-charg 2-wave 3-comb
   ISYM   =      0    0-nonsym 1-usesym 2-fastsym
   LCORR  =      T    Harris-Foulkes like correction to forces

   POTIM  = 0.2000    time-step for ionic-motion
   TEIN   =    0.0    initial temperature
   TEBEG  =    0.0;   TEEND  =   0.0 temperature during run
   SMASS  =  -3.00    Nose mass-parameter (am)
   estimated Nose-frequenzy (Omega)   =  0.10E-29 period in steps =****** mass=  -0.162E-26a.u.
   SCALEE = 1.0000    scale energy and forces
   NPACO  =    256;   APACO  = 16.0  distance and # of slots for P.C.
   PSTRESS=    0.0 pullay stress

  Mass of Ions in am
   POMASS =  12.01 16.00195.08
  Ionic Valenz
   ZVAL   =   4.00  6.00 10.00
  Atomic Wigner-Seitz radii
   RWIGS  =  -1.00 -1.00 -1.00
  virtual crystal weights 
   VCA    =   1.00  1.00  1.00
   NELECT =     376.0000    total number of electrons
   NUPDOWN=      -1.0000    fix difference up-down

 DOS related values:
   EMIN   =  10.00;   EMAX   =-10.00  energy-range for DOS
   EFERMI =   0.00
   ISMEAR =     1;   SIGMA  =   0.20  broadening in eV -4-tet -1-fermi 0-gaus

 Electronic relaxation 2 (details)
   IALGO  =     68    algorithm
   LDIAG  =      T    sub-space diagonalisation (order eigenvalues)
   LSUBROT=      F    optimize rotation matrix (better conditioning)
   TURBO    =      0    0=normal 1=particle mesh
   IRESTART =      0    0=no restart 2=restart with 2 vectors
   NREBOOT  =      0    no. of reboots
   NMIN     =      0    reboot dimension
   EREF     =   0.00    reference energy to select bands
   IMIX   =      4    mixing-type and parameters
     AMIX     =   0.40;   BMIX     =  1.00
     AMIX_MAG =   1.60;   BMIX_MAG =  1.00
     AMIN     =   0.10
     WC   =   100.;   INIMIX=   1;  MIXPRE=   1;  MAXMIX= -45

 Intra band minimization:
   WEIMIN = 0.0010     energy-eigenvalue tresh-hold
   EBREAK =  0.11E-06  absolut break condition
   DEPER  =   0.30     relativ break condition  

   TIME   =   0.40     timestep for ELM

  volume/ion in A,a.u.               =      34.49       232.77
  Fermi-wavevector in a.u.,A,eV,Ry     =   1.070385  2.022734 15.588510  1.145723
  Thomas-Fermi vector in A             =   2.206093
 
 Write flags
   LWAVE        =      F    write WAVECAR
   LDOWNSAMPLE  =      F    k-point downsampling of WAVECAR
   LCHARG       =      F    write CHGCAR
   LVTOT        =      F    write LOCPOT, total local potential
   LVHAR        =      F    write LOCPOT, Hartree potential only
   LELF         =      F    write electronic localiz. function (ELF)
   LORBIT       =      0    0 simple, 1 ext, 2 COOP (PROOUT), +10 PAW based schemes


 Dipole corrections
   LMONO  =      F    monopole corrections only (constant potential shift)
   LDIPOL =      F    correct potential (dipole corrections)
   IDIPOL =      0    1-x, 2-y, 3-z, 4-all directions 
   EPSILON=  1.0000000 bulk dielectric constant

 Exchange correlation treatment:
   GGA     =    --    GGA type
   LEXCH   =     8    internal setting for exchange type
   VOSKOWN=      0    Vosko Wilk Nusair interpolation
   LHFCALC =     F    Hartree Fock is set to
   LHFONE  =     F    Hartree Fock one center treatment
   AEXX    =    0.0000 exact exchange contribution

 Linear response parameters
   LEPSILON=     F    determine dielectric tensor
   LRPA    =     F    only Hartree local field effects (RPA)
   LNABLA  =     F    use nabla operator in PAW spheres
   LVEL    =     F    velocity operator in full k-point grid
   LINTERFAST=   F  fast interpolation
   KINTER  =     0    interpolate to denser k-point grid
   CSHIFT  =0.1000    complex shift for real part using Kramers Kronig
   OMEGAMAX=  -1.0    maximum frequency
   DEG_THRESHOLD= 0.2000000E-02 threshold for treating states as degnerate
   RTIME   =   -0.100 relaxation time in fs
  (WPLASMAI=    0.000 imaginary part of plasma frequency in eV, 0.658/RTIME)
   DFIELD  = 0.0000000 0.0000000 0.0000000 field for delta impulse in time
 
 Orbital magnetization related:
   ORBITALMAG=     F  switch on orbital magnetization
   LCHIMAG   =     F  perturbation theory with respect to B field
   DQ        =  0.001000  dq finite difference perturbation B field
   LLRAUG    =     F  two centre corrections for induced B field



--------------------------------------------------------------------------------------------------------


 quasi-Newton-method for relaxation of ions
   using selective dynamics as specified on POSCAR
 charge density and potential will be updated during run
 non-spin polarized calculation
 RMM-DIIS sequential band-by-band and
  variant of blocked Davidson during initial phase
 perform sub-space diagonalisation
    before iterative eigenvector-optimisation
 modified Broyden-mixing scheme, WC =      100.0
 initial mixing is a Kerker type mixing with AMIX =  0.4000 and BMIX =      1.0000
 Hartree-type preconditioning will be used
 using additional bands           40
 real space projection scheme for non local part
 use partial core corrections
 calculate Harris-corrections to forces 
   (improved forces if not selfconsistent)
 use gradient corrections 
 use of overlap-Matrix (Vanderbilt PP)
 Methfessel and Paxton  Order N= 1 SIGMA  =   0.20


--------------------------------------------------------------------------------------------------------


  energy-cutoff  :      450.00
  volume of cell :     1345.22
      direct lattice vectors                 reciprocal lattice vectors
     7.296955120 -4.212899000  0.000000000     0.137043463  0.000000000  0.000000000
     0.000000000  8.425798000  0.000000000     0.068521732  0.118683121  0.000000000
     0.000000000  0.000000000 21.879635000     0.000000000  0.000000000  0.045704602

  length of vectors
     8.425798004  8.425798000 21.879635000     0.137043463  0.137043463  0.045704602


 
 k-points in units of 2pi/SCALE and weight: mesh auto                               
   0.00000000  0.00000000  0.00000000       0.250
   0.06852173  0.00000000  0.00000000       0.250
   0.03426087  0.05934156  0.00000000       0.250
   0.10278260  0.05934156  0.00000000       0.250
 
 k-points in reciprocal lattice and weights: mesh auto                               
   0.00000000  0.00000000  0.00000000       0.250
   0.50000000  0.00000000  0.00000000       0.250
  -0.00000000  0.50000000  0.00000000       0.250
   0.50000000  0.50000000  0.00000000       0.250
 
 position of ions in fractional coordinates (direct lattice) 
   0.70061010  0.43090728  0.47139021
   0.90290135  0.38098497  0.46420002
   0.67247356  0.45776316  0.52127874
   0.98675500  0.32859100  0.07437600
   0.32008800  0.32859100  0.07437600
   0.65342200  0.32859100  0.07437600
   0.98675500  0.66192500  0.07437600
   0.32008800  0.66192500  0.07437600
   0.65342200  0.66192500  0.07437600
   0.32008800  0.99525800  0.07437600
   0.65342200  0.99525800  0.07437600
   0.98675500  0.99525800  0.07437600
   0.20897700  0.10636900  0.17918600
   0.54231100  0.10636900  0.17918600
   0.87564400  0.10636900  0.17918600
   0.20897700  0.43970300  0.17918600
   0.54231100  0.43970300  0.17918600
   0.87564400  0.43970300  0.17918600
   0.20897700  0.77303600  0.17918600
   0.54231100  0.77303600  0.17918600
   0.87564400  0.77303600  0.17918600
   0.10189019  0.55043693  0.27844808
   0.43212025  0.88156310  0.28578860
   0.76135444  0.21419542  0.28703363
   0.09553808  0.22113842  0.28543903
   0.43355423  0.21933346  0.28458614
   0.09833329  0.88096142  0.28494764
   0.76642368  0.88654317  0.28387407
   0.43156930  0.54913344  0.28524868
   0.76293877  0.54648385  0.28533298
   0.32084503  0.66606350  0.39124109
   0.65558651  0.98659219  0.39053692
   0.31875777  0.32634896  0.38380503
   0.98854450  0.98937492  0.38819097
   0.31999009  0.98931378  0.38793257
   0.63952439  0.32095583  0.39099719
   0.99271288  0.67034297  0.38708605
   0.99355230  0.31594712  0.38672174
   0.66018911  0.66794554  0.38583723
 
 position of ions in cartesian coordinates  (Angst):
   5.11232049  0.67913808 10.31384572
   6.58843063 -0.59372981 10.15652703
   4.90700938  1.02395675 11.40538858
   7.20030695 -1.38845776  1.62731973
   2.33566777  1.42014298  1.62731973
   4.76799101  0.01584050  1.62731973
   7.20030695  1.42014719  1.62731973
   2.33566777  4.22874793  1.62731973
   4.76799101  2.82444545  1.62731973
   2.33566777  7.03734445  1.62731973
   4.76799101  5.63304198  1.62731973
   7.20030695  4.22874371  1.62731973
   1.52489579  0.01584471  3.92052428
   3.95721903 -1.38845776  3.92052428
   6.38953497 -2.79275602  3.92052428
   1.52489579  2.82444966  3.92052428
   3.95721903  1.42014719  3.92052428
   6.38953497  0.01584893  3.92052428
   1.52489579  5.63304619  3.92052428
   3.95721903  4.22874371  3.92052428
   6.38953497  2.82444545  3.92052428
   0.74348813  4.20861732  6.09234241
   3.15316209  5.60739363  6.25295026
   5.55556916 -1.40274202  6.28019117
   0.69713710  1.46077537  6.24530184
   3.16362579  0.02153922  6.22664084
   0.71753361  7.00853474  6.23455032
   5.59255922  4.24096810  6.21106110
   3.14914182  2.80872958  6.24113694
   5.56712995  1.39037853  6.24298155
   2.34119180  4.26042883  8.56021215
   4.78378534  5.55090679  8.54480530
   2.32596116  1.40685611  8.39751394
   7.21336483  4.17163513  8.49347682
   2.33495329  6.98767213  8.48782302
   4.66658075  0.01005736  8.55487581
   7.24378130  1.46597536  8.46930157
   7.24990651 -1.52362888  8.46133041
   4.81737033  2.84666411  8.44197767
 


--------------------------------------------------------------------------------------------------------


 k-point  1 :   0.0000 0.0000 0.0000  plane waves:   29241
 k-point  2 :   0.5000 0.0000 0.0000  plane waves:   29108
 k-point  3 :  -0.0000 0.5000 0.0000  plane waves:   29108
 k-point  4 :   0.5000 0.5000 0.0000  plane waves:   29108

 maximum and minimum number of plane-waves per node :     14624    14548

 maximum number of plane-waves:     29241
 maximum index in each direction: 
   IXMAX=   14   IYMAX=   14   IZMAX=   37
   IXMIN=  -15   IYMIN=  -15   IZMIN=  -37


 real space projection operators:
  total allocation   :      13559.25 KBytes
  max/ min on nodes  :       6788.11       6771.14


 parallel 3D FFT for wavefunctions:
    minimum data exchange during FFTs selected (reduces bandwidth)
 parallel 3D FFT for charge:
    minimum data exchange during FFTs selected (reduces bandwidth)


 total amount of memory used by VASP MPI-rank0   131956. kBytes
=======================================================================

   base      :      30000. kBytes
   nonlr-proj:      10148. kBytes
   fftplans  :      13556. kBytes
   grid      :      23353. kBytes
   one-center:        311. kBytes
   wavefun   :      54588. kBytes
 
     INWAV:  cpu time    0.0000: real time    0.0000
 Broyden mixing: mesh for mixing (old mesh)
   NGX = 29   NGY = 29   NGZ = 75
  (NGX  = 96   NGY  = 96   NGZ  =240)
  gives a total of  63075 points

 initial charge density was supplied:
 charge density of overlapping atoms calculated
 number of electron     376.0000000 magnetization 
 keeping initial charge density in first step


--------------------------------------------------------------------------------------------------------


 Maximum index for non-local projection operator         1320
 Maximum index for augmentation-charges         1558 (set IRDMAX)


--------------------------------------------------------------------------------------------------------


 First call to EWALD:  gamma=   0.161
 Maximum number of real-space cells 4x 4x 2
 Maximum number of reciprocal cells 2x 2x 5

    FEWALD:  cpu time    0.0101: real time    0.0102


--------------------------------------- Iteration      1(   1)  ---------------------------------------


    POTLOK:  cpu time    0.2009: real time    0.2663
    SETDIJ:  cpu time    0.0171: real time    0.0171
     EDDAV:  cpu time    9.5562: real time    9.6427
       DOS:  cpu time    0.0011: real time    0.0011
    --------------------------------------------
      LOOP:  cpu time    9.7753: real time    9.9273

 eigenvalue-minimisations  :  1824
 total energy-change (2. order) : 0.2423321E+04  (-0.1595280E+05)
 number of electron     376.0000000 magnetization 
 augmentation part      376.0000000 magnetization 

 Free energy of the ion-electron system (eV)
  ---------------------------------------------------
  alpha Z        PSCENC =       975.10247152
  Ewald energy   TEWEN  =     91638.41306598
  -Hartree energ DENC   =   -120727.12658453
  -exchange      EXHF   =         0.00000000
  -V(xc)+E(xc)   XCENC  =       189.83068350
  PAW double counting   =     24789.08602224   -23775.73976456
  entropy T*S    EENTRO =        -0.02834562
  eigenvalues    EBANDS =      2073.88977597
  atomic energy  EATOM  =     27259.89416086
  Solvation  Ediel_sol  =         0.00000000
  ---------------------------------------------------
  free energy    TOTEN  =      2423.32148537 eV

  energy without entropy =     2423.34983098  energy(sigma->0) =     2423.33093390


--------------------------------------------------------------------------------------------------------




--------------------------------------- Iteration      1(   2)  ---------------------------------------


     EDDAV:  cpu time    9.2019: real time    9.2557
       DOS:  cpu time    0.0010: real time    0.0010
    --------------------------------------------
      LOOP:  cpu time    9.2029: real time    9.2567

 eigenvalue-minimisations  :  2144
 total energy-change (2. order) :-0.2489304E+04  (-0.2313133E+04)
 number of electron     376.0000000 magnetization 
 augmentation part      376.0000000 magnetization 

 Free energy of the ion-electron system (eV)
  ---------------------------------------------------
  alpha Z        PSCENC =       975.10247152
  Ewald energy   TEWEN  =     91638.41306598
  -Hartree energ DENC   =   -120727.12658453
  -exchange      EXHF   =         0.00000000
  -V(xc)+E(xc)   XCENC  =       189.83068350
  PAW double counting   =     24789.08602224   -23775.73976456
  entropy T*S    EENTRO =        -0.01471343
  eigenvalues    EBANDS =      -415.42795139
  atomic energy  EATOM  =     27259.89416086
  Solvation  Ediel_sol  =         0.00000000
  ---------------------------------------------------
  free energy    TOTEN  =       -65.98260980 eV

  energy without entropy =      -65.96789638  energy(sigma->0) =      -65.97770533


--------------------------------------------------------------------------------------------------------




--------------------------------------- Iteration      1(   3)  ---------------------------------------


     EDDAV:  cpu time    8.1688: real time    8.2157
       DOS:  cpu time    0.0010: real time    0.0010
    --------------------------------------------
      LOOP:  cpu time    8.1698: real time    8.2167

 eigenvalue-minimisations  :  2120
 total energy-change (2. order) :-0.1749431E+03  (-0.1589254E+03)
 number of electron     376.0000000 magnetization 
 augmentation part      376.0000000 magnetization 

 Free energy of the ion-electron system (eV)
  ---------------------------------------------------
  alpha Z        PSCENC =       975.10247152
  Ewald energy   TEWEN  =     91638.41306598
  -Hartree energ DENC   =   -120727.12658453
  -exchange      EXHF   =         0.00000000
  -V(xc)+E(xc)   XCENC  =       189.83068350
  PAW double counting   =     24789.08602224   -23775.73976456
  entropy T*S    EENTRO =        -0.00405206
  eigenvalues    EBANDS =      -590.38175604
  atomic energy  EATOM  =     27259.89416086
  Solvation  Ediel_sol  =         0.00000000
  ---------------------------------------------------
  free energy    TOTEN  =      -240.92575308 eV

  energy without entropy =     -240.92170103  energy(sigma->0) =     -240.92440240


--------------------------------------------------------------------------------------------------------




--------------------------------------- Iteration      1(   4)  ---------------------------------------


     EDDAV:  cpu time    7.9961: real time    8.0398
       DOS:  cpu time    0.0009: real time    0.0010
    --------------------------------------------
      LOOP:  cpu time    7.9971: real time    8.0407

 eigenvalue-minimisations  :  2336
 total energy-change (2. order) :-0.7668106E+01  (-0.7404932E+01)
 number of electron     376.0000000 magnetization 
 augmentation part      376.0000000 magnetization 

 Free energy of the ion-electron system (eV)
  ---------------------------------------------------
  alpha Z        PSCENC =       975.10247152
  Ewald energy   TEWEN  =     91638.41306598
  -Hartree energ DENC   =   -120727.12658453
  -exchange      EXHF   =         0.00000000
  -V(xc)+E(xc)   XCENC  =       189.83068350
  PAW double counting   =     24789.08602224   -23775.73976456
  entropy T*S    EENTRO =        -0.00384929
  eigenvalues    EBANDS =      -598.05006482
  atomic energy  EATOM  =     27259.89416086
  Solvation  Ediel_sol  =         0.00000000
  ---------------------------------------------------
  free energy    TOTEN  =      -248.59385911 eV

  energy without entropy =     -248.59000981  energy(sigma->0) =     -248.59257601


--------------------------------------------------------------------------------------------------------




--------------------------------------- Iteration      1(   5)  ---------------------------------------


     EDDAV:  cpu time    9.8830: real time    9.9437
       DOS:  cpu time    0.0011: real time    0.0011
    CHARGE:  cpu time    0.3707: real time    0.3729
    MIXING:  cpu time    0.0069: real time    0.0069
    --------------------------------------------
      LOOP:  cpu time   10.2616: real time   10.3245

 eigenvalue-minimisations  :  2480
 total energy-change (2. order) :-0.2309747E+00  (-0.2285018E+00)
 number of electron     376.0000051 magnetization 
 augmentation part      105.7914490 magnetization 

 Broyden mixing:
  rms(total) = 0.27435E+01    rms(broyden)= 0.27431E+01
  rms(prec ) = 0.30583E+01
  weight for this iteration     100.00

 Free energy of the ion-electron system (eV)
  ---------------------------------------------------
  alpha Z        PSCENC =       975.10247152
  Ewald energy   TEWEN  =     91638.41306598
  -Hartree energ DENC   =   -120727.12658453
  -exchange      EXHF   =         0.00000000
  -V(xc)+E(xc)   XCENC  =       189.83068350
  PAW double counting   =     24789.08602224   -23775.73976456
  entropy T*S    EENTRO =        -0.00398032
  eigenvalues    EBANDS =      -598.28090845
  atomic energy  EATOM  =     27259.89416086
  Solvation  Ediel_sol  =         0.00000000
  ---------------------------------------------------
  free energy    TOTEN  =      -248.82483376 eV

  energy without entropy =     -248.82085344  energy(sigma->0) =     -248.82350699


--------------------------------------------------------------------------------------------------------




--------------------------------------- Iteration      1(   6)  ---------------------------------------


    POTLOK:  cpu time    0.1198: real time    0.1206
    SETDIJ:  cpu time    0.0104: real time    0.0104
    EDDIAG:  cpu time    1.1447: real time    1.1511
  RMM-DIIS:  cpu time    4.2360: real time    4.2622
    ORTHCH:  cpu time    0.2186: real time    0.2199
       DOS:  cpu time    0.0011: real time    0.0012
    CHARGE:  cpu time    0.3796: real time    0.3817
    MIXING:  cpu time    0.0063: real time    0.0064
    --------------------------------------------
      LOOP:  cpu time    6.1166: real time    6.1534

 eigenvalue-minimisations  :  1829
 total energy-change (2. order) : 0.2313677E+01  (-0.5490264E+01)
 number of electron     376.0000041 magnetization 
 augmentation part      112.9806648 magnetization 

 Broyden mixing:
  rms(total) = 0.30461E+01    rms(broyden)= 0.30452E+01
  rms(prec ) = 0.40723E+01
  weight for this iteration     100.00

 eigenvalues of (default mixing * dielectric matrix)
  average eigenvalue GAMMA=   0.4771
  0.4771

 Free energy of the ion-electron system (eV)
  ---------------------------------------------------
  alpha Z        PSCENC =       975.10247152
  Ewald energy   TEWEN  =     91638.41306598
  -Hartree energ DENC   =   -120262.33957336
  -exchange      EXHF   =         0.00000000
  -V(xc)+E(xc)   XCENC  =       182.75778740
  PAW double counting   =     26727.66427290   -25768.09374459
  entropy T*S    EENTRO =        -0.14463700
  eigenvalues    EBANDS =      -999.76496004
  atomic energy  EATOM  =     27259.89416086
  Solvation  Ediel_sol  =         0.00000000
  ---------------------------------------------------
  free energy    TOTEN  =      -246.51115632 eV

  energy without entropy =     -246.36651932  energy(sigma->0) =     -246.46294399


--------------------------------------------------------------------------------------------------------




--------------------------------------- Iteration      1(   7)  ---------------------------------------


    POTLOK:  cpu time    0.1250: real time    0.1258
    SETDIJ:  cpu time    0.0108: real time    0.0109
    EDDIAG:  cpu time    1.4154: real time    1.4237
  RMM-DIIS:  cpu time    4.7727: real time    4.8020
    ORTHCH:  cpu time    0.2251: real time    0.2263
       DOS:  cpu time    0.0011: real time    0.0011
    CHARGE:  cpu time    0.4200: real time    0.4224
    MIXING:  cpu time    0.0046: real time    0.0046
    --------------------------------------------
      LOOP:  cpu time    6.9746: real time    7.0168

 eigenvalue-minimisations  :  1831
 total energy-change (2. order) : 0.2984306E+01  (-0.3303700E+01)
 number of electron     376.0000066 magnetization 
 augmentation part      111.3181448 magnetization 

 Broyden mixing:
  rms(total) = 0.20807E+01    rms(broyden)= 0.20799E+01
  rms(prec ) = 0.35000E+01
  weight for this iteration     100.00

 eigenvalues of (default mixing * dielectric matrix)
  average eigenvalue GAMMA=   0.5791
  0.9113  0.2469

 Free energy of the ion-electron system (eV)
  ---------------------------------------------------
  alpha Z        PSCENC =       975.10247152
  Ewald energy   TEWEN  =     91638.41306598
  -Hartree energ DENC   =   -120456.71365300
  -exchange      EXHF   =         0.00000000
  -V(xc)+E(xc)   XCENC  =       180.43636202
  PAW double counting   =     27364.24136269   -26411.75773853
  entropy T*S    EENTRO =        -0.11786157
  eigenvalues    EBANDS =      -793.02502041
  atomic energy  EATOM  =     27259.89416086
  Solvation  Ediel_sol  =         0.00000000
  ---------------------------------------------------
  free energy    TOTEN  =      -243.52685044 eV

  energy without entropy =     -243.40898887  energy(sigma->0) =     -243.48756325


--------------------------------------------------------------------------------------------------------




--------------------------------------- Iteration      1(   8)  ---------------------------------------


    POTLOK:  cpu time    0.1283: real time    0.1291
    SETDIJ:  cpu time    0.0097: real time    0.0146
    EDDIAG:  cpu time    1.3678: real time    1.3758
  RMM-DIIS:  cpu time    5.2131: real time    5.2462
    ORTHCH:  cpu time    0.2399: real time    0.2412
       DOS:  cpu time    0.0010: real time    0.0010
    CHARGE:  cpu time    0.4474: real time    0.4499
    MIXING:  cpu time    0.0047: real time    0.0048
    --------------------------------------------
      LOOP:  cpu time    7.4120: real time    7.4627

 eigenvalue-minimisations  :  1827
 total energy-change (2. order) :-0.1392003E+01  (-0.9823608E+00)
 number of electron     376.0000057 magnetization 
 augmentation part      111.9650502 magnetization 

 Broyden mixing:
  rms(total) = 0.22804E+01    rms(broyden)= 0.22802E+01
  rms(prec ) = 0.40475E+01
  weight for this iteration     100.00

 eigenvalues of (default mixing * dielectric matrix)
  average eigenvalue GAMMA=   0.5363
  1.1811  0.2808  0.1470

 Free energy of the ion-electron system (eV)
  ---------------------------------------------------
  alpha Z        PSCENC =       975.10247152
  Ewald energy   TEWEN  =     91638.41306598
  -Hartree energ DENC   =   -120414.43749849
  -exchange      EXHF   =         0.00000000
  -V(xc)+E(xc)   XCENC  =       179.38903411
  PAW double counting   =     27977.49376743   -27034.74249709
  entropy T*S    EENTRO =        -0.08530471
  eigenvalues    EBANDS =      -825.94605268
  atomic energy  EATOM  =     27259.89416086
  Solvation  Ediel_sol  =         0.00000000
  ---------------------------------------------------
  free energy    TOTEN  =      -244.91885306 eV

  energy without entropy =     -244.83354835  energy(sigma->0) =     -244.89041816


--------------------------------------------------------------------------------------------------------




--------------------------------------- Iteration      1(   9)  ---------------------------------------


    POTLOK:  cpu time    0.1608: real time    0.1619
    SETDIJ:  cpu time    0.0184: real time    0.0186
    EDDIAG:  cpu time    1.5550: real time    1.5648
  RMM-DIIS:  cpu time    5.6569: real time    5.6925
    ORTHCH:  cpu time    0.2481: real time    0.2497
       DOS:  cpu time    0.0012: real time    0.0012
    CHARGE:  cpu time    0.4191: real time    0.4217
    MIXING:  cpu time    0.0062: real time    0.0063
    --------------------------------------------
      LOOP:  cpu time    8.0658: real time    8.1166

 eigenvalue-minimisations  :  1831
 total energy-change (2. order) : 0.1296135E+02  (-0.5256722E+00)
 number of electron     376.0000054 magnetization 
 augmentation part      112.6409664 magnetization 

 Broyden mixing:
  rms(total) = 0.89848E+00    rms(broyden)= 0.89821E+00
  rms(prec ) = 0.11757E+01
  weight for this iteration     100.00

 eigenvalues of (default mixing * dielectric matrix)
  average eigenvalue GAMMA=   0.5261
  1.2964  0.3370  0.3370  0.1339

 Free energy of the ion-electron system (eV)
  ---------------------------------------------------
  alpha Z        PSCENC =       975.10247152
  Ewald energy   TEWEN  =     91638.41306598
  -Hartree energ DENC   =   -120357.52282724
  -exchange      EXHF   =         0.00000000
  -V(xc)+E(xc)   XCENC  =       178.70750056
  PAW double counting   =     28701.00978312   -27769.60006634
  entropy T*S    EENTRO =        -0.08145370
  eigenvalues    EBANDS =      -857.88013728
  atomic energy  EATOM  =     27259.89416086
  Solvation  Ediel_sol  =         0.00000000
  ---------------------------------------------------
  free energy    TOTEN  =      -231.95750252 eV

  energy without entropy =     -231.87604882  energy(sigma->0) =     -231.93035128


--------------------------------------------------------------------------------------------------------




--------------------------------------- Iteration      1(  10)  ---------------------------------------


    POTLOK:  cpu time    0.1875: real time    0.1887
    SETDIJ:  cpu time    0.0099: real time    0.0100
    EDDIAG:  cpu time    1.4252: real time    1.4338
  RMM-DIIS:  cpu time    5.2599: real time    5.2936
    ORTHCH:  cpu time    0.2426: real time    0.2441
       DOS:  cpu time    0.0012: real time    0.0012
    CHARGE:  cpu time    0.4239: real time    0.4266
    MIXING:  cpu time    0.0113: real time    0.0114
    --------------------------------------------
      LOOP:  cpu time    7.5616: real time    7.6092

 eigenvalue-minimisations  :  1831
 total energy-change (2. order) : 0.1188575E+01  (-0.1636268E+00)
 number of electron     376.0000055 magnetization 
 augmentation part      112.7479373 magnetization 

 Broyden mixing:
  rms(total) = 0.54851E+00    rms(broyden)= 0.54845E+00
  rms(prec ) = 0.70814E+00
  weight for this iteration     100.00

 eigenvalues of (default mixing * dielectric matrix)
  average eigenvalue GAMMA=   0.5423
  1.3955  0.4865  0.4326  0.1368  0.2600

 Free energy of the ion-electron system (eV)
  ---------------------------------------------------
  alpha Z        PSCENC =       975.10247152
  Ewald energy   TEWEN  =     91638.41306598
  -Hartree energ DENC   =   -120347.21800795
  -exchange      EXHF   =         0.00000000
  -V(xc)+E(xc)   XCENC  =       178.60581413
  PAW double counting   =     29032.06187340   -28105.17821076
  entropy T*S    EENTRO =         0.00574726
  eigenvalues    EBANDS =      -862.45584168
  atomic energy  EATOM  =     27259.89416086
  Solvation  Ediel_sol  =         0.00000000
  ---------------------------------------------------
  free energy    TOTEN  =      -230.76892724 eV

  energy without entropy =     -230.77467450  energy(sigma->0) =     -230.77084299


--------------------------------------------------------------------------------------------------------




--------------------------------------- Iteration      1(  11)  ---------------------------------------


    POTLOK:  cpu time    0.1397: real time    0.1405
    SETDIJ:  cpu time    0.0107: real time    0.0107
    EDDIAG:  cpu time    1.2900: real time    1.2978
  RMM-DIIS:  cpu time    5.2384: real time    5.2717
    ORTHCH:  cpu time    0.2361: real time    0.2375
       DOS:  cpu time    0.0012: real time    0.0012
    CHARGE:  cpu time    0.3854: real time    0.3877
    MIXING:  cpu time    0.0067: real time    0.0067
    --------------------------------------------
      LOOP:  cpu time    7.3081: real time    7.3538

 eigenvalue-minimisations  :  1831
 total energy-change (2. order) : 0.3834579E+00  (-0.4824310E-01)
 number of electron     376.0000053 magnetization 
 augmentation part      112.8940933 magnetization 

 Broyden mixing:
  rms(total) = 0.32556E+00    rms(broyden)= 0.32525E+00
  rms(prec ) = 0.42654E+00
  weight for this iteration     100.00

 eigenvalues of (default mixing * dielectric matrix)
  average eigenvalue GAMMA=   0.5757
  1.5358  0.8240  0.3651  0.3651  0.1355  0.2284

 Free energy of the ion-electron system (eV)
  ---------------------------------------------------
  alpha Z        PSCENC =       975.10247152
  Ewald energy   TEWEN  =     91638.41306598
  -Hartree energ DENC   =   -120340.35996144
  -exchange      EXHF   =         0.00000000
  -V(xc)+E(xc)   XCENC  =       178.61108453
  PAW double counting   =     29317.48610206   -28394.29799057
  entropy T*S    EENTRO =        -0.03152327
  eigenvalues    EBANDS =      -865.20287905
  atomic energy  EATOM  =     27259.89416086
  Solvation  Ediel_sol  =         0.00000000
  ---------------------------------------------------
  free energy    TOTEN  =      -230.38546936 eV

  energy without entropy =     -230.35394610  energy(sigma->0) =     -230.37496161


--------------------------------------------------------------------------------------------------------




--------------------------------------- Iteration      1(  12)  ---------------------------------------


    POTLOK:  cpu time    0.1329: real time    0.1337
    SETDIJ:  cpu time    0.0126: real time    0.0127
    EDDIAG:  cpu time    1.3732: real time    1.3813
  RMM-DIIS:  cpu time    4.9504: real time    5.0753
    ORTHCH:  cpu time    0.2434: real time    0.2449
       DOS:  cpu time    0.0012: real time    0.0012
    CHARGE:  cpu time    0.4085: real time    0.4111
    MIXING:  cpu time    0.0070: real time    0.0070
    --------------------------------------------
      LOOP:  cpu time    7.1292: real time    7.2672

 eigenvalue-minimisations  :  1848
 total energy-change (2. order) : 0.1672504E+00  (-0.1898441E-01)
 number of electron     376.0000052 magnetization 
 augmentation part      112.9662772 magnetization 

 Broyden mixing:
  rms(total) = 0.19989E+00    rms(broyden)= 0.19983E+00
  rms(prec ) = 0.22417E+00
  weight for this iteration     100.00

 eigenvalues of (default mixing * dielectric matrix)
  average eigenvalue GAMMA=   0.6523
  1.7830  1.0060  0.6252  0.4759  0.1358  0.2916  0.2482

 Free energy of the ion-electron system (eV)
  ---------------------------------------------------
  alpha Z        PSCENC =       975.10247152
  Ewald energy   TEWEN  =     91638.41306598
  -Hartree energ DENC   =   -120329.66205132
  -exchange      EXHF   =         0.00000000
  -V(xc)+E(xc)   XCENC  =       178.57398909
  PAW double counting   =     29593.75599659   -28673.96189484
  entropy T*S    EENTRO =        -0.02835147
  eigenvalues    EBANDS =      -872.30560537
  atomic energy  EATOM  =     27259.89416086
  Solvation  Ediel_sol  =         0.00000000
  ---------------------------------------------------
  free energy    TOTEN  =      -230.21821895 eV

  energy without entropy =     -230.18986748  energy(sigma->0) =     -230.20876846


--------------------------------------------------------------------------------------------------------




--------------------------------------- Iteration      1(  13)  ---------------------------------------


    POTLOK:  cpu time    0.1677: real time    0.1689
    SETDIJ:  cpu time    0.0119: real time    0.0120
    EDDIAG:  cpu time    1.3222: real time    1.3302
  RMM-DIIS:  cpu time    4.9834: real time    5.0134
    ORTHCH:  cpu time    0.2297: real time    0.2309
       DOS:  cpu time    0.0011: real time    0.0011
    CHARGE:  cpu time    0.3533: real time    0.3552
    MIXING:  cpu time    0.0058: real time    0.0058
    --------------------------------------------
      LOOP:  cpu time    7.0751: real time    7.1175

 eigenvalue-minimisations  :  1831
 total energy-change (2. order) :-0.1110702E-01  (-0.1252892E-01)
 number of electron     376.0000053 magnetization 
 augmentation part      112.9700547 magnetization 

 Broyden mixing:
  rms(total) = 0.19969E+00    rms(broyden)= 0.19968E+00
  rms(prec ) = 0.24571E+00
  weight for this iteration     100.00

 eigenvalues of (default mixing * dielectric matrix)
  average eigenvalue GAMMA=   0.6873
  2.0509  1.1238  0.9038  0.1358  0.4120  0.3450  0.2953  0.2319

 Free energy of the ion-electron system (eV)
  ---------------------------------------------------
  alpha Z        PSCENC =       975.10247152
  Ewald energy   TEWEN  =     91638.41306598
  -Hartree energ DENC   =   -120328.17524011
  -exchange      EXHF   =         0.00000000
  -V(xc)+E(xc)   XCENC  =       178.47720197
  PAW double counting   =     29834.22573889   -28917.29272951
  entropy T*S    EENTRO =        -0.02006062
  eigenvalues    EBANDS =      -870.85393495
  atomic energy  EATOM  =     27259.89416086
  Solvation  Ediel_sol  =         0.00000000
  ---------------------------------------------------
  free energy    TOTEN  =      -230.22932597 eV

  energy without entropy =     -230.20926535  energy(sigma->0) =     -230.22263910


--------------------------------------------------------------------------------------------------------




--------------------------------------- Iteration      1(  14)  ---------------------------------------


    POTLOK:  cpu time    0.1226: real time    0.1234
    SETDIJ:  cpu time    0.0109: real time    0.0110
    EDDIAG:  cpu time    1.4023: real time    1.4105
  RMM-DIIS:  cpu time    5.1017: real time    5.1321
    ORTHCH:  cpu time    0.2281: real time    0.2292
       DOS:  cpu time    0.0011: real time    0.0011
    CHARGE:  cpu time    0.4670: real time    0.4699
    MIXING:  cpu time    0.0077: real time    0.0078
    --------------------------------------------
      LOOP:  cpu time    7.3413: real time    7.3848

 eigenvalue-minimisations  :  1832
 total energy-change (2. order) : 0.5463384E-01  (-0.8587594E-02)
 number of electron     376.0000053 magnetization 
 augmentation part      112.9583267 magnetization 

 Broyden mixing:
  rms(total) = 0.84202E-01    rms(broyden)= 0.84190E-01
  rms(prec ) = 0.10243E+00
  weight for this iteration     100.00

 eigenvalues of (default mixing * dielectric matrix)
  average eigenvalue GAMMA=   0.7409
  2.4505  1.2822  0.8429  0.7320  0.4083  0.1358  0.3265  0.2572  0.2326

 Free energy of the ion-electron system (eV)
  ---------------------------------------------------
  alpha Z        PSCENC =       975.10247152
  Ewald energy   TEWEN  =     91638.41306598
  -Hartree energ DENC   =   -120332.10137654
  -exchange      EXHF   =         0.00000000
  -V(xc)+E(xc)   XCENC  =       178.40318286
  PAW double counting   =     30004.26712704   -29089.31220231
  entropy T*S    EENTRO =        -0.02161473
  eigenvalues    EBANDS =      -864.81950682
  atomic energy  EATOM  =     27259.89416086
  Solvation  Ediel_sol  =         0.00000000
  ---------------------------------------------------
  free energy    TOTEN  =      -230.17469214 eV

  energy without entropy =     -230.15307741  energy(sigma->0) =     -230.16748723


--------------------------------------------------------------------------------------------------------




--------------------------------------- Iteration      1(  15)  ---------------------------------------


    POTLOK:  cpu time    0.1504: real time    0.1515
    SETDIJ:  cpu time    0.0129: real time    0.0130
    EDDIAG:  cpu time    2.0495: real time    2.0632
  RMM-DIIS:  cpu time    5.3500: real time    5.3821
    ORTHCH:  cpu time    0.2190: real time    0.2200
       DOS:  cpu time    0.0011: real time    0.0011
    CHARGE:  cpu time    0.3770: real time    0.3790
    MIXING:  cpu time    0.0067: real time    0.0067
    --------------------------------------------
      LOOP:  cpu time    8.1665: real time    8.2166

 eigenvalue-minimisations  :  1831
 total energy-change (2. order) : 0.2941743E-02  (-0.3145559E-02)
 number of electron     376.0000053 magnetization 
 augmentation part      112.9480573 magnetization 

 Broyden mixing:
  rms(total) = 0.66634E-01    rms(broyden)= 0.66594E-01
  rms(prec ) = 0.80441E-01
  weight for this iteration     100.00

 eigenvalues of (default mixing * dielectric matrix)
  average eigenvalue GAMMA=   0.7131
  2.5287  1.2868  0.8099  0.8099  0.1358  0.4134  0.3592  0.3022  0.2546  0.2301

 Free energy of the ion-electron system (eV)
  ---------------------------------------------------
  alpha Z        PSCENC =       975.10247152
  Ewald energy   TEWEN  =     91638.41306598
  -Hartree energ DENC   =   -120332.19926439
  -exchange      EXHF   =         0.00000000
  -V(xc)+E(xc)   XCENC  =       178.37435027
  PAW double counting   =     30113.34205496   -29199.57206754
  entropy T*S    EENTRO =        -0.01840059
  eigenvalues    EBANDS =      -863.50812147
  atomic energy  EATOM  =     27259.89416086
  Solvation  Ediel_sol  =         0.00000000
  ---------------------------------------------------
  free energy    TOTEN  =      -230.17175039 eV

  energy without entropy =     -230.15334980  energy(sigma->0) =     -230.16561686


--------------------------------------------------------------------------------------------------------




--------------------------------------- Iteration      1(  16)  ---------------------------------------


    POTLOK:  cpu time    0.1182: real time    0.1189
    SETDIJ:  cpu time    0.0097: real time    0.0098
    EDDIAG:  cpu time    1.1614: real time    1.1678
  RMM-DIIS:  cpu time    3.9924: real time    4.0158
    ORTHCH:  cpu time    0.2498: real time    0.2513
       DOS:  cpu time    0.0012: real time    0.0013
    CHARGE:  cpu time    0.5757: real time    0.5791
    MIXING:  cpu time    0.0107: real time    0.0107
    --------------------------------------------
      LOOP:  cpu time    6.1192: real time    6.1546

 eigenvalue-minimisations  :  1830
 total energy-change (2. order) : 0.6594343E-02  (-0.8163141E-03)
 number of electron     376.0000053 magnetization 
 augmentation part      112.9516241 magnetization 

 Broyden mixing:
  rms(total) = 0.26723E-01    rms(broyden)= 0.26720E-01
  rms(prec ) = 0.33313E-01
  weight for this iteration     100.00

 eigenvalues of (default mixing * dielectric matrix)
  average eigenvalue GAMMA=   0.6900
  2.5227  1.2740  0.8055  0.8055  0.5600  0.1358  0.4038  0.3027  0.3027  0.2461
  0.2312

 Free energy of the ion-electron system (eV)
  ---------------------------------------------------
  alpha Z        PSCENC =       975.10247152
  Ewald energy   TEWEN  =     91638.41306598
  -Hartree energ DENC   =   -120332.58821663
  -exchange      EXHF   =         0.00000000
  -V(xc)+E(xc)   XCENC  =       178.37991081
  PAW double counting   =     30129.97209800   -29216.36480694
  entropy T*S    EENTRO =        -0.01961350
  eigenvalues    EBANDS =      -862.95422616
  atomic energy  EATOM  =     27259.89416086
  Solvation  Ediel_sol  =         0.00000000
  ---------------------------------------------------
  free energy    TOTEN  =      -230.16515605 eV

  energy without entropy =     -230.14554255  energy(sigma->0) =     -230.15861821


--------------------------------------------------------------------------------------------------------




--------------------------------------- Iteration      1(  17)  ---------------------------------------


    POTLOK:  cpu time    0.1838: real time    0.1848
    SETDIJ:  cpu time    0.0095: real time    0.0095
    EDDIAG:  cpu time    1.2317: real time    1.2387
  RMM-DIIS:  cpu time    5.3364: real time    5.3698
    ORTHCH:  cpu time    0.2316: real time    0.2329
       DOS:  cpu time    0.0011: real time    0.0011
    CHARGE:  cpu time    0.5078: real time    0.5110
    MIXING:  cpu time    0.0082: real time    0.0082
    --------------------------------------------
      LOOP:  cpu time    7.5101: real time    7.5562

 eigenvalue-minimisations  :  1821
 total energy-change (2. order) : 0.6512259E-03  (-0.1692432E-03)
 number of electron     376.0000053 magnetization 
 augmentation part      112.9523378 magnetization 

 Broyden mixing:
  rms(total) = 0.15485E-01    rms(broyden)= 0.15478E-01
  rms(prec ) = 0.18185E-01
  weight for this iteration     100.00

 eigenvalues of (default mixing * dielectric matrix)
  average eigenvalue GAMMA=   0.7556
  2.5104  1.3766  1.3766  0.9086  0.9086  0.4414  0.1358  0.3403  0.3403  0.2628
  0.2387  0.2275

 Free energy of the ion-electron system (eV)
  ---------------------------------------------------
  alpha Z        PSCENC =       975.10247152
  Ewald energy   TEWEN  =     91638.41306598
  -Hartree energ DENC   =   -120333.09964989
  -exchange      EXHF   =         0.00000000
  -V(xc)+E(xc)   XCENC  =       178.38594910
  PAW double counting   =     30128.84545193   -29215.19696017
  entropy T*S    EENTRO =        -0.01960642
  eigenvalues    EBANDS =      -862.48938774
  atomic energy  EATOM  =     27259.89416086
  Solvation  Ediel_sol  =         0.00000000
  ---------------------------------------------------
  free energy    TOTEN  =      -230.16450482 eV

  energy without entropy =     -230.14489840  energy(sigma->0) =     -230.15796935


--------------------------------------------------------------------------------------------------------




--------------------------------------- Iteration      1(  18)  ---------------------------------------


    POTLOK:  cpu time    0.1653: real time    0.1663
    SETDIJ:  cpu time    0.0100: real time    0.0101
    EDDIAG:  cpu time    2.1122: real time    2.1268
  RMM-DIIS:  cpu time    6.9691: real time    7.0125
    ORTHCH:  cpu time    0.2492: real time    0.2506
       DOS:  cpu time    0.0014: real time    0.0014
    CHARGE:  cpu time    0.4971: real time    0.4999
    MIXING:  cpu time    0.0081: real time    0.0082
    --------------------------------------------
      LOOP:  cpu time   10.0125: real time   10.0759

 eigenvalue-minimisations  :  1799
 total energy-change (2. order) :-0.4408088E-03  (-0.9123332E-04)
 number of electron     376.0000053 magnetization 
 augmentation part      112.9482300 magnetization 

 Broyden mixing:
  rms(total) = 0.12058E-01    rms(broyden)= 0.12056E-01
  rms(prec ) = 0.14910E-01
  weight for this iteration     100.00

 eigenvalues of (default mixing * dielectric matrix)
  average eigenvalue GAMMA=   0.7557
  2.4624  1.9173  1.3352  0.8803  0.8803  0.1358  0.4444  0.3755  0.3351  0.3351
  0.2575  0.2383  0.2266

 Free energy of the ion-electron system (eV)
  ---------------------------------------------------
  alpha Z        PSCENC =       975.10247152
  Ewald energy   TEWEN  =     91638.41306598
  -Hartree energ DENC   =   -120334.29508268
  -exchange      EXHF   =         0.00000000
  -V(xc)+E(xc)   XCENC  =       178.39484124
  PAW double counting   =     30125.79177427   -29212.01933445
  entropy T*S    EENTRO =        -0.01943401
  eigenvalues    EBANDS =      -861.42740836
  atomic energy  EATOM  =     27259.89416086
  Solvation  Ediel_sol  =         0.00000000
  ---------------------------------------------------
  free energy    TOTEN  =      -230.16494563 eV

  energy without entropy =     -230.14551162  energy(sigma->0) =     -230.15846763


--------------------------------------------------------------------------------------------------------




--------------------------------------- Iteration      1(  19)  ---------------------------------------


    POTLOK:  cpu time    0.1359: real time    0.1367
    SETDIJ:  cpu time    0.0108: real time    0.0108
    EDDIAG:  cpu time    1.7645: real time    1.7748
  RMM-DIIS:  cpu time    3.6533: real time    3.6756
    ORTHCH:  cpu time    0.2912: real time    0.2928
       DOS:  cpu time    0.0012: real time    0.0012
    --------------------------------------------
      LOOP:  cpu time    5.8567: real time    5.8919

 eigenvalue-minimisations  :  1311
 total energy-change (2. order) :-0.4790510E-04  (-0.3932502E-04)
 number of electron     376.0000053 magnetization 
 augmentation part      112.9482300 magnetization 

 Free energy of the ion-electron system (eV)
  ---------------------------------------------------
  alpha Z        PSCENC =       975.10247152
  Ewald energy   TEWEN  =     91638.41306598
  -Hartree energ DENC   =   -120335.16862945
  -exchange      EXHF   =         0.00000000
  -V(xc)+E(xc)   XCENC  =       178.39994394
  PAW double counting   =     30123.86573271   -29210.03683649
  entropy T*S    EENTRO =        -0.01951901
  eigenvalues    EBANDS =      -860.61538360
  atomic energy  EATOM  =     27259.89416086
  Solvation  Ediel_sol  =         0.00000000
  ---------------------------------------------------
  free energy    TOTEN  =      -230.16499354 eV

  energy without entropy =     -230.14547452  energy(sigma->0) =     -230.15848720


--------------------------------------------------------------------------------------------------------




 average (electrostatic) potential at core
  the test charge radii are     0.6991  0.7215  1.2059
  (the norm of the test charge is              1.0000)
       1 -56.2508       2 -74.4519       3 -76.0998       4 -72.3449       5 -72.3585
       6 -72.3417       7 -72.3300       8 -72.3593       9 -72.3476      10 -72.3239
      11 -72.3497      12 -72.3333      13 -72.8955      14 -72.9962      15 -72.9801
      16 -73.0613      17 -73.0015      18 -73.0085      19 -73.0462      20 -73.0062
      21 -72.9707      22 -73.0045      23 -72.9631      24 -72.9279      25 -73.1165
      26 -73.0444      27 -73.0544      28 -73.0023      29 -73.0000      30 -72.9355
      31 -72.2853      32 -72.3611      33 -72.6351      34 -72.5083      35 -72.4777
      36 -73.3320      37 -72.5676      38 -73.1257      39 -72.5174
 
 
 
 E-fermi :   1.0649     XC(G=0):  -6.6110     alpha+bet : -6.8913


 k-point     1 :       0.0000    0.0000    0.0000
  band No.  band energies     occupation 
      1     -22.0118      2.00000
      2     -16.4913      2.00000
      3      -8.7041      2.00000
      4      -8.1284      2.00000
      5      -6.8737      2.00000
      6      -5.9530      2.00000
      7      -5.8643      2.00000
      8      -5.8109      2.00000
      9      -5.7066      2.00000
     10      -5.6931      2.00000
     11      -5.6537      2.00000
     12      -5.6349      2.00000
     13      -5.5900      2.00000
     14      -5.5822      2.00000
     15      -5.3996      2.00000
     16      -5.2783      2.00000
     17      -5.1508      2.00000
     18      -5.1267      2.00000
     19      -5.0835      2.00000
     20      -5.0613      2.00000
     21      -5.0379      2.00000
     22      -5.0292      2.00000
     23      -4.7036      2.00000
     24      -4.6561      2.00000
     25      -4.6272      2.00000
     26      -4.5922      2.00000
     27      -4.5350      2.00000
     28      -4.5221      2.00000
     29      -4.4579      2.00000
     30      -4.4112      2.00000
     31      -4.3744      2.00000
     32      -4.3546      2.00000
     33      -4.3392      2.00000
     34      -4.2909      2.00000
     35      -4.1963      2.00000
     36      -4.1734      2.00000
     37      -4.1578      2.00000
     38      -4.1441      2.00000
     39      -4.1153      2.00000
     40      -4.1003      2.00000
     41      -4.0962      2.00000
     42      -4.0661      2.00000
     43      -4.0494      2.00000
     44      -4.0228      2.00000
     45      -4.0046      2.00000
     46      -3.9847      2.00000
     47      -3.6333      2.00000
     48      -3.5811      2.00000
     49      -3.5322      2.00000
     50      -3.4927      2.00000
     51      -3.4794      2.00000
     52      -3.4503      2.00000
     53      -3.4257      2.00000
     54      -3.4215      2.00000
     55      -3.3862      2.00000
     56      -3.3642      2.00000
     57      -3.3216      2.00000
     58      -3.2479      2.00000
     59      -3.1972      2.00000
     60      -3.1842      2.00000
     61      -2.9442      2.00000
     62      -2.8035      2.00000
     63      -2.7326      2.00000
     64      -2.6599      2.00000
     65      -2.6431      2.00000
     66      -2.6236      2.00000
     67      -2.5837      2.00000
     68      -2.5493      2.00000
     69      -2.5313      2.00000
     70      -2.4920      2.00000
     71      -2.4677      2.00000
     72      -2.4646      2.00000
     73      -2.4420      2.00000
     74      -2.4202      2.00000
     75      -2.4047      2.00000
     76      -2.3921      2.00000
     77      -2.3795      2.00000
     78      -2.3550      2.00000
     79      -2.3475      2.00000
     80      -2.3376      2.00000
     81      -2.3222      2.00000
     82      -2.3165      2.00000
     83      -2.2853      2.00000
     84      -2.2664      2.00000
     85      -2.2228      2.00000
     86      -2.1822      2.00000
     87      -2.1732      2.00000
     88      -2.1592      2.00000
     89      -2.1214      2.00000
     90      -2.1036      2.00000
     91      -2.0671      2.00000
     92      -2.0298      2.00000
     93      -2.0070      2.00000
     94      -1.9583      2.00000
     95      -1.9379      2.00000
     96      -1.9326      2.00000
     97      -1.9093      2.00000
     98      -1.8748      2.00000
     99      -1.8455      2.00000
    100      -1.7801      2.00000
    101      -1.7234      2.00000
    102      -1.6683      2.00000
    103      -1.6513      2.00000
    104      -1.6376      2.00000
    105      -1.6114      2.00000
    106      -1.5781      2.00000
    107      -1.5641      2.00000
    108      -1.5570      2.00000
    109      -1.5263      2.00000
    110      -1.5147      2.00000
    111      -1.5098      2.00000
    112      -1.5040      2.00000
    113      -1.4700      2.00000
    114      -1.3730      2.00000
    115      -1.3261      2.00000
    116      -1.2173      2.00000
    117      -1.1448      2.00000
    118      -1.1054      2.00000
    119      -1.0664      2.00000
    120      -1.0472      2.00000
    121      -1.0166      2.00000
    122      -0.9870      2.00000
    123      -0.9818      2.00000
    124      -0.9271      2.00000
    125      -0.8958      2.00000
    126      -0.8560      2.00000
    127      -0.8498      2.00000
    128      -0.8148      2.00000
    129      -0.7292      2.00000
    130      -0.7253      2.00000
    131      -0.7088      2.00000
    132      -0.6642      2.00000
    133      -0.6564      2.00000
    134      -0.6319      2.00000
    135      -0.5023      2.00000
    136      -0.4598      2.00000
    137      -0.4114      2.00000
    138      -0.3931      2.00000
    139      -0.3797      2.00000
    140      -0.3589      2.00000
    141      -0.3050      2.00000
    142      -0.2449      2.00000
    143      -0.2098      2.00000
    144      -0.1830      2.00000
    145      -0.1761      2.00000
    146      -0.1501      2.00000
    147      -0.0995      2.00000
    148      -0.0910      2.00000
    149      -0.0408      2.00000
    150       0.0137      2.00000
    151       0.0265      2.00000
    152       0.0600      2.00000
    153       0.0739      2.00000
    154       0.0933      2.00000
    155       0.1190      2.00000
    156       0.1516      2.00000
    157       0.1646      2.00000
    158       0.2266      2.00000
    159       0.2344      2.00000
    160       0.2508      2.00000
    161       0.2644      2.00000
    162       0.3100      2.00000
    163       0.3129      2.00000
    164       0.3274      2.00000
    165       0.3418      2.00000
    166       0.3478      2.00000
    167       0.4042      2.00003
    168       0.4350      2.00008
    169       0.4408      2.00009
    170       0.4825      2.00030
    171       0.4920      2.00039
    172       0.5112      2.00064
    173       0.5652      2.00233
    174       0.5995      2.00485
    175       0.6104      2.00602
    176       0.6136      2.00642
    177       0.6484      2.01214
    178       0.6587      2.01445
    179       0.6667      2.01645
    180       0.6893      2.02324
    181       0.7076      2.02991
    182       0.7322      2.04035
    183       0.7721      2.05844
    184       0.7862      2.06401
    185       0.7888      2.06492
    186       0.7960      2.06719
    187       0.7995      2.06812
    188       0.8073      2.06979
    189       0.8153      2.07075
    190       0.8177      2.07088
    191       0.8298      2.07012
    192       0.8320      2.06971
    193       0.8487      2.06323
    194       0.8967      1.99962
    195       0.9184      1.94139
    196       1.0601      1.04057
    197       1.0782      0.88720
    198       1.1513      0.33876
    199       1.1628      0.27127
    200       1.1840      0.16379
    201       1.1985      0.10351
    202       1.2040      0.08326
    203       1.2257      0.01787
    204       1.3900     -0.04378
    205       1.4566     -0.01822
    206       1.9302     -0.00000
    207       1.9976     -0.00000
    208       2.0233     -0.00000
    209       2.0540     -0.00000
    210       2.1414     -0.00000
    211       2.5196     -0.00000
    212       3.5461     -0.00000
    213       4.0200     -0.00000
    214       4.3108     -0.00000
    215       4.3378     -0.00000
    216       4.4110     -0.00000
    217       4.6156     -0.00000
    218       4.9018     -0.00000
    219       5.4532     -0.00000
    220       5.6967     -0.00000
    221       5.8434     -0.00000
    222       5.8579     -0.00000
    223       5.8844     -0.00000
    224       5.9146     -0.00000
    225       5.9639     -0.00000
    226       6.1559     -0.00000
    227       6.5470      0.00000
    228       6.8813      0.00000

 k-point     2 :       0.5000    0.0000    0.0000
  band No.  band energies     occupation 
      1     -22.0117      2.00000
      2     -16.4909      2.00000
      3      -8.6805      2.00000
      4      -7.3102      2.00000
      5      -7.2354      2.00000
      6      -6.1211      2.00000
      7      -6.0818      2.00000
      8      -5.8882      2.00000
      9      -5.8772      2.00000
     10      -5.6952      2.00000
     11      -5.4771      2.00000
     12      -5.4463      2.00000
     13      -5.3488      2.00000
     14      -5.2779      2.00000
     15      -5.0501      2.00000
     16      -4.9848      2.00000
     17      -4.9127      2.00000
     18      -4.9004      2.00000
     19      -4.8873      2.00000
     20      -4.8502      2.00000
     21      -4.8407      2.00000
     22      -4.8320      2.00000
     23      -4.7912      2.00000
     24      -4.7752      2.00000
     25      -4.7694      2.00000
     26      -4.7441      2.00000
     27      -4.6951      2.00000
     28      -4.6834      2.00000
     29      -4.6607      2.00000
     30      -4.5955      2.00000
     31      -4.4127      2.00000
     32      -4.3718      2.00000
     33      -4.3419      2.00000
     34      -4.3208      2.00000
     35      -4.3067      2.00000
     36      -4.1532      2.00000
     37      -4.0950      2.00000
     38      -4.0796      2.00000
     39      -4.0375      2.00000
     40      -4.0254      2.00000
     41      -3.9920      2.00000
     42      -3.9279      2.00000
     43      -3.8932      2.00000
     44      -3.8105      2.00000
     45      -3.7790      2.00000
     46      -3.7555      2.00000
     47      -3.7124      2.00000
     48      -3.6961      2.00000
     49      -3.6814      2.00000
     50      -3.6508      2.00000
     51      -3.5101      2.00000
     52      -3.4838      2.00000
     53      -3.4665      2.00000
     54      -3.4194      2.00000
     55      -3.3790      2.00000
     56      -3.3559      2.00000
     57      -3.2362      2.00000
     58      -3.2285      2.00000
     59      -3.1995      2.00000
     60      -3.1447      2.00000
     61      -3.1205      2.00000
     62      -3.0874      2.00000
     63      -3.0528      2.00000
     64      -3.0282      2.00000
     65      -2.9801      2.00000
     66      -2.9642      2.00000
     67      -2.9080      2.00000
     68      -2.8605      2.00000
     69      -2.8331      2.00000
     70      -2.7964      2.00000
[...]
     86      -2.2096      2.00000
     87      -2.1951      2.00000
     88      -2.1761      2.00000
     89      -2.1612      2.00000
     90      -2.1340      2.00000
     91      -2.1168      2.00000
     92      -2.0968      2.00000
     93      -2.0694      2.00000
     94      -1.9971      2.00000
     95      -1.9857      2.00000
     96      -1.9804      2.00000
     97      -1.9065      2.00000
     98      -1.8894      2.00000
     99      -1.8619      2.00000
    100      -1.8179      2.00000
    101      -1.7788      2.00000
    102      -1.7622      2.00000
    103      -1.7385      2.00000
    104      -1.7185      2.00000
    105      -1.7099      2.00000
    106      -1.6986      2.00000
    107      -1.6765      2.00000
    108      -1.6546      2.00000
    109      -1.6314      2.00000
    110      -1.5506      2.00000
    111      -1.5334      2.00000
    112      -1.4641      2.00000
    113      -1.4587      2.00000
    114      -1.4093      2.00000
    115      -1.3212      2.00000
    116      -1.2945      2.00000
    117      -1.2302      2.00000
    118      -1.2041      2.00000
    119      -1.1486      2.00000
    120      -1.1049      2.00000
    121      -1.0947      2.00000
    122      -1.0583      2.00000
    123      -1.0429      2.00000
    124      -1.0125      2.00000
    125      -0.9731      2.00000
    126      -0.9593      2.00000
    127      -0.9492      2.00000
    128      -0.9282      2.00000
    129      -0.9080      2.00000
    130      -0.8947      2.00000
    131      -0.8681      2.00000
    132      -0.8216      2.00000
    133      -0.7508      2.00000
    134      -0.7443      2.00000
    135      -0.7206      2.00000
    136      -0.7150      2.00000
    137      -0.6894      2.00000
    138      -0.6333      2.00000
    139      -0.6035      2.00000
    140      -0.5499      2.00000
    141      -0.4974      2.00000
    142      -0.4713      2.00000
    143      -0.3930      2.00000
    144      -0.3276      2.00000
    145      -0.2677      2.00000
    146      -0.1802      2.00000
    147      -0.1597      2.00000
    148      -0.1328      2.00000
    149      -0.0909      2.00000
    150      -0.0686      2.00000
    151      -0.0368      2.00000
    152       0.0045      2.00000
    153       0.0360      2.00000
    154       0.0691      2.00000
    155       0.0889      2.00000
    156       0.1039      2.00000
    157       0.1114      2.00000
    158       0.1804      2.00000
    159       0.1966      2.00000
    160       0.2252      2.00000
    161       0.2474      2.00000
    162       0.2979      2.00000
    163       0.3219      2.00000
    164       0.3275      2.00000
    165       0.3485      2.00000
    166       0.3782      2.00001
    167       0.5382      2.00071
    168       0.5775      2.00182
    169       0.6077      2.00354
    170       0.6150      2.00413
    171       0.6323      2.00586
    172       0.6733      2.01249
    173       0.6844      2.01503
    174       0.7745      2.04906
    175       0.7861      2.05436
    176       0.8101      2.06423
    177       0.8388      2.07077
    178       0.8518      2.07032
    179       0.9029      2.03143
    180       0.9271      1.98273
    181       0.9373      1.95484
    182       1.0059      1.63501
    183       1.0341      1.43976
    184       1.0791      1.07668
    185       1.0903      0.98207
    186       1.1020      0.88325
    187       1.1311      0.64602
    188       1.1464      0.52949
    189       1.1533      0.47992
    190       1.1631      0.41223
    191       1.2960     -0.05741
    192       1.3159     -0.06835
    193       1.3596     -0.06644
    194       1.3931     -0.05309
    195       1.4070     -0.04668
    196       1.4849     -0.01686
    197       1.5861     -0.00243
    198       1.7285     -0.00006
    199       1.8166     -0.00000
    200       1.9803     -0.00000
    201       2.2629     -0.00000
    202       2.3340     -0.00000
    203       2.7731     -0.00000
    204       2.9449     -0.00000
    205       2.9468     -0.00000
    206       2.9780     -0.00000
    207       3.0055     -0.00000
    208       3.2339     -0.00000
    209       3.4128     -0.00000
    210       3.5086     -0.00000
    211       3.5771     -0.00000
    212       3.6018     -0.00000
    213       3.7196     -0.00000
    214       3.7897     -0.00000
    215       3.9379     -0.00000
    216       4.1512     -0.00000
    217       4.2480     -0.00000
    218       4.3826     -0.00000
    219       4.4276     -0.00000
    220       4.6215     -0.00000
    221       4.6780     -0.00000
    222       4.8478     -0.00000
    223       5.2257     -0.00000
    224       5.5236     -0.00000
    225       6.0477     -0.00000
    226       6.5248     -0.00000
    227       6.5564      0.00000
    228       6.5951      0.00000


--------------------------------------------------------------------------------------------------------


 soft charge-density along one line, spin component           1
         0         1         2         3         4         5         6         7         8         9
 total charge-density along one line
 
 pseudopotential strength for first ion, spin component:           1
 10.098   0.015   0.004   0.011  -0.000  -0.004  -0.010   0.001
  0.015  -0.002  -0.000  -0.000  -0.000  -0.000  -0.000   0.000
  0.004  -0.000  -4.243  -0.007   0.001  -0.011  -0.003   0.000
  0.011  -0.000  -0.007  -4.261   0.005  -0.003  -0.017   0.001
 -0.000  -0.000   0.001   0.005  -4.241   0.000   0.001  -0.010
 -0.004  -0.000  -0.011  -0.003   0.000  -0.770  -0.000   0.000
 -0.010  -0.000  -0.003  -0.017   0.001  -0.000  -0.770   0.000
  0.001   0.000   0.000   0.001  -0.010   0.000   0.000  -0.770
 total augmentation occupancy for first ion, spin component:           1
  1.634  -0.905   0.021   0.024  -0.066   0.034   0.089  -0.029
 -0.905   1.290  -0.209  -0.579   0.122  -0.085  -0.240   0.044
  0.021  -0.209   0.854   0.191  -0.002   0.118   0.054  -0.007
  0.024  -0.579   0.191   1.344  -0.026   0.054   0.251  -0.015
 -0.066   0.122  -0.002  -0.026   0.806  -0.007  -0.016   0.104
  0.034  -0.085   0.118   0.054  -0.007   0.021   0.021  -0.004
  0.089  -0.240   0.054   0.251  -0.016   0.021   0.072  -0.009
 -0.029   0.044  -0.007  -0.015   0.104  -0.004  -0.009   0.015


------------------------ aborting loop because EDIFF is reached ----------------------------------------


    CHARGE:  cpu time    0.3860: real time    0.3880
    FORLOC:  cpu time    0.0620: real time    0.0623
    FORNL :  cpu time    1.9472: real time    1.9588
    STRESS:  cpu time    4.5441: real time    4.5698
    FORCOR:  cpu time    0.1332: real time    0.1339
    FORHAR:  cpu time    0.0619: real time    0.0622
    MIXING:  cpu time    0.0046: real time    0.0046
    OFIELD:  cpu time    0.0000: real time    0.0000

  FORCE on cell =-STRESS in cart. coord.  units (eV):
  Direction    XX          YY          ZZ          XY          YZ          ZX
  --------------------------------------------------------------------------------------
  Alpha Z   975.10247   975.10247   975.10247
  Ewald  111385.11213111400.73296************  -180.22005   240.20450   -96.49376
  Hartree118135.68792118127.93130************  -115.42612   102.59559   -53.54717
  E(xc)   -1666.10347 -1665.88165 -1673.51777    -0.46096     0.65549    -0.25863
  Local  ************************240250.53261   285.48652  -320.50786   142.76591
  n-local   123.21049   123.16870    89.77943    -1.03603     1.45829     0.38630
  augment  1895.24342  1893.25272  1932.96326     2.48122    -3.93073     0.82314
  Kinetic  5523.65311  5515.30691  5602.78653     9.93899   -19.75419     7.26074
  Fock        0.00000     0.00000     0.00000     0.00000     0.00000     0.00000
  -------------------------------------------------------------------------------------
  Total     -35.89228   -37.90424    -1.00305     0.76357     0.72107     0.93652
  in kB     -42.74829   -45.14457    -1.19465     0.90943     0.85881     1.11542
  external pressure =      -29.70 kB  Pullay stress =        0.00 kB


 VOLUME and BASIS-vectors are now :
 -----------------------------------------------------------------------------
  energy-cutoff  :      450.00
  volume of cell :     1345.22
      direct lattice vectors                 reciprocal lattice vectors
     7.296955120 -4.212899000  0.000000000     0.137043463  0.000000000  0.000000000
     0.000000000  8.425798000  0.000000000     0.068521732  0.118683121  0.000000000
     0.000000000  0.000000000 21.879635000     0.000000000  0.000000000  0.045704602

  length of vectors
     8.425798004  8.425798000 21.879635000     0.137043463  0.137043463  0.045704602


 FORCES acting on ions
    electron-ion (+dipol)            ewald-force                    non-local-force                 convergence-correction
 -----------------------------------------------------------------------------------------------
   0.400E+01 0.105E+02 -.881E+03   -.428E+01 -.154E+02 0.868E+03   0.338E+00 0.319E+01 0.107E+02   -.615E-02 0.116E-01 0.827E-01
   -.847E+02 0.593E+02 -.159E+04   0.866E+02 -.578E+02 0.162E+04   -.131E+01 -.106E+01 -.223E+02   -.131E-01 0.444E-05 0.595E-01
   0.677E+02 -.105E+03 -.157E+04   -.786E+02 0.127E+03 0.163E+04   0.108E+02 -.206E+02 -.584E+02   0.123E-01 -.177E-01 0.104E-01
   0.651E+00 0.665E+00 0.234E+04   -.628E+00 -.736E+00 -.234E+04   0.354E-01 -.334E-01 -.119E+01   -.583E-01 0.756E-01 -.652E-01
   -.235E+00 0.669E+00 0.234E+04   0.148E+00 -.650E+00 -.234E+04   -.106E-02 -.415E-01 -.110E+01   0.438E-01 0.810E-02 -.802E-01
   0.442E+00 0.281E+00 0.234E+04   -.496E+00 -.288E+00 -.234E+04   0.527E-02 -.621E-03 -.113E+01   0.679E-01 0.883E-02 -.531E-01
   0.360E+00 -.606E+00 0.234E+04   -.330E+00 0.694E+00 -.234E+04   0.552E-02 0.544E-02 -.116E+01   -.375E-01 -.234E-01 -.524E-01
   -.825E+00 -.239E+00 0.234E+04   0.833E+00 0.197E+00 -.234E+04   0.219E-02 0.274E-01 -.126E+01   -.132E-01 0.441E-01 -.627E-01
   -.112E+00 -.983E-01 0.234E+04   0.666E-01 0.885E-01 -.234E+04   0.221E-01 0.238E-01 -.121E+01   0.491E-01 -.234E-01 -.401E-01
   -.273E+00 -.592E+00 0.234E+04   0.329E+00 0.450E+00 -.234E+04   -.738E-01 0.118E+00 -.111E+01   0.826E-02 -.524E-01 -.661E-01
   0.290E-01 -.149E+00 0.234E+04   -.117E-01 0.199E+00 -.234E+04   -.104E-01 -.334E-01 -.124E+01   -.622E-02 0.147E-01 -.402E-01
   0.124E-01 0.206E-02 0.234E+04   0.891E-01 0.426E-01 -.234E+04   -.241E-01 -.255E-02 -.978E+00   -.537E-01 -.522E-01 -.566E-01
   0.446E+00 0.330E-01 0.855E+03   -.547E+00 0.272E-02 -.854E+03   0.622E-01 -.126E-01 -.362E+00   -.111E-01 -.502E-01 -.245E-01
   -.670E+00 0.195E+01 0.857E+03   0.561E+00 -.189E+01 -.857E+03   0.888E-01 -.536E-01 -.320E-01   0.381E-01 -.189E-01 -.533E-01
   0.186E+01 -.125E+01 0.860E+03   -.170E+01 0.113E+01 -.860E+03   -.199E-01 0.149E+00 -.220E+00   -.743E-01 -.126E-01 -.373E-01
   -.476E+01 0.824E+01 0.868E+03   0.479E+01 -.838E+01 -.868E+03   0.889E-01 -.789E-01 -.424E+00   -.317E-03 0.469E-01 -.574E-01
   0.445E+00 -.261E+00 0.861E+03   -.555E+00 0.245E+00 -.860E+03   0.183E-01 0.344E-01 -.168E+00   0.900E-01 0.737E-02 -.425E-01
   0.881E+01 0.275E+01 0.863E+03   -.886E+01 -.275E+01 -.863E+03   -.984E-01 -.850E-01 -.241E+00   -.352E-01 0.404E-01 -.110E+00
   -.593E+01 -.820E+01 0.865E+03   0.597E+01 0.835E+01 -.865E+03   0.870E-01 0.180E-01 -.391E+00   -.174E-01 0.332E-02 -.787E-01
   -.105E+01 -.112E+01 0.860E+03   0.101E+01 0.113E+01 -.860E+03   0.319E-02 -.121E-01 -.232E+00   0.478E-01 0.116E-01 -.297E-01
   0.449E+00 -.933E+00 0.859E+03   -.357E+00 0.110E+01 -.859E+03   -.411E-02 -.990E-01 -.180E+00   -.381E-01 -.279E-01 -.511E-01
   0.660E+00 -.259E+01 -.602E+03   -.677E+00 0.254E+01 0.602E+03   -.181E+00 0.544E-01 0.152E+01   0.306E-02 0.206E-01 0.540E-02
   0.413E+00 -.184E+01 -.650E+03   -.431E+00 0.184E+01 0.649E+03   -.177E-01 0.103E+00 0.714E-02   0.487E-01 -.497E-03 0.651E-01
   0.342E+00 0.860E+00 -.653E+03   -.658E+00 -.549E+00 0.653E+03   0.409E+00 -.193E+00 -.301E+00   -.359E-01 -.419E-01 0.670E-01
   -.446E+01 0.186E+02 -.627E+03   0.398E+01 -.177E+02 0.628E+03   0.437E+00 -.951E+00 -.904E+00   -.294E-01 -.308E-01 0.122E+00
   0.150E+02 0.774E+01 -.617E+03   -.144E+02 -.790E+01 0.617E+03   -.761E+00 -.743E-01 -.206E+00   0.202E-01 -.591E-03 0.838E-01
   -.640E+01 -.130E+02 -.628E+03   0.630E+01 0.127E+02 0.628E+03   0.986E-01 0.315E+00 -.136E-01   -.244E-01 0.151E-01 0.786E-01
   -.154E+01 0.802E+00 -.621E+03   0.157E+01 -.704E+00 0.620E+03   -.524E-01 -.197E+00 0.337E+00   -.192E-01 -.932E-02 0.628E-01
   0.176E+00 -.693E+01 -.639E+03   -.218E+00 0.698E+01 0.639E+03   0.112E-01 0.867E-01 -.140E+00   0.722E-01 0.114E-02 0.765E-01
   -.446E+01 -.234E+01 -.624E+03   0.448E+01 0.208E+01 0.624E+03   0.157E+00 0.294E+00 -.851E-01   -.302E-01 0.481E-01 0.407E-01
   -.193E+02 0.780E+01 -.219E+04   0.197E+02 -.719E+01 0.219E+04   -.387E+00 -.913E+00 0.107E+01   0.424E-01 0.168E-01 0.104E+00
   0.216E+02 0.256E+02 -.218E+04   -.221E+02 -.265E+02 0.218E+04   0.309E+00 0.119E+01 0.127E+01   0.200E-01 -.274E-01 0.662E-01
   0.287E+02 -.897E+01 -.213E+04   -.290E+02 0.903E+01 0.212E+04   0.340E+00 -.106E+00 0.155E+01   -.140E-01 -.543E-02 0.588E-01
   -.165E+02 -.322E+01 -.218E+04   0.163E+02 0.282E+01 0.218E+04   0.226E+00 0.524E+00 0.988E+00   -.259E-01 0.918E-02 0.548E-01
   0.155E+02 0.300E+01 -.218E+04   -.156E+02 -.359E+01 0.217E+04   0.802E-01 0.680E+00 0.103E+01   0.397E-02 -.484E-03 0.625E-01
   0.717E+02 0.531E+02 -.197E+04   -.745E+02 -.514E+02 0.197E+04   0.268E+01 -.134E+01 -.280E+01   -.847E-02 -.235E-01 0.697E-01
   -.548E+02 -.384E+02 -.208E+04   0.563E+02 0.408E+02 0.207E+04   -.144E+01 -.273E+01 0.221E+01   -.968E-02 0.567E-01 0.830E-01
   -.685E+02 0.716E+02 -.202E+04   0.689E+02 -.722E+02 0.202E+04   -.472E+00 0.104E+01 -.488E-01   -.170E-01 -.639E-01 0.673E-01
   0.244E+02 -.552E+02 -.211E+04   -.241E+02 0.565E+02 0.211E+04   -.474E+00 -.131E+01 0.157E+01   0.206E-01 0.376E-01 0.399E-01
 -----------------------------------------------------------------------------------------------
   -.109E+02 0.222E+02 0.753E+02   0.746E-13 -.163E-12 0.500E-11   0.110E+02 -.221E+02 -.756E+02   0.965E-02 -.494E-02 0.360E+00
 
 
 POSITION                                       TOTAL-FORCE (eV/Angst)
 -----------------------------------------------------------------------------------
      5.10391      0.64614     10.32715         0.049257     -1.721904     -2.220676
      6.60389     -0.58339     10.14192         0.522846      0.345797     -0.033754
      4.91975      1.02607     11.38928        -0.031088      0.893008      2.163564
      7.20031     -1.38846      1.62732        -0.002136     -0.031137      0.111583
      2.33567      1.42014      1.62732        -0.046608     -0.016558      0.178739
      4.76799      0.01584      1.62732         0.017694     -0.001383      0.152670
      7.20031      1.42015      1.62732        -0.003832      0.067777      0.078220
      2.33567      4.22875      1.62732        -0.004694      0.026386      0.126355
      4.76799      2.82445      1.62732         0.023802     -0.011932      0.134038
      2.33567      7.03734      1.62732        -0.011634     -0.078287      0.067200
      4.76799      5.63304      1.62732        -0.001561      0.028594      0.140059
      7.20031      4.22874      1.62732         0.021472     -0.012551      0.060130
      1.52490      0.01584      3.92052        -0.051780     -0.029574      0.046268
      3.95722     -1.38846      3.92052         0.015647     -0.012706      0.174525
      6.38953     -2.79276      3.92052         0.059729      0.004867      0.019417
      1.52490      2.82445      3.92052         0.116840     -0.171657     -0.211840
      3.95722      1.42015      3.92052        -0.003476      0.022614      0.022550
      6.38953      0.01585      3.92052        -0.184258     -0.049968     -0.010569
      1.52490      5.63305      3.92052         0.099715      0.167572     -0.188078
      3.95722      4.22874      3.92052         0.016557      0.003135      0.083001
      6.38953      2.82445      3.92052         0.048285      0.041517     -0.065026
      0.73462      4.21232      6.12823        -0.198019      0.024233      0.787740
      3.15476      5.61032      6.23755         0.010399      0.096818     -0.357127
      5.55553     -1.39893      6.26170         0.053937      0.073884     -0.354421
      0.69336      1.44984      6.22253        -0.069142     -0.149791     -0.273099
      3.15800      0.00721      6.20914        -0.110357     -0.233514     -0.277899
      0.71620      7.01313      6.21426        -0.028814      0.093990     -0.352717
      5.59075      4.23621      6.19880        -0.041044     -0.110192     -0.190965
      3.15286      2.82021      6.22480         0.039412      0.131594     -0.320944
      5.57592      1.39296      6.22190         0.141894      0.083712     -0.407162
      2.34187      4.24838      8.54171         0.065319     -0.287460     -0.467773
      4.77623      5.55979      8.53758        -0.170265      0.234418     -0.266973
      2.32912      1.40347      8.42013         0.010152     -0.050489      0.380255
      7.21579      4.17762      8.49928         0.022136      0.129182      0.063361
      2.33687      6.99160      8.49643         0.005932      0.083210      0.132865
      4.66239      0.02342      8.56634        -0.162355      0.350302      0.159709
      7.24845      1.44700      8.47185         0.088132     -0.316736     -0.020446
      7.24232     -1.49668      8.50653        -0.086297      0.367090      0.776259
      4.80668      2.84597      8.45395        -0.221798      0.016141      0.160959
 -----------------------------------------------------------------------------------
    total drift:                                0.087067      0.094316      0.023215
  FORCES: max atom, RMS     2.810476    0.664209
  Number: max atom                 1
  FORCE total and by dimension    4.147981    2.220676


--------------------------------------------------------------------------------------------------------



  FREE ENERGIE OF THE ION-ELECTRON SYSTEM (eV)
  ---------------------------------------------------
  free  energy   TOTEN  =      -230.46151432 eV

  energy  without entropy=     -230.44065522  energy(sigma->0) =     -230.45456128
 
 d Force = 0.6842930E-01[-0.144E-01, 0.151E+00]  d Energy = 0.7217410E-01-0.374E-02
 d Force =-0.1089412E+01[-0.151E+01,-0.671E+00]  d Ewald  =-0.1085558E+01-0.385E-02


--------------------------------------------------------------------------------------------------------


    POTLOK:  cpu time    0.1359: real time    0.2347


--------------------------------------------------------------------------------------------------------


 stress matrix after NEB project (eV)
    -35.89228      0.76357      0.93652
      0.76357    -37.90424      0.72107
      0.93652      0.72107     -1.00305
  FORCES: max atom, RMS     2.810476    0.664209
  FORCE total and by dimension    4.147981    2.220676
  Stress total and by dimension   52.248951   37.904237
 Quasi-Newton relaxation of ions (Broydens 2nd method)
  g(Force)  = 0.332E+00   g(Stress)= 0.000E+00

 retain information from N=  2 steps
 eigenvalues of (default step * inverse Hessian matrix)
  average eigenvalue of G=   0.6338
 eigenvalue spectrum of G is  0.6379  0.6296
  RESET_HESSIAN           0


--------------------------------------------------------------------------------------------------------


    WAVPRE:  cpu time    0.0656: real time    0.2920
    FEWALD:  cpu time    0.0026: real time    0.0026

 real space projection operators:
  total allocation   :      13548.06 KBytes
  max/ min on nodes  :       6781.03       6767.03

    ORTHCH:  cpu time    0.7797: real time    0.7847
     LOOP+:  cpu time   57.0640: real time   58.0174


--------------------------------------- Iteration      4(   1)  ---------------------------------------


