metal                                   
           1
     7.296955   -4.212899    0.000000
     0.000000    8.425798    0.000000
     0.000000    0.000000   21.879635
   C    O    Pt
   1   2  36
Direct configuration=     1
   0.70061010  0.43090728  0.47139021
   0.90290135  0.38098497  0.46420002
   0.67247356  0.45776316  0.52127874
   0.98675500  0.32859100  0.07437600
   0.32008800  0.32859100  0.07437600
   0.65342200  0.32859100  0.07437600
   0.98675500  0.66192500  0.07437600
   0.32008800  0.66192500  0.07437600
   0.65342200  0.66192500  0.07437600
   0.32008800  0.99525800  0.07437600
   0.65342200  0.99525800  0.07437600
   0.98675500  0.99525800  0.07437600
   0.20897700  0.10636900  0.17918600
   0.54231100  0.10636900  0.17918600
   0.87564400  0.10636900  0.17918600
   0.20897700  0.43970300  0.17918600
   0.54231100  0.43970300  0.17918600
   0.87564400  0.43970300  0.17918600
   0.20897700  0.77303600  0.17918600
   0.54231100  0.77303600  0.17918600
   0.87564400  0.77303600  0.17918600
   0.10189019  0.55043693  0.27844808
   0.43212025  0.88156310  0.28578860
   0.76135444  0.21419542  0.28703363
   0.09553808  0.22113842  0.28543903
   0.43355423  0.21933346  0.28458614
   0.09833329  0.88096142  0.28494764
   0.76642368  0.88654317  0.28387407
   0.43156930  0.54913344  0.28524868
   0.76293877  0.54648385  0.28533298
   0.32084503  0.66606350  0.39124109
   0.65558651  0.98659219  0.39053692
   0.31875777  0.32634896  0.38380503
   0.98854450  0.98937492  0.38819097
   0.31999009  0.98931378  0.38793257
   0.63952439  0.32095583  0.39099719
   0.99271288  0.67034297  0.38708605
   0.99355230  0.31594712  0.38672174
   0.66018911  0.66794554  0.38583723
Direct configuration=     2
   0.70018842  0.42771566  0.47103526
   0.90411776  0.38220896  0.46364338
   0.67315000  0.45883373  0.52143967
   0.98675500  0.32859100  0.07437600
   0.32008800  0.32859100  0.07437600
   0.65342200  0.32859100  0.07437600
   0.98675500  0.66192500  0.07437600
   0.32008800  0.66192500  0.07437600
   0.65342200  0.66192500  0.07437600
   0.32008800  0.99525800  0.07437600
   0.65342200  0.99525800  0.07437600
   0.98675500  0.99525800  0.07437600
   0.20897700  0.10636900  0.17918600
   0.54231100  0.10636900  0.17918600
   0.87564400  0.10636900  0.17918600
   0.20897700  0.43970300  0.17918600
   0.54231100  0.43970300  0.17918600
   0.87564400  0.43970300  0.17918600
   0.20897700  0.77303600  0.17918600
   0.54231100  0.77303600  0.17918600
   0.87564400  0.77303600  0.17918600
   0.10112124  0.55039373  0.27948214
   0.43227950  0.88182621  0.28534663
   0.76127333  0.21445410  0.28647573
   0.09519607  0.22003639  0.28467542
   0.43305317  0.21791764  0.28403625
   0.09822349  0.88124630  0.28432413
   0.76627070  0.88611164  0.28348741
   0.43194283  0.55030941  0.28475792
   0.76377065  0.54707769  0.28469846
   0.32084845  0.66518994  0.39073053
   0.65493351  0.98689894  0.39036768
   0.31910897  0.32624565  0.38451588
   0.98878495  0.98993864  0.38838698
   0.32018125  0.98969997  0.38820235
   0.63939235  0.32194576  0.39149220
   0.99313639  0.66901622  0.38718445
   0.99278675  0.31784999  0.38813675
   0.65924047  0.66739316  0.38621539
Direct configuration=     3
   0.69945697  0.42641467  0.47199824
   0.90501936  0.38327086  0.46353228
   0.67422020  0.45888713  0.52054231
   0.98675500  0.32859100  0.07437600
   0.32008800  0.32859100  0.07437600
   0.65342200  0.32859100  0.07437600
   0.98675500  0.66192500  0.07437600
   0.32008800  0.66192500  0.07437600
   0.65342200  0.66192500  0.07437600
   0.32008800  0.99525800  0.07437600
   0.65342200  0.99525800  0.07437600
   0.98675500  0.99525800  0.07437600
   0.20897700  0.10636900  0.17918600
   0.54231100  0.10636900  0.17918600
   0.87564400  0.10636900  0.17918600
   0.20897700  0.43970300  0.17918600
   0.54231100  0.43970300  0.17918600
   0.87564400  0.43970300  0.17918600
   0.20897700  0.77303600  0.17918600
   0.54231100  0.77303600  0.17918600
   0.87564400  0.77303600  0.17918600
   0.10067468  0.55026872  0.28008829
   0.43233894  0.88201975  0.28508468
   0.76134893  0.21464472  0.28618853
   0.09502036  0.21958193  0.28439811
   0.43278359  0.21724694  0.28378625
   0.09815099  0.88141562  0.28402048
   0.76617611  0.88585442  0.28331372
   0.43207932  0.55075045  0.28450202
   0.76414398  0.54739300  0.28436957
   0.32093768  0.66467980  0.39039566
   0.65455100  0.98712857  0.39020686
   0.31919025  0.32616355  0.38483878
   0.98887707  0.99025116  0.38845636
   0.32025211  0.98991151  0.38832576
   0.63894955  0.32225392  0.39152121
   0.99335249  0.66841096  0.38720266
   0.99251261  0.31862579  0.38878734
   0.65872401  0.66713069  0.38638452
