 vasp.5.4.4 16052018 (build Apr 24 2014 20:13:14) complex standard
 Contain Constrained Minimization Technique (TS), Periodic NBO, VASPsol, libbeef, VASP2WANNIER90, Constrained Cell Relaxation
 executed on Center for Computational Chemistry by phu@node11 date 2025.11.24 22:14:16
 running on    8 total cores
 distrk:  each k-point on    8 cores,    1 groups
 distr:  one band on NCORES_PER_BAND=   2 cores,    4 groups


--------------------------------------------------------------------------------------------------------


 INCAR:
 POTCAR:   PAW_PBE C 08Apr2002                    
 POTCAR:   PAW_PBE O 08Apr2002                    
 POTCAR:    PAW_PBE Pt 04Feb2005                  
 POTCAR:   PAW_PBE C 08Apr2002                    
   VRHFIN =C: s2p2                                                              
   LEXCH  = PE                                                                  
   EATOM  =   147.1560 eV,   10.8157 Ry                                         
                                                                                
   TITEL  = PAW_PBE C 08Apr2002                                                 
   LULTRA =        F    use ultrasoft PP ?                                      
   IUNSCR =        0    unscreen: 0-lin 1-nonlin 2-no                           
   RPACOR =     .000    partial core radius                                     
   POMASS =   12.011; ZVAL   =    4.000    mass and valenz                      
   RCORE  =    1.500    outmost cutoff radius                                   
   RWIGS  =    1.630; RWIGS  =     .863    wigner-seitz radius (au A)           
   ENMAX  =  400.000; ENMIN  =  300.000 eV                                      
   ICORE  =        2    local potential                                         
   LCOR   =        T    correct aug charges                                     
   LPAW   =        T    paw PP                                                  
   EAUG   =  644.873                                                            
   DEXC   =     .000                                                            
   RMAX   =    2.266    core radius for proj-oper                               
   RAUG   =    1.300    factor for augmentation sphere                          
   RDEP   =    1.501    radius for radial grids                                 
   RDEPT  =    1.300    core radius for aug-charge                              
   QCUT   =   -5.516; QGAM   =   11.032    optimization parameters              
                                                                                
   Description                                                                  
     l     E      TYP  RCUT    TYP  RCUT                                        
     0   .000     23  1.200                                                     
     0   .000     23  1.200                                                     
     1   .000     23  1.500                                                     
     1  2.500     23  1.500                                                     
     2   .000      7  1.500                                                     
  local pseudopotential read in
  atomic valenz-charges read in
  non local Contribution for L=           0  read in
    real space projection operators read in
  non local Contribution for L=           0  read in
    real space projection operators read in
  non local Contribution for L=           1  read in
    real space projection operators read in
  non local Contribution for L=           1  read in
    real space projection operators read in
    PAW grid and wavefunctions read in
 
   number of l-projection  operators is LMAX  =           4
   number of lm-projection operators is LMMAX =           8
 
 POTCAR:   PAW_PBE O 08Apr2002                    
   VRHFIN =O: s2p4                                                              
   LEXCH  = PE                                                                  
   EATOM  =   432.3788 eV,   31.7789 Ry                                         
                                                                                
   TITEL  = PAW_PBE O 08Apr2002                                                 
   LULTRA =        F    use ultrasoft PP ?                                      
   IUNSCR =        0    unscreen: 0-lin 1-nonlin 2-no                           
   RPACOR =     .000    partial core radius                                     
   POMASS =   16.000; ZVAL   =    6.000    mass and valenz                      
   RCORE  =    1.520    outmost cutoff radius                                   
   RWIGS  =    1.550; RWIGS  =     .820    wigner-seitz radius (au A)           
   ENMAX  =  400.000; ENMIN  =  300.000 eV                                      
   ICORE  =        2    local potential                                         
   LCOR   =        T    correct aug charges                                     
   LPAW   =        T    paw PP                                                  
   EAUG   =  605.392                                                            
   DEXC   =     .000                                                            
   RMAX   =    2.264    core radius for proj-oper                               
   RAUG   =    1.300    factor for augmentation sphere                          
   RDEP   =    1.550    radius for radial grids                                 
   QCUT   =   -5.520; QGAM   =   11.041    optimization parameters              
                                                                                
   Description                                                                  
     l     E      TYP  RCUT    TYP  RCUT                                        
     0   .000     23  1.200                                                     
     0  -.700     23  1.200                                                     
     1   .000     23  1.520                                                     
     1   .600     23  1.520                                                     
     2   .000      7  1.500                                                     
  local pseudopotential read in
  atomic valenz-charges read in
  non local Contribution for L=           0  read in
    real space projection operators read in
  non local Contribution for L=           0  read in
    real space projection operators read in
  non local Contribution for L=           1  read in
    real space projection operators read in
  non local Contribution for L=           1  read in
    real space projection operators read in
    PAW grid and wavefunctions read in
 
   number of l-projection  operators is LMAX  =           4
   number of lm-projection operators is LMMAX =           8
 
 POTCAR:    PAW_PBE Pt 04Feb2005                  
   VRHFIN =Pt: s1d9                                                             
   LEXCH  = PE                                                                  
   EATOM  =   729.1182 eV,   53.5887 Ry                                         
                                                                                
   TITEL  = PAW_PBE Pt 04Feb2005                                                
   LULTRA =        F    use ultrasoft PP ?                                      
   IUNSCR =        1    unscreen: 0-lin 1-nonlin 2-no                           
   RPACOR =    2.330    partial core radius                                     
   POMASS =  195.080; ZVAL   =   10.000    mass and valenz                      
   RCORE  =    2.600    outmost cutoff radius                                   
   RWIGS  =    2.750; RWIGS  =    1.455    wigner-seitz radius (au A)           
   ENMAX  =  230.283; ENMIN  =  172.712 eV                                      
   ICORE  =        3    local potential                                         
   LCOR   =        T    correct aug charges                                     
   LPAW   =        T    paw PP                                                  
   EAUG   =  358.966                                                            
   DEXC   =     .000                                                            
   RMAX   =    3.038    core radius for proj-oper                               
   RAUG   =    1.300    factor for augmentation sphere                          
   RDEP   =    2.761    radius for radial grids                                 
   QCUT   =   -4.114; QGAM   =    8.228    optimization parameters              
                                                                                
   Description                                                                  
     l     E      TYP  RCUT    TYP  RCUT                                        
     2   .000     23  2.500                                                     
     2   .000     23  2.500                                                     
     0   .000     23  2.500                                                     
     0   .000     23  2.500                                                     
     1  -.200     23  2.600                                                     
     1  1.500     23  2.600                                                     
     3   .000     23  2.500                                                     
  local pseudopotential read in
  partial core-charges read in
  atomic valenz-charges read in
  non local Contribution for L=           2  read in
    real space projection operators read in
  non local Contribution for L=           2  read in
    real space projection operators read in
  non local Contribution for L=           0  read in
    real space projection operators read in
  non local Contribution for L=           0  read in
    real space projection operators read in
  non local Contribution for L=           1  read in
    real space projection operators read in
  non local Contribution for L=           1  read in
    real space projection operators read in
    PAW grid and wavefunctions read in
 
   number of l-projection  operators is LMAX  =           6
   number of lm-projection operators is LMMAX =          18
 
 Optimization of the real space projectors (new method)

 maximal supplied QI-value         = 25.13
 optimisation between [QCUT,QGAM] = [ 10.81, 21.61] = [ 32.71,130.83] Ry 
 Optimized for a Real-space Cutoff    1.23 Angstroem

   l    n(q)    QCUT    max X(q) W(low)/X(q) W(high)/X(q)  e(spline) 
   0      8    10.807     5.582    0.53E-04    0.84E-04    0.44E-07
   0      8    10.807    69.432    0.35E-03    0.71E-03    0.24E-06
   1      7    10.807     2.780    0.44E-04    0.88E-04    0.89E-07
   1      7    10.807     4.549    0.14E-03    0.28E-03    0.13E-06
 Optimization of the real space projectors (new method)

 maximal supplied QI-value         = 24.76
 optimisation between [QCUT,QGAM] = [ 10.64, 21.54] = [ 31.73,129.89] Ry 
 Optimized for a Real-space Cutoff    1.23 Angstroem

   l    n(q)    QCUT    max X(q) W(low)/X(q) W(high)/X(q)  e(spline) 
   0      8    10.645     4.192    0.69E-04    0.93E-04    0.58E-07
   0      8    10.645     8.473    0.40E-03    0.65E-03    0.17E-06
   1      7    10.645     2.474    0.80E-04    0.12E-03    0.30E-07
   1      7    10.645     3.912    0.24E-03    0.53E-03    0.16E-06
 Optimization of the real space projectors (new method)

 maximal supplied QI-value         = 14.36
 optimisation between [QCUT,QGAM] = [ 10.77, 21.69] = [ 32.49,131.70] Ry 
 Optimized for a Real-space Cutoff    1.46 Angstroem

   l    n(q)    QCUT    max X(q) W(low)/X(q) W(high)/X(q)  e(spline) 
   2      9    10.771     3.903    0.38E-04    0.12E-03    0.82E-07
   2      9    10.771    18.372    0.13E-03    0.32E-03    0.28E-06
   0     10    10.771    13.697    0.11E-04    0.86E-05    0.85E-08
   0     10    10.771    65.529    0.40E-04    0.12E-03    0.14E-06
   1      9    10.771     7.604    0.48E-04    0.31E-04    0.38E-07
   1      9    10.771    12.136    0.35E-03    0.16E-03    0.23E-06
 PAW_PBE C 08Apr2002                    :
 energy of atom  1       EATOM= -147.1560
 kinetic energy error for atom=    0.0116 (will be added to EATOM!!)
 PAW_PBE O 08Apr2002                    :
 energy of atom  2       EATOM= -432.3788
 kinetic energy error for atom=    0.0389 (will be added to EATOM!!)
  PAW_PBE Pt 04Feb2005                  :
 energy of atom  3       EATOM= -729.1182
 kinetic energy error for atom=    0.0051 (will be added to EATOM!!)
 
 
 POSCAR: C    O    Pt                            
  positions in direct lattice
  No initial velocities read in
 exchange correlation table for  LEXCH =        8
   RHO(1)=    0.500       N(1)  =     2000
   RHO(2)=  100.500       N(2)  =     4000

 VTST: version 3.2, (02/03/18)

 CHAIN: initializing optimizer
 
 OPT: Using VASP QUASI-newton optimizer
 CHAIN: Read ICHAIN            0
 
 POSCAR: C    O    Pt                            
  positions in direct lattice
  No initial velocities read in
 


--------------------------------------------------------------------------------------------------------


 ion  position               nearest neighbor table
   1  0.701  0.437  0.471-   3 1.16  36 1.86
   2  0.911  0.382  0.464-  38 1.97  36 2.57  37 2.70
   3  0.673  0.463  0.521-   1 1.16
   4  0.987  0.329  0.074-  15 2.81  16 2.81  12 2.81   5 2.81  11 2.81   6 2.81  18 2.81   8 2.81
                             7 2.81
   5  0.320  0.329  0.074-  13 2.81  10 2.81   4 2.81  12 2.81  16 2.81  17 2.81   8 2.81   9 2.81
                             6 2.81
   6  0.653  0.329  0.074-  14 2.81  18 2.81  11 2.81   4 2.81  17 2.81   7 2.81  10 2.81   9 2.81
                             5 2.81
   7  0.987  0.662  0.074-  18 2.81  21 2.81  19 2.81  12 2.81   8 2.81  10 2.81   9 2.81   6 2.81
                             4 2.81
   8  0.320  0.662  0.074-  16 2.81  19 2.81  10 2.81   7 2.81  20 2.81   4 2.81  11 2.81   5 2.81
                             9 2.81
   9  0.653  0.662  0.074-  17 2.81  20 2.81  21 2.81  11 2.81  12 2.81   7 2.81   6 2.81   5 2.81
                             8 2.81
  10  0.320  0.995  0.074-  13 2.81  19 2.81   5 2.81   8 2.81  12 2.81   7 2.81  14 2.81   6 2.81
                            11 2.81
  11  0.653  0.995  0.074-  14 2.81  20 2.81  15 2.81   9 2.81   6 2.81  12 2.81   4 2.81   8 2.81
                            10 2.81
  12  0.987  0.995  0.074-  15 2.81  21 2.81  13 2.81   7 2.81   4 2.81  10 2.81   5 2.81  11 2.81
                             9 2.81
  13  0.209  0.106  0.179-  27 2.76  10 2.81   5 2.81  12 2.81  19 2.81  15 2.81  21 2.81  16 2.81
                            17 2.81  14 2.81  26 2.86  25 2.92
  14  0.542  0.106  0.179-  23 2.75  11 2.81   6 2.81  20 2.81  15 2.81  10 2.81  18 2.81  19 2.81
                            17 2.81  13 2.81  24 2.83  26 2.87
  15  0.876  0.106  0.179-  28 2.80  12 2.81   4 2.81  11 2.81  21 2.81  13 2.81  14 2.81  20 2.81
                            16 2.81  18 2.81  24 2.83  25 2.90
  16  0.209  0.440  0.179-  29 2.76  22 2.79   8 2.81   4 2.81  19 2.81  18 2.81   5 2.81  15 2.81
                            20 2.81  13 2.81  17 2.81  25 2.88
  17  0.542  0.440  0.179-  29 2.71   9 2.81  20 2.81  21 2.81  18 2.81   6 2.81   5 2.81  14 2.81
                            13 2.81  16 2.81  30 2.83  26 2.86
  18  0.876  0.440  0.179-   7 2.81   6 2.81  21 2.81  19 2.81  16 2.81  17 2.81   4 2.81  14 2.81
                            15 2.81  24 2.81  22 2.82  30 2.82
  19  0.209  0.773  0.179-  27 2.72  23 2.75   8 2.81  10 2.81   7 2.81  16 2.81  13 2.81  18 2.81
                            21 2.81  14 2.81  20 2.81  22 2.82
  20  0.542  0.773  0.179-  23 2.69  29 2.77  28 2.78  11 2.81   9 2.81  17 2.81  14 2.81  21 2.81
                            15 2.81   8 2.81  16 2.81  19 2.81
  21  0.876  0.773  0.179-  28 2.74  27 2.76  30 2.81  12 2.81   7 2.81   9 2.81  18 2.81  15 2.81
                            19 2.81  13 2.81  17 2.81  20 2.81
  22  0.100  0.548  0.284-  31 2.71  25 2.74  24 2.79  16 2.79  38 2.80  27 2.80  23 2.81  18 2.82
                            19 2.82  30 2.83  29 2.83  37 2.85
  23  0.435  0.879  0.280-  20 2.69  19 2.75  14 2.75  31 2.76  28 2.79  22 2.81  29 2.81  24 2.83
                            27 2.83  35 2.86  26 2.88  32 2.90
  24  0.765  0.220  0.285-  25 2.79  22 2.79  38 2.79  30 2.80  18 2.81  26 2.82  14 2.83  23 2.83
                            15 2.83  32 2.85  28 2.89  36 2.92
  25  0.097  0.222  0.289-  38 2.62  33 2.71  22 2.74  29 2.79  24 2.79  34 2.79  26 2.82  28 2.85
                            16 2.88  27 2.89  15 2.90  13 2.92
  26  0.430  0.218  0.287-  33 2.66  35 2.71  29 2.74  36 2.81  27 2.81  24 2.82  25 2.82  30 2.84
                            13 2.86  17 2.86  14 2.87  23 2.88
  27  0.101  0.881  0.280-  19 2.72  21 2.76  13 2.76  30 2.79  28 2.80  22 2.80  35 2.80  26 2.81
                            23 2.83  37 2.86  25 2.89  34 2.90
  28  0.766  0.878  0.282-  30 2.73  21 2.74  20 2.78  39 2.78  23 2.79  15 2.80  29 2.80  27 2.80
                            25 2.85  34 2.86  24 2.89  32 2.90
  29  0.434  0.545  0.281-  17 2.71  26 2.74  31 2.75  16 2.76  30 2.77  20 2.77  25 2.79  28 2.80
                            33 2.81  23 2.81  39 2.83  22 2.83
  30  0.767  0.554  0.285-  28 2.73  39 2.75  29 2.77  27 2.79  24 2.80  21 2.81  18 2.82  22 2.83
                            17 2.83  26 2.84  37 2.84  36 2.91
  31  0.326  0.660  0.382-  22 2.71  29 2.75  23 2.76  39 2.77  32 2.79  33 2.82  38 2.83  35 2.84
                            37 2.85
  32  0.654  0.993  0.391-  31 2.79  39 2.79  34 2.81  35 2.82  38 2.82  24 2.85  36 2.88  28 2.90
                            23 2.90
  33  0.327  0.326  0.386-  36 2.66  26 2.66  25 2.71  35 2.78  38 2.80  39 2.80  29 2.81  31 2.82
                            34 2.86
  34  0.986  0.989  0.390-  37 2.72  39 2.77  38 2.78  25 2.79  35 2.80  32 2.81  33 2.86  28 2.86
                            27 2.90
  35  0.320  0.993  0.385-  26 2.71  37 2.74  33 2.78  36 2.78  34 2.80  27 2.80  32 2.82  31 2.84
                            23 2.86
  36  0.643  0.328  0.394-   1 1.86   2 2.57  33 2.66  39 2.76  35 2.78  26 2.81  32 2.88  30 2.91
                            37 2.92  24 2.92  38 2.98
  37  0.994  0.669  0.390-   2 2.70  34 2.72  35 2.74  39 2.82  30 2.84  31 2.85  22 2.85  27 2.86
                            36 2.92  38 2.92
  38  0.993  0.322  0.388-   2 1.97  25 2.62  34 2.78  24 2.79  33 2.80  22 2.80  32 2.82  31 2.83
                            37 2.92  36 2.98
  39  0.656  0.662  0.387-  30 2.75  36 2.76  34 2.77  31 2.77  28 2.78  32 2.79  33 2.80  37 2.82
                            29 2.83
 

IMPORTANT INFORMATION: All symmetrisations will be switched off!
NOSYMM: (Re-)initialisation of all symmetry stuff for point group C_1.

 
 
 KPOINTS: mesh auto                               

Automatic generation of k-mesh.
Space group operators:
 irot       det(A)        alpha          n_x          n_y          n_z        tau_x        tau_y        tau_z
    1     1.000000     0.000000     1.000000     0.000000     0.000000     0.000000     0.000000     0.000000
 
 Subroutine IBZKPT returns following result:
 ===========================================
 
 Found      4 irreducible k-points:
 
 Following reciprocal coordinates:
            Coordinates               Weight
  0.000000  0.000000  0.000000      1.000000
  0.500000  0.000000  0.000000      1.000000
 -0.000000  0.500000  0.000000      1.000000
  0.500000  0.500000  0.000000      1.000000
 
 Following cartesian coordinates:
            Coordinates               Weight
  0.000000  0.000000  0.000000      1.000000
  0.068522  0.000000  0.000000      1.000000
  0.034261  0.059342  0.000000      1.000000
  0.102783  0.059342  0.000000      1.000000
 


--------------------------------------------------------------------------------------------------------




 Dimension of arrays:
   k-points           NKPTS =      4   k-points in BZ     NKDIM =      4   number of bands    NBANDS=    228
   number of dos      NEDOS =    301   number of ions     NIONS =     39
   non local maximal  LDIM  =      6   non local SUM 2l+1 LMDIM =     18
   total plane-waves  NPLWV = 276480
   max r-space proj   IRMAX =   2756   max aug-charges    IRDMAX=  12646
   dimension x,y,z NGX =    48 NGY =   48 NGZ =  120
   dimension x,y,z NGXF=    96 NGYF=   96 NGZF=  240
   support grid    NGXF=    96 NGYF=   96 NGZF=  240
   ions per type =               1   2  36
   NGX,Y,Z   is equivalent  to a cutoff of   9.47,  9.47,  9.12 a.u.
   NGXF,Y,Z  is equivalent  to a cutoff of  18.94, 18.94, 18.24 a.u.

 SYSTEM =  metal                                   
 POSCAR =  C    O    Pt                            

 Startparameter for this run:
   NWRITE =      2    write-flag & timer
   PREC   = normal    normal or accurate (medium, high low for compatibility)
   ISTART =      0    job   : 0-new  1-cont  2-samecut
   ICHARG =      2    charge: 1-file 2-atom 10-const
   ISPIN  =      1    spin polarized calculation?
   LNONCOLLINEAR =      F non collinear calculations
   LSORBIT =      F    spin-orbit coupling
   INIWAV =      1    electr: 0-lowe 1-rand  2-diag
   LASPH  =      F    aspherical Exc in radial PAW
   METAGGA=      F    non-selfconsistent MetaGGA calc.

 Electronic Relaxation 1
   ENCUT  =  450.0 eV  33.07 Ry    5.75 a.u.  14.57 14.57 37.84*2*pi/ulx,y,z
   ENINI  =  450.0     initial cutoff
   ENAUG  =  644.9 eV  augmentation charge cutoff
   NELM   =     60;   NELMIN=  8; NELMDL= -5     # of ELM steps 
   EDIFF  = 0.1E-03   stopping-criterion for ELM
   LREAL  =      T    real-space projection
   NLSPLINE    = F    spline interpolate recip. space projectors
   LCOMPAT=      F    compatible to vasp.4.4
   GGA_COMPAT  = T    GGA compatible to vasp.4.4-vasp.4.6
   LMAXPAW     = -100 max onsite density
   LMAXMIX     =    2 max onsite mixed and CHGCAR
   VOSKOWN=      0    Vosko Wilk Nusair interpolation
   ROPT   =   -0.00050  -0.00050  -0.00050
 Ionic relaxation
   EDIFFG = -.5E-01   stopping-criterion for IOM
   NSW    =   5000    number of steps for IOM
   NBLOCK =      1;   KBLOCK =   5000    inner block; outer block 
   IBRION =      1    ionic relax: 0-MD 1-quasi-New 2-CG
   NFREE  =      0    steps in history (QN), initial steepest desc. (CG)
   ISIF   =      2    stress and relaxation
   IWAVPR =     11    prediction:  0-non 1-charg 2-wave 3-comb
   ISYM   =      0    0-nonsym 1-usesym 2-fastsym
   LCORR  =      T    Harris-Foulkes like correction to forces

   POTIM  = 0.2000    time-step for ionic-motion
   TEIN   =    0.0    initial temperature
   TEBEG  =    0.0;   TEEND  =   0.0 temperature during run
   SMASS  =  -3.00    Nose mass-parameter (am)
   estimated Nose-frequenzy (Omega)   =  0.10E-29 period in steps =****** mass=  -0.162E-26a.u.
   SCALEE = 1.0000    scale energy and forces
   NPACO  =    256;   APACO  = 16.0  distance and # of slots for P.C.
   PSTRESS=    0.0 pullay stress

  Mass of Ions in am
   POMASS =  12.01 16.00195.08
  Ionic Valenz
   ZVAL   =   4.00  6.00 10.00
  Atomic Wigner-Seitz radii
   RWIGS  =  -1.00 -1.00 -1.00
  virtual crystal weights 
   VCA    =   1.00  1.00  1.00
   NELECT =     376.0000    total number of electrons
   NUPDOWN=      -1.0000    fix difference up-down

 DOS related values:
   EMIN   =  10.00;   EMAX   =-10.00  energy-range for DOS
   EFERMI =   0.00
   ISMEAR =     1;   SIGMA  =   0.20  broadening in eV -4-tet -1-fermi 0-gaus

 Electronic relaxation 2 (details)
   IALGO  =     68    algorithm
   LDIAG  =      T    sub-space diagonalisation (order eigenvalues)
   LSUBROT=      F    optimize rotation matrix (better conditioning)
   TURBO    =      0    0=normal 1=particle mesh
   IRESTART =      0    0=no restart 2=restart with 2 vectors
   NREBOOT  =      0    no. of reboots
   NMIN     =      0    reboot dimension
   EREF     =   0.00    reference energy to select bands
   IMIX   =      4    mixing-type and parameters
     AMIX     =   0.40;   BMIX     =  1.00
     AMIX_MAG =   1.60;   BMIX_MAG =  1.00
     AMIN     =   0.10
     WC   =   100.;   INIMIX=   1;  MIXPRE=   1;  MAXMIX= -45

 Intra band minimization:
   WEIMIN = 0.0010     energy-eigenvalue tresh-hold
   EBREAK =  0.11E-06  absolut break condition
   DEPER  =   0.30     relativ break condition  

   TIME   =   0.40     timestep for ELM

  volume/ion in A,a.u.               =      34.49       232.77
  Fermi-wavevector in a.u.,A,eV,Ry     =   1.070385  2.022734 15.588510  1.145723
  Thomas-Fermi vector in A             =   2.206093
 
 Write flags
   LWAVE        =      F    write WAVECAR
   LDOWNSAMPLE  =      F    k-point downsampling of WAVECAR
   LCHARG       =      F    write CHGCAR
   LVTOT        =      F    write LOCPOT, total local potential
   LVHAR        =      F    write LOCPOT, Hartree potential only
   LELF         =      F    write electronic localiz. function (ELF)
   LORBIT       =      0    0 simple, 1 ext, 2 COOP (PROOUT), +10 PAW based schemes


 Dipole corrections
   LMONO  =      F    monopole corrections only (constant potential shift)
   LDIPOL =      F    correct potential (dipole corrections)
   IDIPOL =      0    1-x, 2-y, 3-z, 4-all directions 
   EPSILON=  1.0000000 bulk dielectric constant

 Exchange correlation treatment:
   GGA     =    --    GGA type
   LEXCH   =     8    internal setting for exchange type
   VOSKOWN=      0    Vosko Wilk Nusair interpolation
   LHFCALC =     F    Hartree Fock is set to
   LHFONE  =     F    Hartree Fock one center treatment
   AEXX    =    0.0000 exact exchange contribution

 Linear response parameters
   LEPSILON=     F    determine dielectric tensor
   LRPA    =     F    only Hartree local field effects (RPA)
   LNABLA  =     F    use nabla operator in PAW spheres
   LVEL    =     F    velocity operator in full k-point grid
   LINTERFAST=   F  fast interpolation
   KINTER  =     0    interpolate to denser k-point grid
   CSHIFT  =0.1000    complex shift for real part using Kramers Kronig
   OMEGAMAX=  -1.0    maximum frequency
   DEG_THRESHOLD= 0.2000000E-02 threshold for treating states as degnerate
   RTIME   =   -0.100 relaxation time in fs
  (WPLASMAI=    0.000 imaginary part of plasma frequency in eV, 0.658/RTIME)
   DFIELD  = 0.0000000 0.0000000 0.0000000 field for delta impulse in time
 
 Orbital magnetization related:
   ORBITALMAG=     F  switch on orbital magnetization
   LCHIMAG   =     F  perturbation theory with respect to B field
   DQ        =  0.001000  dq finite difference perturbation B field
   LLRAUG    =     F  two centre corrections for induced B field



--------------------------------------------------------------------------------------------------------


 quasi-Newton-method for relaxation of ions
   using selective dynamics as specified on POSCAR
 charge density and potential will be updated during run
 non-spin polarized calculation
 RMM-DIIS sequential band-by-band and
  variant of blocked Davidson during initial phase
 perform sub-space diagonalisation
    before iterative eigenvector-optimisation
 modified Broyden-mixing scheme, WC =      100.0
 initial mixing is a Kerker type mixing with AMIX =  0.4000 and BMIX =      1.0000
 Hartree-type preconditioning will be used
 using additional bands           40
 real space projection scheme for non local part
 use partial core corrections
 calculate Harris-corrections to forces 
   (improved forces if not selfconsistent)
 use gradient corrections 
 use of overlap-Matrix (Vanderbilt PP)
 Methfessel and Paxton  Order N= 1 SIGMA  =   0.20


--------------------------------------------------------------------------------------------------------


  energy-cutoff  :      450.00
  volume of cell :     1345.22
      direct lattice vectors                 reciprocal lattice vectors
     7.296955120 -4.212899000  0.000000000     0.137043463  0.000000000  0.000000000
     0.000000000  8.425798000  0.000000000     0.068521732  0.118683121  0.000000000
     0.000000000  0.000000000 21.879635000     0.000000000  0.000000000  0.045704602

  length of vectors
     8.425798004  8.425798000 21.879635000     0.137043463  0.137043463  0.045704602


 
 k-points in units of 2pi/SCALE and weight: mesh auto                               
   0.00000000  0.00000000  0.00000000       0.250
   0.06852173  0.00000000  0.00000000       0.250
   0.03426087  0.05934156  0.00000000       0.250
   0.10278260  0.05934156  0.00000000       0.250
 
 k-points in reciprocal lattice and weights: mesh auto                               
   0.00000000  0.00000000  0.00000000       0.250
   0.50000000  0.00000000  0.00000000       0.250
  -0.00000000  0.50000000  0.00000000       0.250
   0.50000000  0.50000000  0.00000000       0.250
 
 position of ions in fractional coordinates (direct lattice) 
   0.70105601  0.43660381  0.47114870
   0.91050565  0.38165303  0.46417709
   0.67291947  0.46345969  0.52103724
   0.98675500  0.32859100  0.07437600
   0.32008800  0.32859100  0.07437600
   0.65342200  0.32859100  0.07437600
   0.98675500  0.66192500  0.07437600
   0.32008800  0.66192500  0.07437600
   0.65342200  0.66192500  0.07437600
   0.32008800  0.99525800  0.07437600
   0.65342200  0.99525800  0.07437600
   0.98675500  0.99525800  0.07437600
   0.20897700  0.10636900  0.17918600
   0.54231100  0.10636900  0.17918600
   0.87564400  0.10636900  0.17918600
   0.20897700  0.43970300  0.17918600
   0.54231100  0.43970300  0.17918600
   0.87564400  0.43970300  0.17918600
   0.20897700  0.77303600  0.17918600
   0.54231100  0.77303600  0.17918600
   0.87564400  0.77303600  0.17918600
   0.09972034  0.54847259  0.28409748
   0.43543519  0.87932510  0.27962443
   0.76540190  0.22023282  0.28490594
   0.09730860  0.22229281  0.28902294
   0.43007155  0.21787655  0.28700976
   0.10051337  0.88141587  0.28037935
   0.76624051  0.87782460  0.28182947
   0.43434439  0.54524506  0.28068715
   0.76705251  0.55386296  0.28460598
   0.32608597  0.65954589  0.38224978
   0.65399975  0.99265766  0.39057868
   0.32661064  0.32582051  0.38620680
   0.98579113  0.98865123  0.39013638
   0.32038227  0.99326575  0.38548411
   0.64281862  0.32832237  0.39404756
   0.99350025  0.66931306  0.39019203
   0.99265855  0.32202657  0.38755963
   0.65576543  0.66202520  0.38674747
 
 position of ions in cartesian coordinates  (Angst):
   5.11557426  0.72525734 10.30856167
   6.64391889 -0.62013702 10.15602530
   4.91026315  1.07007600 11.40010454
   7.20030695 -1.38845776  1.62731973
   2.33566777  1.42014298  1.62731973
   4.76799101  0.01584050  1.62731973
   7.20030695  1.42014719  1.62731973
   2.33566777  4.22874793  1.62731973
   4.76799101  2.82444545  1.62731973
   2.33566777  7.03734445  1.62731973
   4.76799101  5.63304198  1.62731973
   7.20030695  4.22874371  1.62731973
   1.52489579  0.01584471  3.92052428
   3.95721903 -1.38845776  3.92052428
   6.38953497 -2.79275602  3.92052428
   1.52489579  2.82444966  3.92052428
   3.95721903  1.42014719  3.92052428
   6.38953497  0.01584893  3.92052428
   1.52489579  5.63304619  3.92052428
   3.95721903  4.22874371  3.92052428
   6.38953497  2.82444545  3.92052428
   0.72765481  4.20120752  6.21594927
   3.17735106  5.57457118  6.11808054
   5.58510330 -1.36892360  6.23363803
   0.71005648  1.46304298  6.32371652
   3.13821283  0.02393581  6.27966886
   0.73344153  7.00317938  6.13459786
   5.59122258  4.16827891  6.16632587
   3.16939150  2.76427574  6.14133234
   5.59714773  1.43522266  6.22707491
   2.37943467  4.18343322  8.36348569
   4.77220684  5.60869802  8.54571904
   2.38326315  1.36932017  8.45006389
   7.19327364  4.17713708  8.53604166
   2.33781503  7.01931847  8.43425171
   4.69061865  0.05824799  8.62161669
   7.24952670  1.45398045  8.53725914
   7.24338492 -1.46863944  8.47966331
   4.78509091  2.81541709  8.46189350
 


--------------------------------------------------------------------------------------------------------


 k-point  1 :   0.0000 0.0000 0.0000  plane waves:   29241
 k-point  2 :   0.5000 0.0000 0.0000  plane waves:   29108
 k-point  3 :  -0.0000 0.5000 0.0000  plane waves:   29108
 k-point  4 :   0.5000 0.5000 0.0000  plane waves:   29108

 maximum and minimum number of plane-waves per node :     14624    14548

 maximum number of plane-waves:     29241
 maximum index in each direction: 
   IXMAX=   14   IYMAX=   14   IZMAX=   37
   IXMIN=  -15   IYMIN=  -15   IZMIN=  -37


 real space projection operators:
  total allocation   :      13564.61 KBytes
  max/ min on nodes  :       6789.48       6775.12


 parallel 3D FFT for wavefunctions:
    minimum data exchange during FFTs selected (reduces bandwidth)
 parallel 3D FFT for charge:
    minimum data exchange during FFTs selected (reduces bandwidth)


 total amount of memory used by VASP MPI-rank0   131962. kBytes
=======================================================================

   base      :      30000. kBytes
   nonlr-proj:      10154. kBytes
   fftplans  :      13556. kBytes
   grid      :      23353. kBytes
   one-center:        311. kBytes
   wavefun   :      54588. kBytes
 
     INWAV:  cpu time    0.0000: real time    0.0000
 Broyden mixing: mesh for mixing (old mesh)
   NGX = 29   NGY = 29   NGZ = 75
  (NGX  = 96   NGY  = 96   NGZ  =240)
  gives a total of  63075 points

 initial charge density was supplied:
 charge density of overlapping atoms calculated
 number of electron     376.0000000 magnetization 
 keeping initial charge density in first step


--------------------------------------------------------------------------------------------------------


 Maximum index for non-local projection operator         1322
 Maximum index for augmentation-charges         1558 (set IRDMAX)


--------------------------------------------------------------------------------------------------------


 First call to EWALD:  gamma=   0.161
 Maximum number of real-space cells 4x 4x 2
 Maximum number of reciprocal cells 2x 2x 5

    FEWALD:  cpu time    0.0025: real time    0.0025


--------------------------------------- Iteration      1(   1)  ---------------------------------------


    POTLOK:  cpu time    0.1897: real time    0.2661
    SETDIJ:  cpu time    0.0127: real time    0.0128
     EDDAV:  cpu time   12.2885: real time   12.4168
       DOS:  cpu time    0.0011: real time    0.0011
    --------------------------------------------
      LOOP:  cpu time   12.4921: real time   12.6969

 eigenvalue-minimisations  :  1824
 total energy-change (2. order) : 0.2424283E+04  (-0.1595532E+05)
 number of electron     376.0000000 magnetization 
 augmentation part      376.0000000 magnetization 

 Free energy of the ion-electron system (eV)
  ---------------------------------------------------
  alpha Z        PSCENC =       975.10247152
  Ewald energy   TEWEN  =     91756.52728906
  -Hartree energ DENC   =   -120842.62178233
  -exchange      EXHF   =         0.00000000
  -V(xc)+E(xc)   XCENC  =       190.01532173
  PAW double counting   =     24789.08602224   -23775.73976456
  entropy T*S    EENTRO =        -0.00864784
  eigenvalues    EBANDS =      2072.02787280
  atomic energy  EATOM  =     27259.89416086
  Solvation  Ediel_sol  =         0.00000000
  ---------------------------------------------------
  free energy    TOTEN  =      2424.28294347 eV

  energy without entropy =     2424.29159131  energy(sigma->0) =     2424.28582609


--------------------------------------------------------------------------------------------------------




--------------------------------------- Iteration      1(   2)  ---------------------------------------


     EDDAV:  cpu time   13.9086: real time   14.0502
       DOS:  cpu time    0.0011: real time    0.0011
    --------------------------------------------
      LOOP:  cpu time   13.9097: real time   14.0513

 eigenvalue-minimisations  :  2120
 total energy-change (2. order) :-0.2488201E+04  (-0.2307467E+04)
 number of electron     376.0000000 magnetization 
 augmentation part      376.0000000 magnetization 

 Free energy of the ion-electron system (eV)
  ---------------------------------------------------
  alpha Z        PSCENC =       975.10247152
  Ewald energy   TEWEN  =     91756.52728906
  -Hartree energ DENC   =   -120842.62178233
  -exchange      EXHF   =         0.00000000
  -V(xc)+E(xc)   XCENC  =       190.01532173
  PAW double counting   =     24789.08602224   -23775.73976456
  entropy T*S    EENTRO =        -0.00431487
  eigenvalues    EBANDS =      -416.17754352
  atomic energy  EATOM  =     27259.89416086
  Solvation  Ediel_sol  =         0.00000000
  ---------------------------------------------------
  free energy    TOTEN  =       -63.91813988 eV

  energy without entropy =      -63.91382501  energy(sigma->0) =      -63.91670159


--------------------------------------------------------------------------------------------------------




--------------------------------------- Iteration      1(   3)  ---------------------------------------


     EDDAV:  cpu time   13.9808: real time   14.1335
       DOS:  cpu time    0.0012: real time    0.0012
    --------------------------------------------
      LOOP:  cpu time   13.9820: real time   14.1347

 eigenvalue-minimisations  :  2160
 total energy-change (2. order) :-0.1770646E+03  (-0.1606181E+03)
 number of electron     376.0000000 magnetization 
 augmentation part      376.0000000 magnetization 

 Free energy of the ion-electron system (eV)
  ---------------------------------------------------
  alpha Z        PSCENC =       975.10247152
  Ewald energy   TEWEN  =     91756.52728906
  -Hartree energ DENC   =   -120842.62178233
  -exchange      EXHF   =         0.00000000
  -V(xc)+E(xc)   XCENC  =       190.01532173
  PAW double counting   =     24789.08602224   -23775.73976456
  entropy T*S    EENTRO =         0.00688064
  eigenvalues    EBANDS =      -593.25331335
  atomic energy  EATOM  =     27259.89416086
  Solvation  Ediel_sol  =         0.00000000
  ---------------------------------------------------
  free energy    TOTEN  =      -240.98271419 eV

  energy without entropy =     -240.98959483  energy(sigma->0) =     -240.98500774


--------------------------------------------------------------------------------------------------------




--------------------------------------- Iteration      1(   4)  ---------------------------------------


     EDDAV:  cpu time   15.2629: real time   15.4108
       DOS:  cpu time    0.0011: real time    0.0011
    --------------------------------------------
      LOOP:  cpu time   15.2639: real time   15.4119

 eigenvalue-minimisations  :  2352
 total energy-change (2. order) :-0.7774609E+01  (-0.7495098E+01)
 number of electron     376.0000000 magnetization 
 augmentation part      376.0000000 magnetization 

 Free energy of the ion-electron system (eV)
  ---------------------------------------------------
  alpha Z        PSCENC =       975.10247152
  Ewald energy   TEWEN  =     91756.52728906
  -Hartree energ DENC   =   -120842.62178233
  -exchange      EXHF   =         0.00000000
  -V(xc)+E(xc)   XCENC  =       190.01532173
  PAW double counting   =     24789.08602224   -23775.73976456
  entropy T*S    EENTRO =         0.01294660
  eigenvalues    EBANDS =      -601.03398791
  atomic energy  EATOM  =     27259.89416086
  Solvation  Ediel_sol  =         0.00000000
  ---------------------------------------------------
  free energy    TOTEN  =      -248.75732279 eV

  energy without entropy =     -248.77026939  energy(sigma->0) =     -248.76163832


--------------------------------------------------------------------------------------------------------




--------------------------------------- Iteration      1(   5)  ---------------------------------------


     EDDAV:  cpu time   15.1099: real time   15.2195
       DOS:  cpu time    0.0012: real time    0.0012
    CHARGE:  cpu time    0.7594: real time    0.7665
    MIXING:  cpu time    0.0084: real time    0.0085
    --------------------------------------------
      LOOP:  cpu time   15.8789: real time   15.9957

 eigenvalue-minimisations  :  2352
 total energy-change (2. order) :-0.2202835E+00  (-0.2187939E+00)
 number of electron     376.0000040 magnetization 
 augmentation part      105.7638832 magnetization 

 Broyden mixing:
  rms(total) = 0.27703E+01    rms(broyden)= 0.27699E+01
  rms(prec ) = 0.30909E+01
  weight for this iteration     100.00

 Free energy of the ion-electron system (eV)
  ---------------------------------------------------
  alpha Z        PSCENC =       975.10247152
  Ewald energy   TEWEN  =     91756.52728906
  -Hartree energ DENC   =   -120842.62178233
  -exchange      EXHF   =         0.00000000
  -V(xc)+E(xc)   XCENC  =       190.01532173
  PAW double counting   =     24789.08602224   -23775.73976456
  entropy T*S    EENTRO =         0.01302990
  eigenvalues    EBANDS =      -601.25435471
  atomic energy  EATOM  =     27259.89416086
  Solvation  Ediel_sol  =         0.00000000
  ---------------------------------------------------
  free energy    TOTEN  =      -248.97760629 eV

  energy without entropy =     -248.99063619  energy(sigma->0) =     -248.98194959


--------------------------------------------------------------------------------------------------------




--------------------------------------- Iteration      1(   6)  ---------------------------------------


    POTLOK:  cpu time    0.1756: real time    0.1773
    SETDIJ:  cpu time    0.0113: real time    0.0117
    EDDIAG:  cpu time    2.0164: real time    2.0358
  RMM-DIIS:  cpu time    6.9673: real time    7.0337
    ORTHCH:  cpu time    0.2672: real time    0.2689
       DOS:  cpu time    0.0012: real time    0.0012
    CHARGE:  cpu time    0.7434: real time    0.7482
    MIXING:  cpu time    0.0072: real time    0.0072
    --------------------------------------------
      LOOP:  cpu time   10.1897: real time   10.2840

 eigenvalue-minimisations  :  1827
 total energy-change (2. order) : 0.1701522E+01  (-0.5691813E+01)
 number of electron     376.0000032 magnetization 
 augmentation part      112.9914943 magnetization 

 Broyden mixing:
  rms(total) = 0.30572E+01    rms(broyden)= 0.30562E+01
  rms(prec ) = 0.40821E+01
  weight for this iteration     100.00

 eigenvalues of (default mixing * dielectric matrix)
  average eigenvalue GAMMA=   0.4796
  0.4796

 Free energy of the ion-electron system (eV)
  ---------------------------------------------------
  alpha Z        PSCENC =       975.10247152
  Ewald energy   TEWEN  =     91756.52728906
  -Hartree energ DENC   =   -120372.65401871
  -exchange      EXHF   =         0.00000000
  -V(xc)+E(xc)   XCENC  =       183.01692606
  PAW double counting   =     26742.30525710   -25782.93794693
  entropy T*S    EENTRO =        -0.13222696
  eigenvalues    EBANDS =     -1008.39799663
  atomic energy  EATOM  =     27259.89416086
  Solvation  Ediel_sol  =         0.00000000
  ---------------------------------------------------
  free energy    TOTEN  =      -247.27608463 eV

  energy without entropy =     -247.14385767  energy(sigma->0) =     -247.23200898


--------------------------------------------------------------------------------------------------------




--------------------------------------- Iteration      1(   7)  ---------------------------------------


    POTLOK:  cpu time    0.1660: real time    0.1672
    SETDIJ:  cpu time    0.0115: real time    0.0116
    EDDIAG:  cpu time    2.0554: real time    2.0696
  RMM-DIIS:  cpu time    6.9958: real time    7.0473
    ORTHCH:  cpu time    0.2804: real time    0.2821
       DOS:  cpu time    0.0012: real time    0.0012
    CHARGE:  cpu time    0.7453: real time    0.7506
    MIXING:  cpu time    0.0054: real time    0.0055
    --------------------------------------------
      LOOP:  cpu time   10.2610: real time   10.3350

 eigenvalue-minimisations  :  1830
 total energy-change (2. order) : 0.4057714E+01  (-0.3395028E+01)
 number of electron     376.0000053 magnetization 
 augmentation part      111.3497845 magnetization 

 Broyden mixing:
  rms(total) = 0.20588E+01    rms(broyden)= 0.20579E+01
  rms(prec ) = 0.34243E+01
  weight for this iteration     100.00

 eigenvalues of (default mixing * dielectric matrix)
  average eigenvalue GAMMA=   0.5812
  0.9121  0.2504

 Free energy of the ion-electron system (eV)
  ---------------------------------------------------
  alpha Z        PSCENC =       975.10247152
  Ewald energy   TEWEN  =     91756.52728906
  -Hartree energ DENC   =   -120570.14990337
  -exchange      EXHF   =         0.00000000
  -V(xc)+E(xc)   XCENC  =       180.66548025
  PAW double counting   =     27388.39268277   -26436.18702520
  entropy T*S    EENTRO =        -0.10273873
  eigenvalues    EBANDS =      -797.36078798
  atomic energy  EATOM  =     27259.89416086
  Solvation  Ediel_sol  =         0.00000000
  ---------------------------------------------------
  free energy    TOTEN  =      -243.21837082 eV

  energy without entropy =     -243.11563209  energy(sigma->0) =     -243.18412457


--------------------------------------------------------------------------------------------------------




--------------------------------------- Iteration      1(   8)  ---------------------------------------


    POTLOK:  cpu time    0.1744: real time    0.1757
    SETDIJ:  cpu time    0.0106: real time    0.0107
    EDDIAG:  cpu time    2.0590: real time    2.0738
  RMM-DIIS:  cpu time    7.1001: real time    7.1526
    ORTHCH:  cpu time    0.2772: real time    0.2792
       DOS:  cpu time    0.0013: real time    0.0013
    CHARGE:  cpu time    0.8011: real time    0.8067
    MIXING:  cpu time    0.0070: real time    0.0070
    --------------------------------------------
      LOOP:  cpu time   10.4307: real time   10.5071

 eigenvalue-minimisations  :  1827
 total energy-change (2. order) :-0.1110895E+01  (-0.9783208E+00)
 number of electron     376.0000045 magnetization 
 augmentation part      111.9897590 magnetization 

 Broyden mixing:
  rms(total) = 0.22459E+01    rms(broyden)= 0.22458E+01
  rms(prec ) = 0.40239E+01
  weight for this iteration     100.00

 eigenvalues of (default mixing * dielectric matrix)
  average eigenvalue GAMMA=   0.5350
  1.1701  0.2847  0.1503

 Free energy of the ion-electron system (eV)
  ---------------------------------------------------
  alpha Z        PSCENC =       975.10247152
  Ewald energy   TEWEN  =     91756.52728906
  -Hartree energ DENC   =   -120523.57760034
  -exchange      EXHF   =         0.00000000
  -V(xc)+E(xc)   XCENC  =       179.60981486
  PAW double counting   =     28020.15868983   -27077.89746948
  entropy T*S    EENTRO =        -0.10498255
  eigenvalues    EBANDS =      -834.04163958
  atomic energy  EATOM  =     27259.89416086
  Solvation  Ediel_sol  =         0.00000000
  ---------------------------------------------------
  free energy    TOTEN  =      -244.32926582 eV

  energy without entropy =     -244.22428327  energy(sigma->0) =     -244.29427164


--------------------------------------------------------------------------------------------------------




--------------------------------------- Iteration      1(   9)  ---------------------------------------


    POTLOK:  cpu time    0.1733: real time    0.1745
    SETDIJ:  cpu time    0.0111: real time    0.0112
    EDDIAG:  cpu time    2.0474: real time    2.0614
  RMM-DIIS:  cpu time    7.0135: real time    7.0668
    ORTHCH:  cpu time    0.2749: real time    0.2767
       DOS:  cpu time    0.0013: real time    0.0013
    CHARGE:  cpu time    0.8751: real time    0.8814
    MIXING:  cpu time    0.0060: real time    0.0060
    --------------------------------------------
      LOOP:  cpu time   10.4024: real time   10.4793

 eigenvalue-minimisations  :  1831
 total energy-change (2. order) : 0.1245719E+02  (-0.5053642E+00)
 number of electron     376.0000042 magnetization 
 augmentation part      112.6384277 magnetization 

 Broyden mixing:
  rms(total) = 0.89985E+00    rms(broyden)= 0.89954E+00
  rms(prec ) = 0.12146E+01
  weight for this iteration     100.00

 eigenvalues of (default mixing * dielectric matrix)
  average eigenvalue GAMMA=   0.5252
  1.2903  0.3384  0.3384  0.1336

 Free energy of the ion-electron system (eV)
  ---------------------------------------------------
  alpha Z        PSCENC =       975.10247152
  Ewald energy   TEWEN  =     91756.52728906
  -Hartree energ DENC   =   -120472.15322751
  -exchange      EXHF   =         0.00000000
  -V(xc)+E(xc)   XCENC  =       178.96908268
  PAW double counting   =     28720.18884781   -27788.81908581
  entropy T*S    EENTRO =        -0.07193548
  eigenvalues    EBANDS =      -861.50967455
  atomic energy  EATOM  =     27259.89416086
  Solvation  Ediel_sol  =         0.00000000
  ---------------------------------------------------
  free energy    TOTEN  =      -231.87207143 eV

  energy without entropy =     -231.80013595  energy(sigma->0) =     -231.84809294


--------------------------------------------------------------------------------------------------------




--------------------------------------- Iteration      1(  10)  ---------------------------------------


    POTLOK:  cpu time    0.1718: real time    0.1731
    SETDIJ:  cpu time    0.0108: real time    0.0109
    EDDIAG:  cpu time    2.0682: real time    2.0833
  RMM-DIIS:  cpu time    7.0462: real time    7.1010
    ORTHCH:  cpu time    0.2801: real time    0.2820
       DOS:  cpu time    0.0012: real time    0.0012
    CHARGE:  cpu time    0.7652: real time    0.7702
    MIXING:  cpu time    0.0068: real time    0.0068
    --------------------------------------------
      LOOP:  cpu time   10.3503: real time   10.4286

 eigenvalue-minimisations  :  1831
 total energy-change (2. order) : 0.1125506E+01  (-0.1699650E+00)
 number of electron     376.0000043 magnetization 
 augmentation part      112.7375727 magnetization 

 Broyden mixing:
  rms(total) = 0.57124E+00    rms(broyden)= 0.57117E+00
  rms(prec ) = 0.73597E+00
  weight for this iteration     100.00

 eigenvalues of (default mixing * dielectric matrix)
  average eigenvalue GAMMA=   0.5404
  1.3961  0.4634  0.4559  0.1364  0.2503

 Free energy of the ion-electron system (eV)
  ---------------------------------------------------
  alpha Z        PSCENC =       975.10247152
  Ewald energy   TEWEN  =     91756.52728906
  -Hartree energ DENC   =   -120461.68400495
  -exchange      EXHF   =         0.00000000
  -V(xc)+E(xc)   XCENC  =       178.84458600
  PAW double counting   =     29060.55206360   -28133.82505576
  entropy T*S    EENTRO =         0.01947567
  eigenvalues    EBANDS =      -866.17755141
  atomic energy  EATOM  =     27259.89416086
  Solvation  Ediel_sol  =         0.00000000
  ---------------------------------------------------
  free energy    TOTEN  =      -230.74656541 eV

  energy without entropy =     -230.76604108  energy(sigma->0) =     -230.75305730


--------------------------------------------------------------------------------------------------------




--------------------------------------- Iteration      1(  11)  ---------------------------------------


    POTLOK:  cpu time    0.1797: real time    0.1813
    SETDIJ:  cpu time    0.0110: real time    0.0111
    EDDIAG:  cpu time    2.0567: real time    2.0704
  RMM-DIIS:  cpu time    6.9839: real time    7.0344
    ORTHCH:  cpu time    0.2739: real time    0.2757
       DOS:  cpu time    0.0012: real time    0.0012
    CHARGE:  cpu time    0.7398: real time    0.7452
    MIXING:  cpu time    0.0062: real time    0.0062
    --------------------------------------------
      LOOP:  cpu time   10.2523: real time   10.3255

 eigenvalue-minimisations  :  1831
 total energy-change (2. order) : 0.4199002E+00  (-0.5113445E-01)
 number of electron     376.0000041 magnetization 
 augmentation part      112.8943674 magnetization 

 Broyden mixing:
  rms(total) = 0.32312E+00    rms(broyden)= 0.32281E+00
  rms(prec ) = 0.42336E+00
  weight for this iteration     100.00

 eigenvalues of (default mixing * dielectric matrix)
  average eigenvalue GAMMA=   0.5798
  1.5504  0.8291  0.3693  0.3693  0.1351  0.2254

 Free energy of the ion-electron system (eV)
  ---------------------------------------------------
  alpha Z        PSCENC =       975.10247152
  Ewald energy   TEWEN  =     91756.52728906
  -Hartree energ DENC   =   -120455.07666300
  -exchange      EXHF   =         0.00000000
  -V(xc)+E(xc)   XCENC  =       178.84144749
  PAW double counting   =     29354.86496460   -28431.94765510
  entropy T*S    EENTRO =        -0.03253411
  eigenvalues    EBANDS =      -868.50014652
  atomic energy  EATOM  =     27259.89416086
  Solvation  Ediel_sol  =         0.00000000
  ---------------------------------------------------
  free energy    TOTEN  =      -230.32666519 eV

  energy without entropy =     -230.29413108  energy(sigma->0) =     -230.31582049


--------------------------------------------------------------------------------------------------------




--------------------------------------- Iteration      1(  12)  ---------------------------------------


    POTLOK:  cpu time    0.1771: real time    0.1783
    SETDIJ:  cpu time    0.0114: real time    0.0115
    EDDIAG:  cpu time    2.0788: real time    2.0925
  RMM-DIIS:  cpu time    6.8842: real time    6.9331
    ORTHCH:  cpu time    0.2689: real time    0.2705
       DOS:  cpu time    0.0012: real time    0.0013
    CHARGE:  cpu time    0.8226: real time    0.8283
    MIXING:  cpu time    0.0062: real time    0.0063
    --------------------------------------------
      LOOP:  cpu time   10.2505: real time   10.3217

 eigenvalue-minimisations  :  1840
 total energy-change (2. order) : 0.1508835E+00  (-0.2063603E-01)
 number of electron     376.0000040 magnetization 
 augmentation part      112.9758913 magnetization 

 Broyden mixing:
  rms(total) = 0.22401E+00    rms(broyden)= 0.22393E+00
  rms(prec ) = 0.26038E+00
  weight for this iteration     100.00

 eigenvalues of (default mixing * dielectric matrix)
  average eigenvalue GAMMA=   0.6388
  1.8000  1.0224  0.4968  0.4968  0.1354  0.2746  0.2456

 Free energy of the ion-electron system (eV)
  ---------------------------------------------------
  alpha Z        PSCENC =       975.10247152
  Ewald energy   TEWEN  =     91756.52728906
  -Hartree energ DENC   =   -120444.82506859
  -exchange      EXHF   =         0.00000000
  -V(xc)+E(xc)   XCENC  =       178.79613686
  PAW double counting   =     29637.36564983   -28717.89721181
  entropy T*S    EENTRO =        -0.04058466
  eigenvalues    EBANDS =      -875.09862479
  atomic energy  EATOM  =     27259.89416086
  Solvation  Ediel_sol  =         0.00000000
  ---------------------------------------------------
  free energy    TOTEN  =      -230.17578172 eV

  energy without entropy =     -230.13519706  energy(sigma->0) =     -230.16225350


--------------------------------------------------------------------------------------------------------




--------------------------------------- Iteration      1(  13)  ---------------------------------------


    POTLOK:  cpu time    0.1763: real time    0.1777
    SETDIJ:  cpu time    0.0112: real time    0.0112
    EDDIAG:  cpu time    2.0474: real time    2.0616
  RMM-DIIS:  cpu time    6.9761: real time    7.0270
    ORTHCH:  cpu time    0.2733: real time    0.2752
       DOS:  cpu time    0.0012: real time    0.0012
    CHARGE:  cpu time    0.7613: real time    0.7663
    MIXING:  cpu time    0.0065: real time    0.0066
    --------------------------------------------
      LOOP:  cpu time   10.2531: real time   10.3268

 eigenvalue-minimisations  :  1834
 total energy-change (2. order) :-0.3120077E-02  (-0.1288612E-01)
 number of electron     376.0000040 magnetization 
 augmentation part      112.9650053 magnetization 

 Broyden mixing:
  rms(total) = 0.20042E+00    rms(broyden)= 0.20038E+00
  rms(prec ) = 0.25337E+00
  weight for this iteration     100.00

 eigenvalues of (default mixing * dielectric matrix)
  average eigenvalue GAMMA=   0.6732
  2.0588  1.1060  0.8421  0.1354  0.4024  0.3465  0.2690  0.2257

 Free energy of the ion-electron system (eV)
  ---------------------------------------------------
  alpha Z        PSCENC =       975.10247152
  Ewald energy   TEWEN  =     91756.52728906
  -Hartree energ DENC   =   -120442.97790121
  -exchange      EXHF   =         0.00000000
  -V(xc)+E(xc)   XCENC  =       178.70572764
  PAW double counting   =     29862.86555138   -28946.05110069
  entropy T*S    EENTRO =        -0.02615246
  eigenvalues    EBANDS =      -874.21894790
  atomic energy  EATOM  =     27259.89416086
  Solvation  Ediel_sol  =         0.00000000
  ---------------------------------------------------
  free energy    TOTEN  =      -230.17890179 eV

  energy without entropy =     -230.15274933  energy(sigma->0) =     -230.17018431


--------------------------------------------------------------------------------------------------------




--------------------------------------- Iteration      1(  14)  ---------------------------------------


    POTLOK:  cpu time    0.1750: real time    0.1764
    SETDIJ:  cpu time    0.0110: real time    0.0110
    EDDIAG:  cpu time    1.9848: real time    1.9985
  RMM-DIIS:  cpu time    6.9325: real time    6.9831
    ORTHCH:  cpu time    0.2803: real time    0.2820
       DOS:  cpu time    0.0012: real time    0.0012
    CHARGE:  cpu time    0.7792: real time    0.7844
    MIXING:  cpu time    0.0067: real time    0.0067
    --------------------------------------------
      LOOP:  cpu time   10.1706: real time   10.2434

 eigenvalue-minimisations  :  1832
 total energy-change (2. order) : 0.5589372E-01  (-0.8336562E-02)
 number of electron     376.0000041 magnetization 
 augmentation part      112.9507366 magnetization 

 Broyden mixing:
  rms(total) = 0.84566E-01    rms(broyden)= 0.84553E-01
  rms(prec ) = 0.99775E-01
  weight for this iteration     100.00

 eigenvalues of (default mixing * dielectric matrix)
  average eigenvalue GAMMA=   0.7273
  2.4319  1.2710  0.9149  0.5752  0.4200  0.1354  0.3271  0.2455  0.2249

 Free energy of the ion-electron system (eV)
  ---------------------------------------------------
  alpha Z        PSCENC =       975.10247152
  Ewald energy   TEWEN  =     91756.52728906
  -Hartree energ DENC   =   -120448.54633205
  -exchange      EXHF   =         0.00000000
  -V(xc)+E(xc)   XCENC  =       178.63072182
  PAW double counting   =     30040.82290196   -29126.07283539
  entropy T*S    EENTRO =        -0.02838039
  eigenvalues    EBANDS =      -866.45300548
  atomic energy  EATOM  =     27259.89416086
  Solvation  Ediel_sol  =         0.00000000
  ---------------------------------------------------
  free energy    TOTEN  =      -230.12300807 eV

  energy without entropy =     -230.09462769  energy(sigma->0) =     -230.11354795


--------------------------------------------------------------------------------------------------------




--------------------------------------- Iteration      1(  15)  ---------------------------------------


    POTLOK:  cpu time    0.1779: real time    0.1792
    SETDIJ:  cpu time    0.0112: real time    0.0113
    EDDIAG:  cpu time    1.9800: real time    1.9934
  RMM-DIIS:  cpu time    6.5741: real time    6.6257
    ORTHCH:  cpu time    0.2833: real time    0.2855
       DOS:  cpu time    0.0012: real time    0.0013
    CHARGE:  cpu time    0.7325: real time    0.7384
    MIXING:  cpu time    0.0079: real time    0.0079
    --------------------------------------------
      LOOP:  cpu time    9.7681: real time    9.8427

 eigenvalue-minimisations  :  1830
 total energy-change (2. order) : 0.4838971E-02  (-0.3439418E-02)
 number of electron     376.0000041 magnetization 
 augmentation part      112.9359771 magnetization 

 Broyden mixing:
  rms(total) = 0.64886E-01    rms(broyden)= 0.64825E-01
  rms(prec ) = 0.77223E-01
  weight for this iteration     100.00

 eigenvalues of (default mixing * dielectric matrix)
  average eigenvalue GAMMA=   0.7060
  2.5186  1.2785  0.7834  0.7584  0.4448  0.1354  0.3557  0.3181  0.2432  0.2244

 Free energy of the ion-electron system (eV)
  ---------------------------------------------------
  alpha Z        PSCENC =       975.10247152
  Ewald energy   TEWEN  =     91756.52728906
  -Hartree energ DENC   =   -120449.01254286
  -exchange      EXHF   =         0.00000000
  -V(xc)+E(xc)   XCENC  =       178.59453279
  PAW double counting   =     30156.31375043   -29242.81671463
  entropy T*S    EENTRO =        -0.02471054
  eigenvalues    EBANDS =      -864.69640573
  atomic energy  EATOM  =     27259.89416086
  Solvation  Ediel_sol  =         0.00000000
  ---------------------------------------------------
  free energy    TOTEN  =      -230.11816910 eV

  energy without entropy =     -230.09345856  energy(sigma->0) =     -230.10993226


--------------------------------------------------------------------------------------------------------




--------------------------------------- Iteration      1(  16)  ---------------------------------------


    POTLOK:  cpu time    0.1727: real time    0.1743
    SETDIJ:  cpu time    0.0108: real time    0.0108
    EDDIAG:  cpu time    2.1465: real time    2.1621
  RMM-DIIS:  cpu time    7.1085: real time    7.1675
    ORTHCH:  cpu time    0.2675: real time    0.2692
       DOS:  cpu time    0.0012: real time    0.0012
    CHARGE:  cpu time    0.8161: real time    0.8222
    MIXING:  cpu time    0.0066: real time    0.0067
    --------------------------------------------
      LOOP:  cpu time   10.5299: real time   10.6140

 eigenvalue-minimisations  :  1830
 total energy-change (2. order) : 0.4852279E-02  (-0.7732465E-03)
 number of electron     376.0000041 magnetization 
 augmentation part      112.9447556 magnetization 

 Broyden mixing:
  rms(total) = 0.31006E-01    rms(broyden)= 0.30996E-01
  rms(prec ) = 0.37439E-01
  weight for this iteration     100.00

 eigenvalues of (default mixing * dielectric matrix)
  average eigenvalue GAMMA=   0.6813
  2.5254  1.2735  0.7864  0.7864  0.5042  0.4168  0.1354  0.3008  0.3008  0.2400
  0.2250

 Free energy of the ion-electron system (eV)
  ---------------------------------------------------
  alpha Z        PSCENC =       975.10247152
  Ewald energy   TEWEN  =     91756.52728906
  -Hartree energ DENC   =   -120449.19338684
  -exchange      EXHF   =         0.00000000
  -V(xc)+E(xc)   XCENC  =       178.60572932
  PAW double counting   =     30174.13788555   -29260.81338904
  entropy T*S    EENTRO =        -0.02683262
  eigenvalues    EBANDS =      -864.34724464
  atomic energy  EATOM  =     27259.89416086
  Solvation  Ediel_sol  =         0.00000000
  ---------------------------------------------------
  free energy    TOTEN  =      -230.11331683 eV

  energy without entropy =     -230.08648421  energy(sigma->0) =     -230.10437262


--------------------------------------------------------------------------------------------------------




--------------------------------------- Iteration      1(  17)  ---------------------------------------


    POTLOK:  cpu time    0.1765: real time    0.1780
    SETDIJ:  cpu time    0.0113: real time    0.0113
    EDDIAG:  cpu time    2.1455: real time    2.1618
  RMM-DIIS:  cpu time    6.9831: real time    7.0387
    ORTHCH:  cpu time    0.2671: real time    0.2690
       DOS:  cpu time    0.0011: real time    0.0011
    CHARGE:  cpu time    0.7361: real time    0.7418
    MIXING:  cpu time    0.0087: real time    0.0088
    --------------------------------------------
      LOOP:  cpu time   10.3294: real time   10.4105

 eigenvalue-minimisations  :  1820
 total energy-change (2. order) : 0.1088370E-02  (-0.2042607E-03)
 number of electron     376.0000041 magnetization 
 augmentation part      112.9463355 magnetization 

 Broyden mixing:
  rms(total) = 0.15021E-01    rms(broyden)= 0.15014E-01
  rms(prec ) = 0.17818E-01
  weight for this iteration     100.00

 eigenvalues of (default mixing * dielectric matrix)
  average eigenvalue GAMMA=   0.7242
  2.4927  1.2027  1.1167  1.1167  0.7650  0.4570  0.1354  0.3638  0.3337  0.2501
  0.2242  0.2328

 Free energy of the ion-electron system (eV)
  ---------------------------------------------------
  alpha Z        PSCENC =       975.10247152
  Ewald energy   TEWEN  =     91756.52728906
  -Hartree energ DENC   =   -120449.52141847
  -exchange      EXHF   =         0.00000000
  -V(xc)+E(xc)   XCENC  =       178.61190393
  PAW double counting   =     30175.07429080   -29261.73312534
  entropy T*S    EENTRO =        -0.02725939
  eigenvalues    EBANDS =      -864.04054143
  atomic energy  EATOM  =     27259.89416086
  Solvation  Ediel_sol  =         0.00000000
  ---------------------------------------------------
  free energy    TOTEN  =      -230.11222846 eV

  energy without entropy =     -230.08496907  energy(sigma->0) =     -230.10314199


--------------------------------------------------------------------------------------------------------




--------------------------------------- Iteration      1(  18)  ---------------------------------------


    POTLOK:  cpu time    0.1795: real time    0.1811
    SETDIJ:  cpu time    0.0118: real time    0.0118
    EDDIAG:  cpu time    2.0263: real time    2.0415
  RMM-DIIS:  cpu time    6.6023: real time    6.6526
    ORTHCH:  cpu time    0.2820: real time    0.2841
       DOS:  cpu time    0.0013: real time    0.0013
    CHARGE:  cpu time    0.7242: real time    0.7294
    MIXING:  cpu time    0.0075: real time    0.0075
    --------------------------------------------
      LOOP:  cpu time    9.8349: real time    9.9093

 eigenvalue-minimisations  :  1813
 total energy-change (2. order) :-0.4394716E-03  (-0.9929142E-04)
 number of electron     376.0000041 magnetization 
 augmentation part      112.9417522 magnetization 

 Broyden mixing:
  rms(total) = 0.15194E-01    rms(broyden)= 0.15192E-01
  rms(prec ) = 0.18767E-01
  weight for this iteration     100.00

 eigenvalues of (default mixing * dielectric matrix)
  average eigenvalue GAMMA=   0.7432
  2.4226  1.8842  1.3098  0.8532  0.8532  0.4283  0.4283  0.1354  0.3245  0.3245
  0.2228  0.2402  0.2346

 Free energy of the ion-electron system (eV)
  ---------------------------------------------------
  alpha Z        PSCENC =       975.10247152
  Ewald energy   TEWEN  =     91756.52728906
  -Hartree energ DENC   =   -120450.65543500
  -exchange      EXHF   =         0.00000000
  -V(xc)+E(xc)   XCENC  =       178.62035822
  PAW double counting   =     30170.99064242   -29257.53253547
  entropy T*S    EENTRO =        -0.02679333
  eigenvalues    EBANDS =      -863.03282621
  atomic energy  EATOM  =     27259.89416086
  Solvation  Ediel_sol  =         0.00000000
  ---------------------------------------------------
  free energy    TOTEN  =      -230.11266793 eV

  energy without entropy =     -230.08587460  energy(sigma->0) =     -230.10373682


--------------------------------------------------------------------------------------------------------




--------------------------------------- Iteration      1(  19)  ---------------------------------------


    POTLOK:  cpu time    0.1684: real time    0.1697
    SETDIJ:  cpu time    0.0111: real time    0.0113
    EDDIAG:  cpu time    2.0590: real time    2.0744
  RMM-DIIS:  cpu time    5.8623: real time    5.9044
    ORTHCH:  cpu time    0.2726: real time    0.2746
       DOS:  cpu time    0.0013: real time    0.0013
    --------------------------------------------
      LOOP:  cpu time    8.3746: real time    8.4356

 eigenvalue-minimisations  :  1482
 total energy-change (2. order) : 0.1113788E-04  (-0.4992480E-04)
 number of electron     376.0000041 magnetization 
 augmentation part      112.9417522 magnetization 

 Free energy of the ion-electron system (eV)
  ---------------------------------------------------
  alpha Z        PSCENC =       975.10247152
  Ewald energy   TEWEN  =     91756.52728906
  -Hartree energ DENC   =   -120451.66440616
  -exchange      EXHF   =         0.00000000
  -V(xc)+E(xc)   XCENC  =       178.62764790
  PAW double counting   =     30168.15578415   -29254.61785675
  entropy T*S    EENTRO =        -0.02681198
  eigenvalues    EBANDS =      -862.11093539
  atomic energy  EATOM  =     27259.89416086
  Solvation  Ediel_sol  =         0.00000000
  ---------------------------------------------------
  free energy    TOTEN  =      -230.11265679 eV

  energy without entropy =     -230.08584481  energy(sigma->0) =     -230.10371946


--------------------------------------------------------------------------------------------------------




 average (electrostatic) potential at core
  the test charge radii are     0.6991  0.7215  1.2059
  (the norm of the test charge is              1.0000)
       1 -56.2920       2 -74.5018       3 -76.1490       4 -72.3429       5 -72.3487
       6 -72.3352       7 -72.3497       8 -72.3611       9 -72.3565      10 -72.3087
      11 -72.3354      12 -72.3285      13 -72.8410      14 -73.0203      15 -72.9264
      16 -72.9953      17 -73.0318      18 -72.9964      19 -73.0702      20 -73.0873
      21 -73.0347      22 -73.0237      23 -73.0089      24 -72.9026      25 -73.0402
      26 -73.0455      27 -73.0431      28 -72.9610      29 -73.0405      30 -72.9335
      31 -72.4659      32 -72.2363      33 -72.5958      34 -72.3550      35 -72.4546
      36 -73.4639      37 -72.4603      38 -73.2367      39 -72.4937
 
 
 
 E-fermi :   1.0707     XC(G=0):  -6.6095     alpha+bet : -6.8913


 k-point     1 :       0.0000    0.0000    0.0000
  band No.  band energies     occupation 
      1     -22.0538      2.00000
      2     -16.6161      2.00000
      3      -9.0220      2.00000
      4      -8.1548      2.00000
      5      -6.8496      2.00000
      6      -6.0184      2.00000
      7      -5.8941      2.00000
      8      -5.8255      2.00000
      9      -5.7651      2.00000
     10      -5.7129      2.00000
     11      -5.7020      2.00000
     12      -5.6611      2.00000
     13      -5.5975      2.00000
     14      -5.5886      2.00000
     15      -5.4902      2.00000
     16      -5.3720      2.00000
     17      -5.1563      2.00000
     18      -5.1165      2.00000
     19      -5.0955      2.00000
     20      -5.0720      2.00000
     21      -5.0633      2.00000
     22      -5.0331      2.00000
     23      -4.7160      2.00000
     24      -4.6529      2.00000
     25      -4.6076      2.00000
     26      -4.5804      2.00000
     27      -4.5688      2.00000
     28      -4.5636      2.00000
     29      -4.4751      2.00000
     30      -4.4207      2.00000
     31      -4.3992      2.00000
     32      -4.3682      2.00000
     33      -4.3456      2.00000
     34      -4.2913      2.00000
     35      -4.1905      2.00000
     36      -4.1831      2.00000
     37      -4.1607      2.00000
     38      -4.1490      2.00000
     39      -4.1111      2.00000
     40      -4.0981      2.00000
     41      -4.0792      2.00000
     42      -4.0644      2.00000
     43      -4.0394      2.00000
     44      -4.0318      2.00000
     45      -4.0141      2.00000
     46      -3.9972      2.00000
     47      -3.6608      2.00000
     48      -3.6049      2.00000
     49      -3.5284      2.00000
     50      -3.4836      2.00000
     51      -3.4528      2.00000
     52      -3.4390      2.00000
     53      -3.4206      2.00000
     54      -3.3933      2.00000
     55      -3.3653      2.00000
     56      -3.3397      2.00000
     57      -3.3057      2.00000
     58      -3.2360      2.00000
     59      -3.2036      2.00000
     60      -3.1635      2.00000
     61      -3.0038      2.00000
     62      -2.8929      2.00000
     63      -2.8311      2.00000
     64      -2.6787      2.00000
     65      -2.6675      2.00000
     66      -2.6227      2.00000
     67      -2.5755      2.00000
     68      -2.5373      2.00000
     69      -2.5237      2.00000
     70      -2.4861      2.00000
     71      -2.4707      2.00000
     72      -2.4595      2.00000
     73      -2.4448      2.00000
     74      -2.4338      2.00000
     75      -2.4142      2.00000
     76      -2.3995      2.00000
     77      -2.3853      2.00000
     78      -2.3710      2.00000
     79      -2.3555      2.00000
     80      -2.3465      2.00000
     81      -2.3399      2.00000
     82      -2.3249      2.00000
     83      -2.2825      2.00000
     84      -2.2568      2.00000
     85      -2.2472      2.00000
     86      -2.1800      2.00000
     87      -2.1475      2.00000
     88      -2.1312      2.00000
     89      -2.1170      2.00000
     90      -2.1114      2.00000
     91      -2.0360      2.00000
     92      -2.0327      2.00000
     93      -2.0103      2.00000
     94      -1.9767      2.00000
     95      -1.9526      2.00000
     96      -1.9325      2.00000
     97      -1.9062      2.00000
     98      -1.8669      2.00000
     99      -1.8488      2.00000
    100      -1.7893      2.00000
    101      -1.7003      2.00000
    102      -1.6550      2.00000
    103      -1.6461      2.00000
    104      -1.6263      2.00000
    105      -1.6040      2.00000
    106      -1.5715      2.00000
    107      -1.5586      2.00000
    108      -1.5541      2.00000
    109      -1.5214      2.00000
    110      -1.5115      2.00000
    111      -1.5079      2.00000
    112      -1.4963      2.00000
    113      -1.4633      2.00000
    114      -1.3738      2.00000
    115      -1.3037      2.00000
    116      -1.2048      2.00000
    117      -1.1456      2.00000
    118      -1.0819      2.00000
    119      -1.0677      2.00000
    120      -1.0219      2.00000
    121      -1.0120      2.00000
    122      -0.9631      2.00000
    123      -0.9367      2.00000
    124      -0.9102      2.00000
    125      -0.8865      2.00000
    126      -0.8462      2.00000
    127      -0.8178      2.00000
    128      -0.7845      2.00000
    129      -0.7189      2.00000
    130      -0.6872      2.00000
    131      -0.6844      2.00000
    132      -0.6808      2.00000
    133      -0.6302      2.00000
    134      -0.5663      2.00000
    135      -0.5165      2.00000
    136      -0.4870      2.00000
    137      -0.4647      2.00000
    138      -0.3987      2.00000
    139      -0.3839      2.00000
    140      -0.3805      2.00000
    141      -0.3129      2.00000
    142      -0.2554      2.00000
    143      -0.2137      2.00000
    144      -0.1957      2.00000
    145      -0.1910      2.00000
    146      -0.1499      2.00000
    147      -0.1132      2.00000
    148      -0.0624      2.00000
    149      -0.0053      2.00000
    150       0.0133      2.00000
    151       0.0347      2.00000
    152       0.0649      2.00000
    153       0.0932      2.00000
    154       0.1226      2.00000
    155       0.1392      2.00000
    156       0.1710      2.00000
    157       0.1866      2.00000
    158       0.2439      2.00000
    159       0.2497      2.00000
    160       0.2572      2.00000
    161       0.2755      2.00000
    162       0.2968      2.00000
    163       0.3170      2.00000
    164       0.3223      2.00000
    165       0.3402      2.00000
    166       0.3703      2.00001
    167       0.3791      2.00001
    168       0.3863      2.00001
    169       0.4426      2.00008
    170       0.4610      2.00014
    171       0.4706      2.00019
    172       0.5057      2.00048
    173       0.5750      2.00255
    174       0.5992      2.00427
    175       0.6080      2.00511
    176       0.6110      2.00543
    177       0.6359      2.00875
    178       0.6678      2.01524
    179       0.6733      2.01667
    180       0.6964      2.02367
    181       0.7295      2.03657
    182       0.7377      2.04017
    183       0.7768      2.05796
    184       0.7899      2.06325
    185       0.7925      2.06418
    186       0.7996      2.06652
    187       0.8037      2.06769
    188       0.8110      2.06939
    189       0.8136      2.06987
    190       0.8260      2.07092
    191       0.8368      2.06991
    192       0.8454      2.06755
    193       0.8623      2.05790
    194       0.9010      2.00283
    195       0.9476      1.85367
    196       1.0527      1.15180
    197       1.0764      0.95158
    198       1.1454      0.41444
    199       1.1738      0.24338
    200       1.1953      0.13981
    201       1.2067      0.09486
    202       1.2306      0.02034
    203       1.2419     -0.00589
    204       1.4427     -0.02449
    205       1.4882     -0.01193
    206       1.9020     -0.00000
    207       1.9821     -0.00000
    208       2.0488     -0.00000
    209       2.0603     -0.00000
    210       2.1686     -0.00000
    211       2.5963     -0.00000
    212       3.5854     -0.00000
    213       4.0406     -0.00000
    214       4.3389     -0.00000
    215       4.3822     -0.00000
    216       4.4033     -0.00000
    217       4.6061     -0.00000
    218       4.9487     -0.00000
    219       5.4872     -0.00000
    220       5.5775     -0.00000
    221       5.8583     -0.00000
    222       5.8655     -0.00000
    223       5.8894     -0.00000
    224       5.9006     -0.00000
    225       5.9789     -0.00000
    226       6.0946     -0.00000
    227       6.5502      0.00000
    228       6.8694      0.00000

 k-point     2 :       0.5000    0.0000    0.0000
  band No.  band energies     occupation 
      1     -22.0536      2.00000
      2     -16.6157      2.00000
      3      -9.0083      2.00000
      4      -7.3258      2.00000
      5      -7.2521      2.00000
      6      -6.1351      2.00000
      7      -6.0773      2.00000
      8      -5.9276      2.00000
      9      -5.8648      2.00000
     10      -5.7564      2.00000
     11      -5.5880      2.00000
     12      -5.4990      2.00000
     13      -5.4551      2.00000
     14      -5.3010      2.00000
     15      -5.0432      2.00000
     16      -4.9895      2.00000
     17      -4.9493      2.00000
     18      -4.9212      2.00000
     19      -4.8980      2.00000
     20      -4.8865      2.00000
     21      -4.8585      2.00000
     22      -4.8323      2.00000
     23      -4.8032      2.00000
     24      -4.7947      2.00000
     25      -4.7814      2.00000
     26      -4.7639      2.00000
     27      -4.7220      2.00000
     28      -4.6854      2.00000
     29      -4.6525      2.00000
     30      -4.5975      2.00000
     31      -4.4071      2.00000
     32      -4.4047      2.00000
     33      -4.3786      2.00000
     34      -4.3419      2.00000
     35      -4.2804      2.00000
     36      -4.1660      2.00000
     37      -4.1141      2.00000
     38      -4.0505      2.00000
     39      -4.0451      2.00000
     40      -4.0166      2.00000
     41      -3.9979      2.00000
     42      -3.9286      2.00000
     43      -3.9037      2.00000
     44      -3.8328      2.00000
     45      -3.8109      2.00000
     46      -3.7189      2.00000
     47      -3.7000      2.00000
     48      -3.6875      2.00000
     49      -3.6474      2.00000
     50      -3.6293      2.00000
     51      -3.5152      2.00000
     52      -3.4666      2.00000
     53      -3.4438      2.00000
     54      -3.3964      2.00000
     55      -3.3727      2.00000
     56      -3.3151      2.00000
     57      -3.2696      2.00000
     58      -3.2253      2.00000
     59      -3.1969      2.00000
     60      -3.1703      2.00000
     61      -3.1245      2.00000
     62      -3.1219      2.00000
     63      -3.0737      2.00000
     64      -3.0387      2.00000
     65      -2.9575      2.00000
     66      -2.9377      2.00000
     67      -2.9213      2.00000
     68      -2.8883      2.00000
     69      -2.8531      2.00000
     70      -2.8126      2.00000
[...]
     89      -2.1593      2.00000
     90      -2.1568      2.00000
     91      -2.1201      2.00000
     92      -2.1122      2.00000
     93      -2.0773      2.00000
     94      -1.9994      2.00000
     95      -1.9717      2.00000
     96      -1.9522      2.00000
     97      -1.9061      2.00000
     98      -1.8911      2.00000
     99      -1.8744      2.00000
    100      -1.8414      2.00000
    101      -1.7796      2.00000
    102      -1.7613      2.00000
    103      -1.7380      2.00000
    104      -1.7262      2.00000
    105      -1.7027      2.00000
    106      -1.6883      2.00000
    107      -1.6801      2.00000
    108      -1.6554      2.00000
    109      -1.6226      2.00000
    110      -1.5702      2.00000
    111      -1.5232      2.00000
    112      -1.4680      2.00000
    113      -1.4533      2.00000
    114      -1.3716      2.00000
    115      -1.3134      2.00000
    116      -1.2946      2.00000
    117      -1.2378      2.00000
    118      -1.2108      2.00000
    119      -1.1496      2.00000
    120      -1.0894      2.00000
    121      -1.0813      2.00000
    122      -1.0482      2.00000
    123      -1.0384      2.00000
    124      -1.0073      2.00000
    125      -0.9949      2.00000
    126      -0.9688      2.00000
    127      -0.9554      2.00000
    128      -0.9373      2.00000
    129      -0.9227      2.00000
    130      -0.8913      2.00000
    131      -0.8533      2.00000
    132      -0.8077      2.00000
    133      -0.7670      2.00000
    134      -0.7392      2.00000
    135      -0.7207      2.00000
    136      -0.6965      2.00000
    137      -0.6817      2.00000
    138      -0.6482      2.00000
    139      -0.6070      2.00000
    140      -0.5663      2.00000
    141      -0.4939      2.00000
    142      -0.4536      2.00000
    143      -0.4002      2.00000
    144      -0.3081      2.00000
    145      -0.2581      2.00000
    146      -0.1980      2.00000
    147      -0.1900      2.00000
    148      -0.1422      2.00000
    149      -0.1141      2.00000
    150      -0.0771      2.00000
    151      -0.0463      2.00000
    152       0.0209      2.00000
    153       0.0398      2.00000
    154       0.0767      2.00000
    155       0.0918      2.00000
    156       0.1005      2.00000
    157       0.1114      2.00000
    158       0.1603      2.00000
    159       0.1992      2.00000
    160       0.2240      2.00000
    161       0.2561      2.00000
    162       0.2971      2.00000
    163       0.3164      2.00000
    164       0.3390      2.00000
    165       0.3565      2.00000
    166       0.4039      2.00001
    167       0.5262      2.00040
    168       0.5879      2.00183
    169       0.6006      2.00244
    170       0.6261      2.00421
    171       0.6440      2.00604
    172       0.6853      2.01287
    173       0.7221      2.02301
    174       0.7862      2.04976
    175       0.7921      2.05250
    176       0.8158      2.06258
    177       0.8565      2.07084
    178       0.8732      2.06749
    179       0.9187      2.02216
    180       0.9351      1.98816
    181       0.9393      1.97751
    182       1.0221      1.59638
    183       1.0501      1.39543
    184       1.0974      1.00786
    185       1.1028      0.96206
    186       1.1144      0.86470
    187       1.1371      0.67903
    188       1.1408      0.64943
    189       1.1620      0.49046
    190       1.1842      0.34258
    191       1.3044     -0.05596
    192       1.3341     -0.07023
    193       1.3645     -0.06792
    194       1.3836     -0.06156
    195       1.4242     -0.04344
    196       1.5192     -0.01124
    197       1.5912     -0.00271
    198       1.7297     -0.00008
    199       1.8228     -0.00000
    200       1.9799     -0.00000
    201       2.2616     -0.00000
    202       2.3355     -0.00000
    203       2.8215     -0.00000
    204       2.9365     -0.00000
    205       2.9603     -0.00000
    206       2.9876     -0.00000
    207       2.9992     -0.00000
    208       3.2271     -0.00000
    209       3.3817     -0.00000
    210       3.5106     -0.00000
    211       3.5581     -0.00000
    212       3.5979     -0.00000
    213       3.7238     -0.00000
    214       3.8010     -0.00000
    215       3.9708     -0.00000
    216       4.1744     -0.00000
    217       4.2278     -0.00000
    218       4.4008     -0.00000
    219       4.4506     -0.00000
    220       4.6114     -0.00000
    221       4.6432     -0.00000
    222       4.8190     -0.00000
    223       5.1659     -0.00000
    224       5.5457     -0.00000
    225       5.7957     -0.00000
    226       6.5343     -0.00000
    227       6.5602      0.00000
    228       6.6137      0.00000


--------------------------------------------------------------------------------------------------------


 soft charge-density along one line, spin component           1
         0         1         2         3         4         5         6         7         8         9
 total charge-density along one line
 
 pseudopotential strength for first ion, spin component:           1
 10.094   0.015   0.004   0.010   0.000  -0.004  -0.009   0.000
  0.015  -0.002  -0.000  -0.000  -0.000  -0.000  -0.000   0.000
  0.004  -0.000  -4.245  -0.006   0.001  -0.010  -0.002   0.000
  0.010  -0.000  -0.006  -4.259   0.003  -0.002  -0.016   0.000
  0.000  -0.000   0.001   0.003  -4.243   0.000   0.000  -0.009
 -0.004  -0.000  -0.010  -0.002   0.000  -0.770  -0.000   0.000
 -0.009  -0.000  -0.002  -0.016   0.000  -0.000  -0.770   0.000
  0.000   0.000   0.000   0.000  -0.009   0.000   0.000  -0.770
 total augmentation occupancy for first ion, spin component:           1
  1.640  -0.854   0.002  -0.005  -0.049   0.035   0.080  -0.022
 -0.854   1.185  -0.222  -0.526   0.085  -0.088  -0.221   0.029
  0.002  -0.222   0.854   0.204   0.005   0.115   0.056  -0.003
 -0.005  -0.526   0.204   1.307  -0.006   0.056   0.244  -0.007
 -0.049   0.085   0.005  -0.006   0.785  -0.004  -0.008   0.096
  0.035  -0.088   0.115   0.056  -0.004   0.020   0.022  -0.003
  0.080  -0.221   0.056   0.244  -0.008   0.022   0.069  -0.005
 -0.022   0.029  -0.003  -0.007   0.096  -0.003  -0.005   0.013


------------------------ aborting loop because EDIFF is reached ----------------------------------------


    CHARGE:  cpu time    0.4567: real time    0.4595
    FORLOC:  cpu time    0.0551: real time    0.0554
    FORNL :  cpu time    2.7729: real time    2.7899
    STRESS:  cpu time    8.4264: real time    8.4847
    FORCOR:  cpu time    0.2023: real time    0.2036
    FORHAR:  cpu time    0.0904: real time    0.0910
    MIXING:  cpu time    0.0062: real time    0.0062
    OFIELD:  cpu time    0.0000: real time    0.0000

  FORCE on cell =-STRESS in cart. coord.  units (eV):
  Direction    XX          YY          ZZ          XY          YZ          ZX
  --------------------------------------------------------------------------------------
  Alpha Z   975.10247   975.10247   975.10247
  Ewald  111473.45184111507.96058************  -181.01894   250.56509   -80.56468
  Hartree118233.34887118227.78092************  -122.89753   103.88162   -46.83519
  E(xc)   -1666.20457 -1665.85568 -1673.40498    -0.38875     0.68229    -0.19550
  Local  ************************240425.85252   295.42334  -330.53122   121.67351
  n-local   124.60132   124.27462    92.98876    -1.42865     1.65443    -0.33359
  augment  1896.15413  1893.37583  1931.38684     2.42587    -4.33760     1.01917
  Kinetic  5526.95696  5514.32641  5597.64012     8.39669   -21.74751     6.34099
  Fock        0.00000     0.00000     0.00000     0.00000     0.00000     0.00000
  -------------------------------------------------------------------------------------
  Total     -35.00547   -37.95570    -2.48090     0.51204     0.16711     1.10470
  in kB     -41.69209   -45.20586    -2.95479     0.60985     0.19903     1.31572
  external pressure =      -29.95 kB  Pullay stress =        0.00 kB


 VOLUME and BASIS-vectors are now :
 -----------------------------------------------------------------------------
  energy-cutoff  :      450.00
  volume of cell :     1345.22
      direct lattice vectors                 reciprocal lattice vectors
     7.296955120 -4.212899000  0.000000000     0.137043463  0.000000000  0.000000000
     0.000000000  8.425798000  0.000000000     0.068521732  0.118683121  0.000000000
     0.000000000  0.000000000 21.879635000     0.000000000  0.000000000  0.045704602

  length of vectors
     8.425798004  8.425798000 21.879635000     0.137043463  0.137043463  0.045704602


 FORCES acting on ions
    electron-ion (+dipol)            ewald-force                    non-local-force                 convergence-correction
 -----------------------------------------------------------------------------------------------
   0.136E+02 0.221E+02 -.890E+03   -.143E+02 -.270E+02 0.879E+03   0.350E+00 0.436E+01 0.111E+02   -.971E-02 -.294E-02 0.283E-02
   -.756E+02 0.453E+02 -.161E+04   0.751E+02 -.407E+02 0.163E+04   0.105E+01 -.422E+01 -.243E+02   0.327E-02 0.404E-01 0.434E-01
   0.539E+02 -.106E+03 -.155E+04   -.606E+02 0.128E+03 0.161E+04   0.691E+01 -.221E+02 -.569E+02   0.230E-01 -.446E-02 0.133E-01
   -.173E-01 0.561E+00 0.234E+04   0.512E-02 -.553E+00 -.234E+04   0.199E-01 -.425E-01 -.120E+01   0.186E-01 -.662E-02 0.643E-02
   0.675E+00 0.370E+00 0.234E+04   -.701E+00 -.384E+00 -.234E+04   -.353E-02 -.401E-01 -.110E+01   -.185E-01 0.172E-01 0.165E-01
   -.131E+00 0.169E+00 0.234E+04   0.369E-01 -.191E+00 -.234E+04   0.293E-01 -.149E-01 -.114E+01   0.272E-01 0.368E-01 0.773E-02
   0.103E+00 0.529E-01 0.234E+04   -.783E-01 -.284E-01 -.234E+04   0.164E-02 0.191E-01 -.116E+01   -.139E-01 0.228E-01 0.991E-02
   0.417E+00 0.339E+00 0.234E+04   -.425E+00 -.299E+00 -.234E+04   0.684E-02 0.142E-01 -.128E+01   -.129E-01 -.204E-01 0.628E-02
   -.262E+00 0.153E+00 0.234E+04   0.234E+00 -.145E+00 -.234E+04   0.177E-01 0.221E-02 -.122E+01   0.298E-01 0.287E-02 0.196E-01
   0.355E+00 -.835E+00 0.234E+04   -.221E+00 0.676E+00 -.234E+04   -.706E-01 0.950E-01 -.116E+01   -.493E-01 0.308E-02 0.265E-02
   -.751E+00 -.244E+00 0.234E+04   0.717E+00 0.339E+00 -.234E+04   -.690E-02 -.270E-01 -.124E+01   0.328E-01 -.396E-01 0.220E-02
   -.400E+00 -.551E+00 0.234E+04   0.437E+00 0.581E+00 -.234E+04   -.837E-02 -.194E-02 -.104E+01   -.136E-01 -.161E-01 0.147E-01
   0.176E+01 -.547E+01 0.855E+03   -.183E+01 0.546E+01 -.855E+03   0.481E-01 0.384E-01 -.374E+00   -.291E-01 0.106E-01 -.156E-01
   -.262E+01 -.292E+01 0.865E+03   0.252E+01 0.293E+01 -.865E+03   0.151E+00 0.641E-01 -.281E+00   -.273E-02 0.501E-02 0.946E-03
   -.425E+01 -.216E+01 0.858E+03   0.435E+01 0.207E+01 -.858E+03   0.185E-01 0.102E+00 -.231E+00   0.237E-01 -.324E-01 -.405E-01
   0.444E+01 0.550E+01 0.861E+03   -.449E+01 -.559E+01 -.861E+03   -.541E-01 -.115E-01 -.297E+00   0.192E-01 -.116E-01 -.122E-01
   0.229E+00 0.395E+01 0.865E+03   -.342E+00 -.398E+01 -.865E+03   0.150E+00 -.115E+00 -.398E+00   0.285E-02 0.440E-01 0.954E-02
   0.698E+00 0.338E+01 0.863E+03   -.698E+00 -.342E+01 -.863E+03   -.273E-01 -.308E-01 -.277E+00   0.131E-01 0.307E-01 -.267E-01
   0.174E+01 -.134E-01 0.865E+03   -.171E+01 0.127E+00 -.865E+03   -.171E-01 -.108E+00 -.405E+00   -.316E-01 0.464E-03 -.106E-01
   -.236E+01 0.718E+00 0.868E+03   0.236E+01 -.621E+00 -.867E+03   0.972E-01 -.856E-01 -.519E+00   0.105E-01 -.476E-01 0.231E-02
   -.942E+00 -.800E+00 0.864E+03   0.105E+01 0.950E+00 -.864E+03   -.152E-01 -.888E-01 -.373E+00   -.722E-02 0.195E-02 -.292E-01
   -.266E+01 0.113E+01 -.634E+03   0.253E+01 -.122E+01 0.633E+03   0.117E+00 0.189E-01 0.447E+00   0.248E-01 0.779E-03 -.252E-01
   0.382E+01 -.696E+00 -.623E+03   -.377E+01 0.795E+00 0.622E+03   -.205E+00 0.171E-01 0.535E+00   -.230E-02 -.466E-01 -.547E-01
   -.414E+01 0.376E+01 -.652E+03   0.393E+01 -.349E+01 0.652E+03   0.298E+00 -.330E+00 0.859E-01   -.324E-02 0.316E-01 -.194E-01
   -.619E+01 0.123E+02 -.655E+03   0.563E+01 -.116E+02 0.656E+03   0.532E+00 -.728E+00 -.834E+00   0.548E-01 0.922E-02 0.152E-01
   0.142E+02 -.166E+01 -.633E+03   -.135E+02 0.148E+01 0.633E+03   -.687E+00 0.158E+00 -.118E+00   -.207E-01 0.604E-01 0.376E-01
   -.396E+01 -.113E+02 -.630E+03   0.385E+01 0.112E+02 0.630E+03   0.279E-01 0.170E+00 0.505E+00   0.278E-02 -.411E-02 -.793E-01
   -.459E+01 -.367E+01 -.634E+03   0.470E+01 0.376E+01 0.634E+03   -.148E+00 0.225E-01 0.434E+00   -.136E-01 -.707E-01 -.677E-01
   0.499E+01 0.516E+00 -.618E+03   -.499E+01 -.563E+00 0.617E+03   -.658E-01 0.166E+00 0.553E+00   0.146E-01 -.415E-01 -.568E-01
   -.568E+00 -.943E+00 -.635E+03   0.616E+00 0.701E+00 0.635E+03   -.945E-01 0.214E+00 0.257E+00   -.240E-01 0.416E-01 -.247E-01
   -.167E+02 -.926E+01 -.214E+04   0.173E+02 0.951E+01 0.214E+04   -.679E+00 -.155E+00 0.159E+01   0.198E-01 -.333E-01 -.799E-01
   0.220E+02 0.287E+02 -.216E+04   -.224E+02 -.293E+02 0.216E+04   0.384E+00 0.695E+00 0.128E+01   -.617E-02 0.249E-02 0.557E-01
   0.362E+02 -.647E+01 -.215E+04   -.366E+02 0.646E+01 0.214E+04   0.120E+00 0.702E-01 0.120E+01   0.679E-01 -.194E-01 -.476E-01
   -.143E+02 -.116E+01 -.219E+04   0.141E+02 0.781E+00 0.219E+04   0.273E+00 0.489E+00 0.104E+01   -.237E-02 -.235E-01 0.599E-02
   0.142E+02 0.116E+02 -.216E+04   -.143E+02 -.120E+02 0.216E+04   0.151E+00 0.407E+00 0.112E+01   0.887E-02 0.381E-01 -.440E-01
   0.682E+02 0.606E+02 -.198E+04   -.707E+02 -.590E+02 0.198E+04   0.236E+01 -.147E+01 -.341E+01   -.121E-01 0.150E-01 0.804E-03
   -.590E+02 -.514E+02 -.210E+04   0.604E+02 0.538E+02 0.209E+04   -.142E+01 -.258E+01 0.204E+01   -.257E-01 0.256E-01 0.186E-01
   -.671E+02 0.917E+02 -.202E+04   0.672E+02 -.921E+02 0.203E+04   -.494E-01 0.321E+00 -.125E+01   0.788E-03 0.200E-01 -.863E-01
   0.156E+02 -.609E+02 -.211E+04   -.155E+02 0.622E+02 0.211E+04   -.136E+00 -.123E+01 0.134E+01   -.178E-01 -.450E-01 -.265E-01
 -----------------------------------------------------------------------------------------------
   -.945E+01 0.261E+02 0.775E+02   0.156E-12 -.711E-13 0.318E-11   0.943E+01 -.259E+02 -.771E+02   0.817E-01 -.534E-02 -.455E+00
 
 
 POSITION                                       TOTAL-FORCE (eV/Angst)
 -----------------------------------------------------------------------------------
      5.07223      0.66303     10.33521        -0.347323     -0.539369      0.140972
      6.70415     -0.58985     10.17038         0.546425      0.411074      0.252761
      4.94909      1.08335     11.41369         0.264350     -0.064746     -0.138510
      7.20031     -1.38846      1.62732         0.024754     -0.044648      0.145244
      2.33567      1.42014      1.62732        -0.049980     -0.041200      0.156922
      4.76799      0.01584      1.62732        -0.039351     -0.004261      0.150147
      7.20031      1.42015      1.62732         0.010909      0.062560      0.129179
      2.33567      4.22875      1.62732        -0.015799      0.030255      0.110832
      4.76799      2.82445      1.62732         0.017951      0.009357      0.147989
      2.33567      7.03734      1.62732         0.012951     -0.064896      0.014733
      4.76799      5.63304      1.62732        -0.010064      0.024623      0.132161
      7.20031      4.22874      1.62732         0.013564      0.008037      0.042782
      1.52490      0.01584      3.92052        -0.048331      0.037818     -0.086519
      3.95722     -1.38846      3.92052         0.048145      0.073858     -0.092730
      6.38953     -2.79276      3.92052         0.145610     -0.022044     -0.008934
      1.52490      2.82445      3.92052        -0.085386     -0.109958     -0.083212
      3.95722      1.42015      3.92052         0.038906     -0.102705     -0.109411
      6.38953      0.01585      3.92052        -0.015319     -0.044854      0.032001
      1.52490      5.63305      3.92052        -0.029237      0.001604     -0.220404
      3.95722      4.22874      3.92052         0.108855     -0.040377     -0.250080
      6.38953      2.82445      3.92052         0.085152      0.059061     -0.221727
      0.71379      4.20877      6.19264         0.006302     -0.076920      0.003451
      3.17478      5.61325      6.16278        -0.158562      0.065515      0.045691
      5.57060     -1.38567      6.22623         0.078886     -0.026647     -0.012081
      0.69201      1.43071      6.24203         0.028867      0.031394     -0.180939
      3.16413     -0.00743      6.20352        -0.034848      0.040200     -0.091949
      0.72268      7.01679      6.18219        -0.081215      0.021209      0.081868
      5.59786      4.21621      6.18847        -0.055884      0.035256     -0.041903
      3.16235      2.79044      6.16246        -0.055721      0.073539      0.160082
      5.59915      1.40026      6.20411        -0.071519      0.010424     -0.064737
      2.38304      4.20440      8.40569        -0.076326      0.056998      0.225058
      4.76476      5.60218      8.48710        -0.008266      0.052909     -0.189873
      2.34008      1.39250      8.47502        -0.197721      0.036605     -0.121335
      7.20066      4.18464      8.51458         0.091486      0.081382     -0.072624
      2.33458      6.99297      8.45311         0.004415      0.041100      0.136943
      4.67339      0.04565      8.58257        -0.128144      0.138627     -0.047991
      7.26276      1.44191      8.50498        -0.028225     -0.127843     -0.191110
      7.23799     -1.46925      8.55925         0.006009     -0.132498      0.207614
      4.78862      2.84910      8.46498         0.003679      0.039561     -0.090361
 -----------------------------------------------------------------------------------
    total drift:                                0.057744      0.152040      0.027535
  FORCES: max atom, RMS     0.729006    0.200419
  Number: max atom                 2
  FORCE total and by dimension    1.251616    0.546425


--------------------------------------------------------------------------------------------------------



  FREE ENERGIE OF THE ION-ELECTRON SYSTEM (eV)
  ---------------------------------------------------
  free  energy   TOTEN  =      -230.68442848 eV

  energy  without entropy=     -230.65475645  energy(sigma->0) =     -230.67453780
 
 d Force = 0.6553089E-01[ 0.573E-01, 0.738E-01]  d Energy = 0.6573797E-01-0.207E-03
 d Force = 0.4655733E+01[ 0.485E+01, 0.446E+01]  d Ewald  = 0.4655616E+01 0.117E-03


--------------------------------------------------------------------------------------------------------


    POTLOK:  cpu time    0.1745: real time    0.2346


--------------------------------------------------------------------------------------------------------


 stress matrix after NEB project (eV)
    -35.00547      0.51204      1.10470
      0.51204    -37.95570      0.16711
      1.10470      0.16711     -2.48090
  FORCES: max atom, RMS     0.729006    0.200419
  FORCE total and by dimension    1.251616    0.546425
  Stress total and by dimension   51.722272   37.955697
 Quasi-Newton relaxation of ions (Broydens 2nd method)
  g(Force)  = 0.302E-01   g(Stress)= 0.000E+00

 retain information from N=  3 steps
 eigenvalues of (default step * inverse Hessian matrix)
  average eigenvalue of G=   2.5950
 eigenvalue spectrum of G is  2.1464  0.7275  4.9111
  RESET_HESSIAN           0


--------------------------------------------------------------------------------------------------------


    WAVPRE:  cpu time    0.0783: real time    0.2260
    FEWALD:  cpu time    0.0010: real time    0.0010

 real space projection operators:
  total allocation   :      13549.73 KBytes
  max/ min on nodes  :       6781.05       6768.69

    ORTHCH:  cpu time    1.3626: real time    1.3789
     LOOP+:  cpu time   86.8600: real time   87.8235


--------------------------------------- Iteration      6(   1)  ---------------------------------------


    POTLOK:  cpu time    0.1729: real time    0.2063
    SETDIJ:  cpu time    0.0109: real time    0.0113
