 running on    8 total cores
 distrk:  each k-point on    8 cores,    1 groups
 distr:  one band on    2 cores,    4 groups
 using from now: INCAR     
 vasp.5.4.4 16052018 (build Apr 24 2014 20:13:14) complex standard
 Contain Constrained Minimization Technique (TS), Periodic NBO, VASPsol, libbeef, VASP2WANNIER90, Constrained Cell Relaxation
 POSCAR found type information on POSCAR  C  O  Pt
 POSCAR found :  3 types and      39 ions
 scaLAPACK will be used
 LDA part: xc-table for Pade appr. of Perdew
 POSCAR found type information on POSCAR  C  O  Pt
 POSCAR found :  3 types and      39 ions
 POSCAR, INCAR and KPOINTS ok, starting setup
 FFT: planning ...
 WAVECAR not read
 entering main loop
       N       E                     dE             d eps       ncg     rms          rms(c)
DAV:   1     0.242428294347E+04    0.24243E+04   -0.15955E+05  1824   0.129E+03
DAV:   2    -0.639181398795E+02   -0.24882E+04   -0.23075E+04  2120   0.286E+02
DAV:   3    -0.240982714193E+03   -0.17706E+03   -0.16062E+03  2160   0.692E+01
DAV:   4    -0.248757322790E+03   -0.77746E+01   -0.74951E+01  2352   0.138E+01
DAV:   5    -0.248977606289E+03   -0.22028E+00   -0.21879E+00  2352   0.241E+00    0.277E+01
RMM:   6    -0.247276084630E+03    0.17015E+01   -0.56918E+01  1827   0.150E+01    0.306E+01
RMM:   7    -0.243218370816E+03    0.40577E+01   -0.33950E+01  1830   0.923E+00    0.206E+01
RMM:   8    -0.244329265824E+03   -0.11109E+01   -0.97832E+00  1827   0.480E+00    0.225E+01
RMM:   9    -0.231872071435E+03    0.12457E+02   -0.50536E+00  1831   0.370E+00    0.900E+00
RMM:  10    -0.230746565408E+03    0.11255E+01   -0.16996E+00  1831   0.212E+00    0.571E+00
RMM:  11    -0.230326665192E+03    0.41990E+00   -0.51134E-01  1831   0.113E+00    0.323E+00
RMM:  12    -0.230175781716E+03    0.15088E+00   -0.20636E-01  1840   0.714E-01    0.224E+00
RMM:  13    -0.230178901793E+03   -0.31201E-02   -0.12886E-01  1834   0.595E-01    0.200E+00
RMM:  14    -0.230123008075E+03    0.55894E-01   -0.83366E-02  1832   0.503E-01    0.846E-01
RMM:  15    -0.230118169104E+03    0.48390E-02   -0.34394E-02  1830   0.327E-01    0.649E-01
RMM:  16    -0.230113316825E+03    0.48523E-02   -0.77325E-03  1830   0.150E-01    0.310E-01
RMM:  17    -0.230112228456E+03    0.10884E-02   -0.20426E-03  1820   0.783E-02    0.150E-01
RMM:  18    -0.230112667927E+03   -0.43947E-03   -0.99291E-04  1813   0.534E-02    0.152E-01
RMM:  19    -0.230112656789E+03    0.11138E-04   -0.49925E-04  1482   0.396E-02
   1 F= -.23011266E+03 E0= -.23010372E+03  d E =-.230113E+03
 BRION: g(F)=  0.301E+00 g(S)=  0.000E+00
 bond charge predicted
       N       E                     dE             d eps       ncg     rms          rms(c)
DAV:   1    -0.230321140242E+03   -0.20847E+00   -0.30843E+01  1856   0.992E+00    0.678E-01
RMM:   2    -0.230403413077E+03   -0.82273E-01   -0.53291E-01  1834   0.158E+00    0.184E+00
RMM:   3    -0.230375724314E+03    0.27689E-01   -0.41957E-02  1856   0.359E-01    0.915E-01
RMM:   4    -0.230366804947E+03    0.89194E-02   -0.97583E-03  1850   0.167E-01    0.560E-01
RMM:   5    -0.230362642568E+03    0.41624E-02   -0.35030E-03  1837   0.984E-02    0.351E-01
RMM:   6    -0.230361547847E+03    0.10947E-02   -0.29619E-03  1832   0.902E-02    0.231E-01
RMM:   7    -0.230361684033E+03   -0.13619E-03   -0.51775E-03  1830   0.122E-01    0.203E-01
RMM:   8    -0.230361180385E+03    0.50365E-03   -0.13816E-03  1815   0.640E-02    0.981E-02
RMM:   9    -0.230361074237E+03    0.10615E-03   -0.23207E-04  1041   0.284E-02    0.543E-02
RMM:  10    -0.230361065005E+03    0.92319E-05   -0.10747E-04   969   0.198E-02
   2 F= -.23036107E+03 E0= -.23035158E+03  d E =-.248408E+00
 BRION: g(F)=  0.154E+00 g(S)=  0.000E+00 retain N=  1 mean eig= 1.82
 eig:   1.818
 bond charge predicted
       N       E                     dE             d eps       ncg     rms          rms(c)
DAV:   1    -0.230441937602E+03   -0.80863E-01   -0.40689E+01  1824   0.119E+01    0.848E-01
RMM:   2    -0.230551133088E+03   -0.10920E+00   -0.85416E-01  1833   0.189E+00    0.177E+00
RMM:   3    -0.230527188905E+03    0.23944E-01   -0.53319E-02  1865   0.407E-01    0.112E+00
RMM:   4    -0.230513560020E+03    0.13629E-01   -0.13523E-02  1855   0.198E-01    0.678E-01
RMM:   5    -0.230507785497E+03    0.57745E-02   -0.62278E-03  1838   0.132E-01    0.448E-01
RMM:   6    -0.230506597488E+03    0.11880E-02   -0.81892E-03  1831   0.150E-01    0.370E-01
RMM:   7    -0.230505203304E+03    0.13942E-02   -0.59632E-03  1832   0.132E-01    0.254E-01
RMM:   8    -0.230504285301E+03    0.91800E-03   -0.17198E-03  1821   0.710E-02    0.108E-01
RMM:   9    -0.230504178036E+03    0.10727E-03   -0.30468E-04  1119   0.324E-02    0.561E-02
RMM:  10    -0.230504186336E+03   -0.83002E-05   -0.11860E-04   980   0.217E-02
   3 F= -.23050419E+03 E0= -.23049429E+03  d E =-.143121E+00
 BRION: g(F)=  0.350E+00 g(S)=  0.000E+00 retain N=  2 mean eig= 1.49
 eig:   1.491  1.491
 bond charge predicted
       N       E                     dE             d eps       ncg     rms          rms(c)
DAV:   1    -0.230594026250E+03   -0.89848E-01   -0.13815E+01  1832   0.707E+00    0.520E-01
RMM:   2    -0.230635416567E+03   -0.41390E-01   -0.34149E-01  1844   0.114E+00    0.103E+00
RMM:   3    -0.230627988284E+03    0.74283E-02   -0.18473E-02  1858   0.241E-01    0.718E-01
RMM:   4    -0.230622337857E+03    0.56504E-02   -0.47611E-03  1849   0.118E-01    0.427E-01
RMM:   5    -0.230620428433E+03    0.19094E-02   -0.20714E-03  1832   0.755E-02    0.300E-01
RMM:   6    -0.230620201576E+03    0.22686E-03   -0.44559E-03  1830   0.111E-01    0.286E-01
RMM:   7    -0.230619164987E+03    0.10366E-02   -0.27470E-03  1827   0.892E-02    0.163E-01
RMM:   8    -0.230618856165E+03    0.30882E-03   -0.84108E-04  1792   0.494E-02    0.977E-02
RMM:   9    -0.230618714490E+03    0.14167E-03   -0.18759E-04  1019   0.253E-02    0.399E-02
RMM:  10    -0.230618690504E+03    0.23986E-04   -0.57030E-05   961   0.152E-02
   4 F= -.23061869E+03 E0= -.23060862E+03  d E =-.114504E+00
 BRION: g(F)=  0.431E-01 g(S)=  0.000E+00 retain N=  2 mean eig= 0.38
 eig:   0.279  0.475
 bond charge predicted
       N       E                     dE             d eps       ncg     rms          rms(c)
DAV:   1    -0.230664340383E+03   -0.45626E-01   -0.12004E+01  1824   0.687E+00    0.462E-01
RMM:   2    -0.230688949116E+03   -0.24609E-01   -0.23685E-01  1837   0.968E-01    0.473E-01
RMM:   3    -0.230693324390E+03   -0.43753E-02   -0.14703E-02  1857   0.216E-01    0.792E-01
RMM:   4    -0.230686433030E+03    0.68914E-02   -0.33678E-03  1843   0.969E-02    0.355E-01
RMM:   5    -0.230684820532E+03    0.16125E-02   -0.15163E-03  1829   0.663E-02    0.186E-01
RMM:   6    -0.230684913289E+03   -0.92757E-04   -0.13948E-03  1818   0.612E-02    0.211E-01
RMM:   7    -0.230684870598E+03    0.42692E-04   -0.15584E-03  1816   0.669E-02    0.180E-01
RMM:   8    -0.230684465075E+03    0.40552E-03   -0.47548E-04  1463   0.376E-02    0.503E-02
RMM:   9    -0.230684428477E+03    0.36598E-04   -0.81924E-05   957   0.170E-02
   5 F= -.23068443E+03 E0= -.23067454E+03  d E =-.657380E-01
 BRION: g(F)=  0.302E-01 g(S)=  0.000E+00 retain N=  3 mean eig= 2.59
 eig:   2.146  0.727  4.911
 bond charge predicted
       N       E                     dE             d eps       ncg     rms          rms(c)
[mpiexec@node11] Sending Ctrl-C to processes as requested
[mpiexec@node11] Press Ctrl-C again to force abort
