 vasp.5.4.4 16052018 (build Apr 24 2014 20:13:14) complex standard
 Contain Constrained Minimization Technique (TS), Periodic NBO, VASPsol, libbeef, VASP2WANNIER90, Constrained Cell Relaxation
 executed on Center for Computational Chemistry by phu@node06 date 2025.09.27 23:44:48
 running on    8 total cores
 distrk:  each k-point on    8 cores,    1 groups
 distr:  one band on NCORES_PER_BAND=   2 cores,    4 groups


--------------------------------------------------------------------------------------------------------


 INCAR:
 POTCAR:   PAW_PBE C 08Apr2002                    
 POTCAR:   PAW_PBE O 08Apr2002                    
 POTCAR:    PAW_PBE Pt 04Feb2005                  
 POTCAR:   PAW_PBE C 08Apr2002                    
   VRHFIN =C: s2p2                                                              
   LEXCH  = PE                                                                  
   EATOM  =   147.1560 eV,   10.8157 Ry                                         
                                                                                
   TITEL  = PAW_PBE C 08Apr2002                                                 
   LULTRA =        F    use ultrasoft PP ?                                      
   IUNSCR =        0    unscreen: 0-lin 1-nonlin 2-no                           
   RPACOR =     .000    partial core radius                                     
   POMASS =   12.011; ZVAL   =    4.000    mass and valenz                      
   RCORE  =    1.500    outmost cutoff radius                                   
   RWIGS  =    1.630; RWIGS  =     .863    wigner-seitz radius (au A)           
   ENMAX  =  400.000; ENMIN  =  300.000 eV                                      
   ICORE  =        2    local potential                                         
   LCOR   =        T    correct aug charges                                     
   LPAW   =        T    paw PP                                                  
   EAUG   =  644.873                                                            
   DEXC   =     .000                                                            
   RMAX   =    2.266    core radius for proj-oper                               
   RAUG   =    1.300    factor for augmentation sphere                          
   RDEP   =    1.501    radius for radial grids                                 
   RDEPT  =    1.300    core radius for aug-charge                              
   QCUT   =   -5.516; QGAM   =   11.032    optimization parameters              
                                                                                
   Description                                                                  
     l     E      TYP  RCUT    TYP  RCUT                                        
     0   .000     23  1.200                                                     
     0   .000     23  1.200                                                     
     1   .000     23  1.500                                                     
     1  2.500     23  1.500                                                     
     2   .000      7  1.500                                                     
  local pseudopotential read in
  atomic valenz-charges read in
  non local Contribution for L=           0  read in
    real space projection operators read in
  non local Contribution for L=           0  read in
    real space projection operators read in
  non local Contribution for L=           1  read in
    real space projection operators read in
  non local Contribution for L=           1  read in
    real space projection operators read in
    PAW grid and wavefunctions read in
 
   number of l-projection  operators is LMAX  =           4
   number of lm-projection operators is LMMAX =           8
 
 POTCAR:   PAW_PBE O 08Apr2002                    
   VRHFIN =O: s2p4                                                              
   LEXCH  = PE                                                                  
   EATOM  =   432.3788 eV,   31.7789 Ry                                         
                                                                                
   TITEL  = PAW_PBE O 08Apr2002                                                 
   LULTRA =        F    use ultrasoft PP ?                                      
   IUNSCR =        0    unscreen: 0-lin 1-nonlin 2-no                           
   RPACOR =     .000    partial core radius                                     
   POMASS =   16.000; ZVAL   =    6.000    mass and valenz                      
   RCORE  =    1.520    outmost cutoff radius                                   
   RWIGS  =    1.550; RWIGS  =     .820    wigner-seitz radius (au A)           
   ENMAX  =  400.000; ENMIN  =  300.000 eV                                      
   ICORE  =        2    local potential                                         
   LCOR   =        T    correct aug charges                                     
   LPAW   =        T    paw PP                                                  
   EAUG   =  605.392                                                            
   DEXC   =     .000                                                            
   RMAX   =    2.264    core radius for proj-oper                               
   RAUG   =    1.300    factor for augmentation sphere                          
   RDEP   =    1.550    radius for radial grids                                 
   QCUT   =   -5.520; QGAM   =   11.041    optimization parameters              
                                                                                
   Description                                                                  
     l     E      TYP  RCUT    TYP  RCUT                                        
     0   .000     23  1.200                                                     
     0  -.700     23  1.200                                                     
     1   .000     23  1.520                                                     
     1   .600     23  1.520                                                     
     2   .000      7  1.500                                                     
  local pseudopotential read in
  atomic valenz-charges read in
  non local Contribution for L=           0  read in
    real space projection operators read in
  non local Contribution for L=           0  read in
    real space projection operators read in
  non local Contribution for L=           1  read in
    real space projection operators read in
  non local Contribution for L=           1  read in
    real space projection operators read in
    PAW grid and wavefunctions read in
 
   number of l-projection  operators is LMAX  =           4
   number of lm-projection operators is LMMAX =           8
 
 POTCAR:    PAW_PBE Pt 04Feb2005                  
   VRHFIN =Pt: s1d9                                                             
   LEXCH  = PE                                                                  
   EATOM  =   729.1182 eV,   53.5887 Ry                                         
                                                                                
   TITEL  = PAW_PBE Pt 04Feb2005                                                
   LULTRA =        F    use ultrasoft PP ?                                      
   IUNSCR =        1    unscreen: 0-lin 1-nonlin 2-no                           
   RPACOR =    2.330    partial core radius                                     
   POMASS =  195.080; ZVAL   =   10.000    mass and valenz                      
   RCORE  =    2.600    outmost cutoff radius                                   
   RWIGS  =    2.750; RWIGS  =    1.455    wigner-seitz radius (au A)           
   ENMAX  =  230.283; ENMIN  =  172.712 eV                                      
   ICORE  =        3    local potential                                         
   LCOR   =        T    correct aug charges                                     
   LPAW   =        T    paw PP                                                  
   EAUG   =  358.966                                                            
   DEXC   =     .000                                                            
   RMAX   =    3.038    core radius for proj-oper                               
   RAUG   =    1.300    factor for augmentation sphere                          
   RDEP   =    2.761    radius for radial grids                                 
   QCUT   =   -4.114; QGAM   =    8.228    optimization parameters              
                                                                                
   Description                                                                  
     l     E      TYP  RCUT    TYP  RCUT                                        
     2   .000     23  2.500                                                     
     2   .000     23  2.500                                                     
     0   .000     23  2.500                                                     
     0   .000     23  2.500                                                     
     1  -.200     23  2.600                                                     
     1  1.500     23  2.600                                                     
     3   .000     23  2.500                                                     
  local pseudopotential read in
  partial core-charges read in
  atomic valenz-charges read in
  non local Contribution for L=           2  read in
    real space projection operators read in
  non local Contribution for L=           2  read in
    real space projection operators read in
  non local Contribution for L=           0  read in
    real space projection operators read in
  non local Contribution for L=           0  read in
    real space projection operators read in
  non local Contribution for L=           1  read in
    real space projection operators read in
  non local Contribution for L=           1  read in
    real space projection operators read in
    PAW grid and wavefunctions read in
 
   number of l-projection  operators is LMAX  =           6
   number of lm-projection operators is LMMAX =          18
 
 Optimization of the real space projectors (new method)

 maximal supplied QI-value         = 25.13
 optimisation between [QCUT,QGAM] = [ 10.81, 21.61] = [ 32.71,130.83] Ry 
 Optimized for a Real-space Cutoff    1.23 Angstroem

   l    n(q)    QCUT    max X(q) W(low)/X(q) W(high)/X(q)  e(spline) 
   0      8    10.807     5.582    0.53E-04    0.84E-04    0.44E-07
   0      8    10.807    69.432    0.35E-03    0.71E-03    0.24E-06
   1      7    10.807     2.780    0.44E-04    0.88E-04    0.89E-07
   1      7    10.807     4.549    0.14E-03    0.28E-03    0.13E-06
 Optimization of the real space projectors (new method)

 maximal supplied QI-value         = 24.76
 optimisation between [QCUT,QGAM] = [ 10.64, 21.54] = [ 31.73,129.89] Ry 
 Optimized for a Real-space Cutoff    1.23 Angstroem

   l    n(q)    QCUT    max X(q) W(low)/X(q) W(high)/X(q)  e(spline) 
   0      8    10.645     4.192    0.69E-04    0.93E-04    0.58E-07
   0      8    10.645     8.473    0.40E-03    0.65E-03    0.17E-06
   1      7    10.645     2.474    0.80E-04    0.12E-03    0.30E-07
   1      7    10.645     3.912    0.24E-03    0.53E-03    0.16E-06
 Optimization of the real space projectors (new method)

 maximal supplied QI-value         = 14.36
 optimisation between [QCUT,QGAM] = [ 10.77, 21.69] = [ 32.49,131.70] Ry 
 Optimized for a Real-space Cutoff    1.46 Angstroem

   l    n(q)    QCUT    max X(q) W(low)/X(q) W(high)/X(q)  e(spline) 
   2      9    10.771     3.903    0.38E-04    0.12E-03    0.82E-07
   2      9    10.771    18.372    0.13E-03    0.32E-03    0.28E-06
   0     10    10.771    13.697    0.11E-04    0.86E-05    0.85E-08
   0     10    10.771    65.529    0.40E-04    0.12E-03    0.14E-06
   1      9    10.771     7.604    0.48E-04    0.31E-04    0.38E-07
   1      9    10.771    12.136    0.35E-03    0.16E-03    0.23E-06
 PAW_PBE C 08Apr2002                    :
 energy of atom  1       EATOM= -147.1560
 kinetic energy error for atom=    0.0116 (will be added to EATOM!!)
 PAW_PBE O 08Apr2002                    :
 energy of atom  2       EATOM= -432.3788
 kinetic energy error for atom=    0.0389 (will be added to EATOM!!)
  PAW_PBE Pt 04Feb2005                  :
 energy of atom  3       EATOM= -729.1182
 kinetic energy error for atom=    0.0051 (will be added to EATOM!!)
 
 
 POSCAR: C    O    Pt                            
  positions in direct lattice
  No initial velocities read in
 exchange correlation table for  LEXCH =        8
   RHO(1)=    0.500       N(1)  =     2000
   RHO(2)=  100.500       N(2)  =     4000

 VTST: version 3.2, (02/03/18)

 CHAIN: initializing optimizer
 
 OPT: Using VASP QUASI-newton optimizer
 CHAIN: Read ICHAIN            0
 
 POSCAR: C    O    Pt                            
  positions in direct lattice
  No initial velocities read in
 


--------------------------------------------------------------------------------------------------------


 ion  position               nearest neighbor table
   1  0.701  0.433  0.476-   3 1.16   2 1.96  36 1.98
   2  0.904  0.387  0.461-  38 1.94   1 1.96  36 2.48  37 2.59
   3  0.673  0.460  0.526-   1 1.16
   4  0.987  0.329  0.074-  15 2.81  16 2.81  12 2.81   5 2.81  11 2.81   6 2.81  18 2.81   8 2.81
                             7 2.81
   5  0.320  0.329  0.074-  13 2.81  10 2.81   4 2.81  12 2.81  16 2.81  17 2.81   8 2.81   9 2.81
                             6 2.81
   6  0.653  0.329  0.074-  14 2.81  18 2.81  11 2.81   4 2.81  17 2.81   7 2.81  10 2.81   9 2.81
                             5 2.81
   7  0.987  0.662  0.074-  18 2.81  21 2.81  19 2.81  12 2.81   8 2.81  10 2.81   9 2.81   6 2.81
                             4 2.81
   8  0.320  0.662  0.074-  16 2.81  19 2.81  10 2.81   7 2.81  20 2.81   4 2.81  11 2.81   5 2.81
                             9 2.81
   9  0.653  0.662  0.074-  17 2.81  20 2.81  21 2.81  11 2.81  12 2.81   7 2.81   6 2.81   5 2.81
                             8 2.81
  10  0.320  0.995  0.074-  13 2.81  19 2.81   5 2.81   8 2.81  12 2.81   7 2.81  14 2.81   6 2.81
                            11 2.81
  11  0.653  0.995  0.074-  14 2.81  20 2.81  15 2.81   9 2.81   6 2.81  12 2.81   4 2.81   8 2.81
                            10 2.81
  12  0.987  0.995  0.074-  15 2.81  21 2.81  13 2.81   7 2.81   4 2.81  10 2.81   5 2.81  11 2.81
                             9 2.81
  13  0.209  0.106  0.179-  27 2.70  10 2.81   5 2.81  12 2.81  19 2.81  15 2.81  21 2.81  16 2.81
                            17 2.81  14 2.81  26 2.85  25 2.90
  14  0.542  0.106  0.179-   6 2.81  11 2.81  20 2.81  15 2.81  10 2.81  18 2.81  19 2.81  17 2.81
                            13 2.81  26 2.84  24 2.84  23 2.87
  15  0.876  0.106  0.179-   4 2.81  12 2.81  11 2.81  21 2.81  13 2.81  20 2.81  14 2.81  16 2.81
                            18 2.81  28 2.82  24 2.84  25 2.89
  16  0.209  0.440  0.179-  29 2.78   8 2.81   4 2.81  19 2.81  18 2.81   5 2.81  15 2.81  20 2.81
                            13 2.81  17 2.81  22 2.83  25 2.87
  17  0.542  0.440  0.179-  29 2.73  30 2.77   9 2.81  20 2.81  21 2.81  18 2.81   6 2.81   5 2.81
                            14 2.81  16 2.81  13 2.81  26 2.87
  18  0.876  0.440  0.179-   7 2.81   6 2.81  21 2.81  19 2.81  16 2.81  17 2.81   4 2.81  14 2.81
                            15 2.81  30 2.81  24 2.84  22 2.85
  19  0.209  0.773  0.179-  27 2.72  10 2.81   8 2.81   7 2.81  16 2.81  13 2.81  21 2.81  18 2.81
                            14 2.81  20 2.81  23 2.86  22 2.87
  20  0.542  0.773  0.179-  29 2.79  28 2.80   9 2.81  11 2.81  17 2.81  14 2.81  15 2.81  21 2.81
                             8 2.81  16 2.81  19 2.81  23 2.84
  21  0.876  0.773  0.179-  27 2.69  28 2.77  30 2.78  12 2.81   7 2.81   9 2.81  18 2.81  15 2.81
                            19 2.81  13 2.81  17 2.81  20 2.81
  22  0.097  0.546  0.286-  25 2.74  38 2.77  24 2.79  37 2.81  31 2.82  23 2.82  16 2.83  29 2.84
                            18 2.85  30 2.86  19 2.87  27 2.87
  23  0.431  0.881  0.287-  32 2.63  35 2.73  31 2.78  26 2.80  24 2.82  22 2.82  28 2.82  29 2.84
                            20 2.84  19 2.86  27 2.86  14 2.87
  24  0.764  0.217  0.286-  32 2.66  38 2.77  22 2.79  26 2.80  25 2.80  23 2.82  30 2.84  14 2.84
                            15 2.84  18 2.84  28 2.86  36 2.87
  25  0.099  0.221  0.288-  38 2.66  33 2.69  22 2.74  34 2.76  29 2.79  24 2.80  26 2.83  27 2.83
                            28 2.85  16 2.87  15 2.89  13 2.90
  26  0.430  0.213  0.286-  33 2.69  35 2.75  29 2.79  24 2.80  23 2.80  36 2.80  27 2.81  25 2.83
                            30 2.83  14 2.84  13 2.85  17 2.87
  27  0.094  0.884  0.278-  21 2.69  13 2.70  19 2.72  28 2.75  30 2.80  26 2.81  34 2.83  25 2.83
                            23 2.86  22 2.87  35 2.91  37 2.93
  28  0.765  0.879  0.283-  30 2.73  32 2.74  27 2.75  21 2.77  29 2.79  20 2.80  39 2.80  34 2.81
                            15 2.82  23 2.82  25 2.85  24 2.86
  29  0.435  0.546  0.282-  30 2.73  17 2.73  16 2.78  20 2.79  33 2.79  25 2.79  26 2.79  28 2.79
                            39 2.82  23 2.84  22 2.84  31 2.86
  30  0.761  0.553  0.283-  29 2.73  28 2.73  17 2.77  21 2.78  39 2.79  27 2.80  18 2.81  26 2.83
                            24 2.84  22 2.86  37 2.92  36 2.94
  31  0.327  0.659  0.390-  39 2.74  23 2.78  32 2.78  33 2.80  35 2.82  37 2.82  22 2.82  38 2.85
                            29 2.86
  32  0.651  0.995  0.382-  23 2.63  24 2.66  28 2.74  35 2.78  31 2.78  36 2.80  38 2.81  39 2.84
                            34 2.89
  33  0.324  0.326  0.386-  25 2.69  26 2.69  36 2.71  39 2.78  29 2.79  31 2.80  38 2.80  35 2.81
                            34 2.84
  34  0.990  0.987  0.387-  37 2.72  35 2.76  25 2.76  28 2.81  39 2.81  38 2.82  27 2.83  33 2.84
                            32 2.89
  35  0.319  0.990  0.388-  37 2.72  23 2.73  26 2.75  34 2.76  36 2.77  32 2.78  33 2.81  31 2.82
                            27 2.91
  36  0.643  0.322  0.393-   1 1.98   2 2.48  33 2.71  35 2.77  32 2.80  39 2.80  26 2.80  24 2.87
                            38 2.92  30 2.94  37 2.94
  37  0.997  0.668  0.391-   2 2.59  35 2.72  34 2.72  22 2.81  31 2.82  39 2.87  38 2.89  30 2.92
                            27 2.93  36 2.94
  38  0.989  0.321  0.388-   2 1.94  25 2.66  22 2.77  24 2.77  33 2.80  32 2.81  34 2.82  31 2.85
                            37 2.89  36 2.92
  39  0.652  0.659  0.388-  31 2.74  33 2.78  30 2.79  28 2.80  36 2.80  34 2.81  29 2.82  32 2.84
                            37 2.87
 

IMPORTANT INFORMATION: All symmetrisations will be switched off!
NOSYMM: (Re-)initialisation of all symmetry stuff for point group C_1.

 
 
 KPOINTS: mesh auto                               

Automatic generation of k-mesh.
Space group operators:
 irot       det(A)        alpha          n_x          n_y          n_z        tau_x        tau_y        tau_z
    1     1.000000     0.000000     1.000000     0.000000     0.000000     0.000000     0.000000     0.000000
 
 Subroutine IBZKPT returns following result:
 ===========================================
 
 Found      4 irreducible k-points:
 
 Following reciprocal coordinates:
            Coordinates               Weight
  0.000000  0.000000  0.000000      1.000000
  0.500000  0.000000  0.000000      1.000000
 -0.000000  0.500000  0.000000      1.000000
  0.500000  0.500000  0.000000      1.000000
 
 Following cartesian coordinates:
            Coordinates               Weight
  0.000000  0.000000  0.000000      1.000000
  0.068522  0.000000  0.000000      1.000000
  0.034261  0.059342  0.000000      1.000000
  0.102783  0.059342  0.000000      1.000000
 


--------------------------------------------------------------------------------------------------------




 Dimension of arrays:
   k-points           NKPTS =      4   k-points in BZ     NKDIM =      4   number of bands    NBANDS=    228
   number of dos      NEDOS =    301   number of ions     NIONS =     39
   non local maximal  LDIM  =      6   non local SUM 2l+1 LMDIM =     18
   total plane-waves  NPLWV = 276480
   max r-space proj   IRMAX =   2756   max aug-charges    IRDMAX=  12646
   dimension x,y,z NGX =    48 NGY =   48 NGZ =  120
   dimension x,y,z NGXF=    96 NGYF=   96 NGZF=  240
   support grid    NGXF=    96 NGYF=   96 NGZF=  240
   ions per type =               1   2  36
   NGX,Y,Z   is equivalent  to a cutoff of   9.47,  9.47,  9.12 a.u.
   NGXF,Y,Z  is equivalent  to a cutoff of  18.94, 18.94, 18.24 a.u.

 SYSTEM =  metal                                   
 POSCAR =  C    O    Pt                            

 Startparameter for this run:
   NWRITE =      2    write-flag & timer
   PREC   = normal    normal or accurate (medium, high low for compatibility)
   ISTART =      0    job   : 0-new  1-cont  2-samecut
   ICHARG =      2    charge: 1-file 2-atom 10-const
   ISPIN  =      1    spin polarized calculation?
   LNONCOLLINEAR =      F non collinear calculations
   LSORBIT =      F    spin-orbit coupling
   INIWAV =      1    electr: 0-lowe 1-rand  2-diag
   LASPH  =      F    aspherical Exc in radial PAW
   METAGGA=      F    non-selfconsistent MetaGGA calc.

 Electronic Relaxation 1
   ENCUT  =  450.0 eV  33.07 Ry    5.75 a.u.  14.57 14.57 37.84*2*pi/ulx,y,z
   ENINI  =  450.0     initial cutoff
   ENAUG  =  644.9 eV  augmentation charge cutoff
   NELM   =     60;   NELMIN=  8; NELMDL= -5     # of ELM steps 
   EDIFF  = 0.1E-03   stopping-criterion for ELM
   LREAL  =      T    real-space projection
   NLSPLINE    = F    spline interpolate recip. space projectors
   LCOMPAT=      F    compatible to vasp.4.4
   GGA_COMPAT  = T    GGA compatible to vasp.4.4-vasp.4.6
   LMAXPAW     = -100 max onsite density
   LMAXMIX     =    2 max onsite mixed and CHGCAR
   VOSKOWN=      0    Vosko Wilk Nusair interpolation
   ROPT   =   -0.00050  -0.00050  -0.00050
 Ionic relaxation
   EDIFFG = -.5E-01   stopping-criterion for IOM
   NSW    =   5000    number of steps for IOM
   NBLOCK =      1;   KBLOCK =   5000    inner block; outer block 
   IBRION =      1    ionic relax: 0-MD 1-quasi-New 2-CG
   NFREE  =      0    steps in history (QN), initial steepest desc. (CG)
   ISIF   =      2    stress and relaxation
   IWAVPR =     11    prediction:  0-non 1-charg 2-wave 3-comb
   ISYM   =      0    0-nonsym 1-usesym 2-fastsym
   LCORR  =      T    Harris-Foulkes like correction to forces

   POTIM  = 0.2000    time-step for ionic-motion
   TEIN   =    0.0    initial temperature
   TEBEG  =    0.0;   TEEND  =   0.0 temperature during run
   SMASS  =  -3.00    Nose mass-parameter (am)
   estimated Nose-frequenzy (Omega)   =  0.10E-29 period in steps =****** mass=  -0.162E-26a.u.
   SCALEE = 1.0000    scale energy and forces
   NPACO  =    256;   APACO  = 16.0  distance and # of slots for P.C.
   PSTRESS=    0.0 pullay stress

  Mass of Ions in am
   POMASS =  12.01 16.00195.08
  Ionic Valenz
   ZVAL   =   4.00  6.00 10.00
  Atomic Wigner-Seitz radii
   RWIGS  =  -1.00 -1.00 -1.00
  virtual crystal weights 
   VCA    =   1.00  1.00  1.00
   NELECT =     376.0000    total number of electrons
   NUPDOWN=      -1.0000    fix difference up-down

 DOS related values:
   EMIN   =  10.00;   EMAX   =-10.00  energy-range for DOS
   EFERMI =   0.00
   ISMEAR =     1;   SIGMA  =   0.20  broadening in eV -4-tet -1-fermi 0-gaus

 Electronic relaxation 2 (details)
   IALGO  =     68    algorithm
   LDIAG  =      T    sub-space diagonalisation (order eigenvalues)
   LSUBROT=      F    optimize rotation matrix (better conditioning)
   TURBO    =      0    0=normal 1=particle mesh
   IRESTART =      0    0=no restart 2=restart with 2 vectors
   NREBOOT  =      0    no. of reboots
   NMIN     =      0    reboot dimension
   EREF     =   0.00    reference energy to select bands
   IMIX   =      4    mixing-type and parameters
     AMIX     =   0.40;   BMIX     =  1.00
     AMIX_MAG =   1.60;   BMIX_MAG =  1.00
     AMIN     =   0.10
     WC   =   100.;   INIMIX=   1;  MIXPRE=   1;  MAXMIX= -45

 Intra band minimization:
   WEIMIN = 0.0010     energy-eigenvalue tresh-hold
   EBREAK =  0.11E-06  absolut break condition
   DEPER  =   0.30     relativ break condition  

   TIME   =   0.40     timestep for ELM

  volume/ion in A,a.u.               =      34.49       232.77
  Fermi-wavevector in a.u.,A,eV,Ry     =   1.070385  2.022734 15.588510  1.145723
  Thomas-Fermi vector in A             =   2.206093
 
 Write flags
   LWAVE        =      F    write WAVECAR
   LDOWNSAMPLE  =      F    k-point downsampling of WAVECAR
   LCHARG       =      F    write CHGCAR
   LVTOT        =      F    write LOCPOT, total local potential
   LVHAR        =      F    write LOCPOT, Hartree potential only
   LELF         =      F    write electronic localiz. function (ELF)
   LORBIT       =      0    0 simple, 1 ext, 2 COOP (PROOUT), +10 PAW based schemes


 Dipole corrections
   LMONO  =      F    monopole corrections only (constant potential shift)
   LDIPOL =      F    correct potential (dipole corrections)
   IDIPOL =      0    1-x, 2-y, 3-z, 4-all directions 
   EPSILON=  1.0000000 bulk dielectric constant

 Exchange correlation treatment:
   GGA     =    --    GGA type
   LEXCH   =     8    internal setting for exchange type
   VOSKOWN=      0    Vosko Wilk Nusair interpolation
   LHFCALC =     F    Hartree Fock is set to
   LHFONE  =     F    Hartree Fock one center treatment
   AEXX    =    0.0000 exact exchange contribution

 Linear response parameters
   LEPSILON=     F    determine dielectric tensor
   LRPA    =     F    only Hartree local field effects (RPA)
   LNABLA  =     F    use nabla operator in PAW spheres
   LVEL    =     F    velocity operator in full k-point grid
   LINTERFAST=   F  fast interpolation
   KINTER  =     0    interpolate to denser k-point grid
   CSHIFT  =0.1000    complex shift for real part using Kramers Kronig
   OMEGAMAX=  -1.0    maximum frequency
   DEG_THRESHOLD= 0.2000000E-02 threshold for treating states as degnerate
   RTIME   =   -0.100 relaxation time in fs
  (WPLASMAI=    0.000 imaginary part of plasma frequency in eV, 0.658/RTIME)
   DFIELD  = 0.0000000 0.0000000 0.0000000 field for delta impulse in time
 
 Orbital magnetization related:
   ORBITALMAG=     F  switch on orbital magnetization
   LCHIMAG   =     F  perturbation theory with respect to B field
   DQ        =  0.001000  dq finite difference perturbation B field
   LLRAUG    =     F  two centre corrections for induced B field



--------------------------------------------------------------------------------------------------------


 quasi-Newton-method for relaxation of ions
   using selective dynamics as specified on POSCAR
 charge density and potential will be updated during run
 non-spin polarized calculation
 RMM-DIIS sequential band-by-band and
  variant of blocked Davidson during initial phase
 perform sub-space diagonalisation
    before iterative eigenvector-optimisation
 modified Broyden-mixing scheme, WC =      100.0
 initial mixing is a Kerker type mixing with AMIX =  0.4000 and BMIX =      1.0000
 Hartree-type preconditioning will be used
 using additional bands           40
 real space projection scheme for non local part
 use partial core corrections
 calculate Harris-corrections to forces 
   (improved forces if not selfconsistent)
 use gradient corrections 
 use of overlap-Matrix (Vanderbilt PP)
 Methfessel and Paxton  Order N= 1 SIGMA  =   0.20


--------------------------------------------------------------------------------------------------------


  energy-cutoff  :      450.00
  volume of cell :     1345.22
      direct lattice vectors                 reciprocal lattice vectors
     7.296955120 -4.212899000  0.000000000     0.137043463  0.000000000  0.000000000
     0.000000000  8.425798000  0.000000000     0.068521732  0.118683121  0.000000000
     0.000000000  0.000000000 21.879635000     0.000000000  0.000000000  0.045704602

  length of vectors
     8.425798004  8.425798000 21.879635000     0.137043463  0.137043463  0.045704602


 
 k-points in units of 2pi/SCALE and weight: mesh auto                               
   0.00000000  0.00000000  0.00000000       0.250
   0.06852173  0.00000000  0.00000000       0.250
   0.03426087  0.05934156  0.00000000       0.250
   0.10278260  0.05934156  0.00000000       0.250
 
 k-points in reciprocal lattice and weights: mesh auto                               
   0.00000000  0.00000000  0.00000000       0.250
   0.50000000  0.00000000  0.00000000       0.250
  -0.00000000  0.50000000  0.00000000       0.250
   0.50000000  0.50000000  0.00000000       0.250
 
 position of ions in fractional coordinates (direct lattice) 
   0.70070952  0.43314041  0.47571983
   0.90388257  0.38668900  0.46088752
   0.67257297  0.45999629  0.52560836
   0.98675500  0.32859100  0.07437600
   0.32008800  0.32859100  0.07437600
   0.65342200  0.32859100  0.07437600
   0.98675500  0.66192500  0.07437600
   0.32008800  0.66192500  0.07437600
   0.65342200  0.66192500  0.07437600
   0.32008800  0.99525800  0.07437600
   0.65342200  0.99525800  0.07437600
   0.98675500  0.99525800  0.07437600
   0.20897700  0.10636900  0.17918600
   0.54231100  0.10636900  0.17918600
   0.87564400  0.10636900  0.17918600
   0.20897700  0.43970300  0.17918600
   0.54231100  0.43970300  0.17918600
   0.87564400  0.43970300  0.17918600
   0.20897700  0.77303600  0.17918600
   0.54231100  0.77303600  0.17918600
   0.87564400  0.77303600  0.17918600
   0.09725662  0.54599427  0.28622245
   0.43149263  0.88144137  0.28660059
   0.76432965  0.21736376  0.28584638
   0.09900776  0.22145335  0.28821940
   0.43022584  0.21305435  0.28638178
   0.09375648  0.88428189  0.27802660
   0.76505401  0.87891714  0.28328939
   0.43456212  0.54639764  0.28160877
   0.76144900  0.55281594  0.28279153
   0.32700651  0.65929102  0.38989714
   0.65086277  0.99464626  0.38222900
   0.32439459  0.32581058  0.38553137
   0.99024367  0.98706303  0.38734153
   0.31897683  0.98978927  0.38758868
   0.64349265  0.32229572  0.39294417
   0.99661313  0.66767473  0.39091759
   0.98939492  0.32109839  0.38798664
   0.65157252  0.65866138  0.38806752
 
 position of ions in cartesian coordinates  (Angst):
   5.11304590  0.69753514 10.40857620
   6.59559054 -0.54980258 10.08405066
   4.90773479  1.04235380 11.50011906
   7.20030695 -1.38845776  1.62731973
   2.33566777  1.42014298  1.62731973
   4.76799101  0.01584050  1.62731973
   7.20030695  1.42014719  1.62731973
   2.33566777  4.22874793  1.62731973
   4.76799101  2.82444545  1.62731973
   2.33566777  7.03734445  1.62731973
   4.76799101  5.63304198  1.62731973
   7.20030695  4.22874371  1.62731973
   1.52489579  0.01584471  3.92052428
   3.95721903 -1.38845776  3.92052428
   6.38953497 -2.79275602  3.92052428
   1.52489579  2.82444966  3.92052428
   3.95721903  1.42014719  3.92052428
   6.38953497  0.01584893  3.92052428
   1.52489579  5.63304619  3.92052428
   3.95721903  4.22874371  3.92052428
   6.38953497  2.82444545  3.92052428
   0.70967717  4.19070510  6.26244270
   3.14858238  5.60901209  6.27071624
   5.57727912 -1.38858048  6.25421438
   0.72245521  1.44881146  6.30613522
   3.13933861 -0.01734512  6.26592884
   0.68413682  7.05579396  6.08312044
   5.58256474  4.18248301  6.19826836
   3.17098026  2.77306979  6.16149719
   5.55625918  1.45000770  6.18737544
   2.38615186  4.17740754  8.53080708
   4.74931642  5.63866934  8.36303092
   2.36709274  1.37857251  8.43528555
   7.22576361  4.14499717  8.47489125
   2.32755964  6.99594724  8.48029886
   4.69553695  0.00462911  8.59747493
   7.27224127  1.42706198  8.55313417
   7.21957035 -1.46271069  8.48900600
   4.75449544  2.80473851  8.49077575
 


--------------------------------------------------------------------------------------------------------


 k-point  1 :   0.0000 0.0000 0.0000  plane waves:   29241
 k-point  2 :   0.5000 0.0000 0.0000  plane waves:   29108
 k-point  3 :  -0.0000 0.5000 0.0000  plane waves:   29108
 k-point  4 :   0.5000 0.5000 0.0000  plane waves:   29108

 maximum and minimum number of plane-waves per node :     14624    14548

 maximum number of plane-waves:     29241
 maximum index in each direction: 
   IXMAX=   14   IYMAX=   14   IZMAX=   37
   IXMIN=  -15   IYMIN=  -15   IZMIN=  -37


 real space projection operators:
  total allocation   :      13564.88 KBytes
  max/ min on nodes  :       6790.73       6774.14


 parallel 3D FFT for wavefunctions:
    minimum data exchange during FFTs selected (reduces bandwidth)
 parallel 3D FFT for charge:
    minimum data exchange during FFTs selected (reduces bandwidth)


 total amount of memory used by VASP MPI-rank0   131960. kBytes
=======================================================================

   base      :      30000. kBytes
   nonlr-proj:      10152. kBytes
   fftplans  :      13556. kBytes
   grid      :      23353. kBytes
   one-center:        311. kBytes
   wavefun   :      54588. kBytes
 
     INWAV:  cpu time    0.0000: real time    0.0000
 Broyden mixing: mesh for mixing (old mesh)
   NGX = 29   NGY = 29   NGZ = 75
  (NGX  = 96   NGY  = 96   NGZ  =240)
  gives a total of  63075 points

 initial charge density was supplied:
 charge density of overlapping atoms calculated
 number of electron     376.0000000 magnetization 
 keeping initial charge density in first step


--------------------------------------------------------------------------------------------------------


 Maximum index for non-local projection operator         1321
 Maximum index for augmentation-charges         1558 (set IRDMAX)


--------------------------------------------------------------------------------------------------------


 First call to EWALD:  gamma=   0.161
 Maximum number of real-space cells 4x 4x 2
 Maximum number of reciprocal cells 2x 2x 5

    FEWALD:  cpu time    0.0021: real time    0.0021


--------------------------------------- Iteration      1(   1)  ---------------------------------------


    POTLOK:  cpu time    0.1201: real time    0.3280
    SETDIJ:  cpu time    0.0098: real time    0.0098
     EDDAV:  cpu time    7.5264: real time    7.5782
       DOS:  cpu time    0.0010: real time    0.0010
    --------------------------------------------
      LOOP:  cpu time    7.6573: real time    7.9170

 eigenvalue-minimisations  :  1824
 total energy-change (2. order) : 0.2424241E+04  (-0.1595241E+05)
 number of electron     376.0000000 magnetization 
 augmentation part      376.0000000 magnetization 

 Free energy of the ion-electron system (eV)
  ---------------------------------------------------
  alpha Z        PSCENC =       975.10247152
  Ewald energy   TEWEN  =     91571.52975874
  -Hartree energ DENC   =   -120659.01386175
  -exchange      EXHF   =         0.00000000
  -V(xc)+E(xc)   XCENC  =       189.96919923
  PAW double counting   =     24789.08602224   -23775.73976456
  entropy T*S    EENTRO =         0.01563840
  eigenvalues    EBANDS =      2073.39760106
  atomic energy  EATOM  =     27259.89416086
  Solvation  Ediel_sol  =         0.00000000
  ---------------------------------------------------
  free energy    TOTEN  =      2424.24122575 eV

  energy without entropy =     2424.22558735  energy(sigma->0) =     2424.23601295


--------------------------------------------------------------------------------------------------------




--------------------------------------- Iteration      1(   2)  ---------------------------------------


     EDDAV:  cpu time    9.0449: real time    9.1086
       DOS:  cpu time    0.0010: real time    0.0010
    --------------------------------------------
      LOOP:  cpu time    9.0459: real time    9.1097

 eigenvalue-minimisations  :  2136
 total energy-change (2. order) :-0.2489131E+04  (-0.2313657E+04)
 number of electron     376.0000000 magnetization 
 augmentation part      376.0000000 magnetization 

 Free energy of the ion-electron system (eV)
  ---------------------------------------------------
  alpha Z        PSCENC =       975.10247152
  Ewald energy   TEWEN  =     91571.52975874
  -Hartree energ DENC   =   -120659.01386175
  -exchange      EXHF   =         0.00000000
  -V(xc)+E(xc)   XCENC  =       189.96919923
  PAW double counting   =     24789.08602224   -23775.73976456
  entropy T*S    EENTRO =        -0.00718184
  eigenvalues    EBANDS =      -415.71031517
  atomic energy  EATOM  =     27259.89416086
  Solvation  Ediel_sol  =         0.00000000
  ---------------------------------------------------
  free energy    TOTEN  =       -64.88951073 eV

  energy without entropy =      -64.88232889  energy(sigma->0) =      -64.88711678


--------------------------------------------------------------------------------------------------------




--------------------------------------- Iteration      1(   3)  ---------------------------------------


     EDDAV:  cpu time    9.1492: real time    9.2136
       DOS:  cpu time    0.0010: real time    0.0010
    --------------------------------------------
      LOOP:  cpu time    9.1502: real time    9.2146

 eigenvalue-minimisations  :  2136
 total energy-change (2. order) :-0.1755022E+03  (-0.1590996E+03)
 number of electron     376.0000000 magnetization 
 augmentation part      376.0000000 magnetization 

 Free energy of the ion-electron system (eV)
  ---------------------------------------------------
  alpha Z        PSCENC =       975.10247152
  Ewald energy   TEWEN  =     91571.52975874
  -Hartree energ DENC   =   -120659.01386175
  -exchange      EXHF   =         0.00000000
  -V(xc)+E(xc)   XCENC  =       189.96919923
  PAW double counting   =     24789.08602224   -23775.73976456
  entropy T*S    EENTRO =        -0.00420707
  eigenvalues    EBANDS =      -591.21552223
  atomic energy  EATOM  =     27259.89416086
  Solvation  Ediel_sol  =         0.00000000
  ---------------------------------------------------
  free energy    TOTEN  =      -240.39174302 eV

  energy without entropy =     -240.38753595  energy(sigma->0) =     -240.39034066


--------------------------------------------------------------------------------------------------------




--------------------------------------- Iteration      1(   4)  ---------------------------------------


     EDDAV:  cpu time    9.5586: real time    9.6251
       DOS:  cpu time    0.0010: real time    0.0010
    --------------------------------------------
      LOOP:  cpu time    9.5596: real time    9.6261

 eigenvalue-minimisations  :  2312
 total energy-change (2. order) :-0.7505274E+01  (-0.7249898E+01)
 number of electron     376.0000000 magnetization 
 augmentation part      376.0000000 magnetization 

 Free energy of the ion-electron system (eV)
  ---------------------------------------------------
  alpha Z        PSCENC =       975.10247152
  Ewald energy   TEWEN  =     91571.52975874
  -Hartree energ DENC   =   -120659.01386175
  -exchange      EXHF   =         0.00000000
  -V(xc)+E(xc)   XCENC  =       189.96919923
  PAW double counting   =     24789.08602224   -23775.73976456
  entropy T*S    EENTRO =         0.00323133
  eigenvalues    EBANDS =      -598.72823421
  atomic energy  EATOM  =     27259.89416086
  Solvation  Ediel_sol  =         0.00000000
  ---------------------------------------------------
  free energy    TOTEN  =      -247.89701659 eV

  energy without entropy =     -247.90024792  energy(sigma->0) =     -247.89809370


--------------------------------------------------------------------------------------------------------




--------------------------------------- Iteration      1(   5)  ---------------------------------------


     EDDAV:  cpu time   10.2579: real time   10.3296
       DOS:  cpu time    0.0010: real time    0.0010
    CHARGE:  cpu time    0.4345: real time    0.4378
    MIXING:  cpu time    0.0075: real time    0.0075
    --------------------------------------------
      LOOP:  cpu time   10.7009: real time   10.7760

 eigenvalue-minimisations  :  2392
 total energy-change (2. order) :-0.2281761E+00  (-0.2265490E+00)
 number of electron     376.0000054 magnetization 
 augmentation part      105.8496024 magnetization 

 Broyden mixing:
  rms(total) = 0.27261E+01    rms(broyden)= 0.27257E+01
  rms(prec ) = 0.30330E+01
  weight for this iteration     100.00

 Free energy of the ion-electron system (eV)
  ---------------------------------------------------
  alpha Z        PSCENC =       975.10247152
  Ewald energy   TEWEN  =     91571.52975874
  -Hartree energ DENC   =   -120659.01386175
  -exchange      EXHF   =         0.00000000
  -V(xc)+E(xc)   XCENC  =       189.96919923
  PAW double counting   =     24789.08602224   -23775.73976456
  entropy T*S    EENTRO =         0.00326837
  eigenvalues    EBANDS =      -598.95644734
  atomic energy  EATOM  =     27259.89416086
  Solvation  Ediel_sol  =         0.00000000
  ---------------------------------------------------
  free energy    TOTEN  =      -248.12519269 eV

  energy without entropy =     -248.12846105  energy(sigma->0) =     -248.12628214


--------------------------------------------------------------------------------------------------------




--------------------------------------- Iteration      1(   6)  ---------------------------------------


    POTLOK:  cpu time    0.1403: real time    0.1413
    SETDIJ:  cpu time    0.0099: real time    0.0099
    EDDIAG:  cpu time    1.4774: real time    1.4875
  RMM-DIIS:  cpu time    4.8209: real time    4.8581
    ORTHCH:  cpu time    0.2224: real time    0.2240
       DOS:  cpu time    0.0011: real time    0.0011
    CHARGE:  cpu time    0.4246: real time    0.4275
    MIXING:  cpu time    0.0062: real time    0.0062
    --------------------------------------------
      LOOP:  cpu time    7.1028: real time    7.1557

 eigenvalue-minimisations  :  1828
 total energy-change (2. order) : 0.2210050E+01  (-0.5497943E+01)
 number of electron     376.0000050 magnetization 
 augmentation part      112.8195303 magnetization 

 Broyden mixing:
  rms(total) = 0.29613E+01    rms(broyden)= 0.29604E+01
  rms(prec ) = 0.40882E+01
  weight for this iteration     100.00

 eigenvalues of (default mixing * dielectric matrix)
  average eigenvalue GAMMA=   0.4876
  0.4876

 Free energy of the ion-electron system (eV)
  ---------------------------------------------------
  alpha Z        PSCENC =       975.10247152
  Ewald energy   TEWEN  =     91571.52975874
  -Hartree energ DENC   =   -120202.51265198
  -exchange      EXHF   =         0.00000000
  -V(xc)+E(xc)   XCENC  =       182.83057156
  PAW double counting   =     26742.95691331   -25783.29049366
  entropy T*S    EENTRO =        -0.19024549
  eigenvalues    EBANDS =      -992.23562762
  atomic energy  EATOM  =     27259.89416086
  Solvation  Ediel_sol  =         0.00000000
  ---------------------------------------------------
  free energy    TOTEN  =      -245.91514275 eV

  energy without entropy =     -245.72489726  energy(sigma->0) =     -245.85172759


--------------------------------------------------------------------------------------------------------




--------------------------------------- Iteration      1(   7)  ---------------------------------------


    POTLOK:  cpu time    0.1422: real time    0.1430
    SETDIJ:  cpu time    0.0093: real time    0.0093
    EDDIAG:  cpu time    1.4660: real time    1.4760
  RMM-DIIS:  cpu time    5.1569: real time    5.1935
    ORTHCH:  cpu time    0.2407: real time    0.2425
       DOS:  cpu time    0.0012: real time    0.0057
    CHARGE:  cpu time    0.4528: real time    0.4562
    MIXING:  cpu time    0.0043: real time    0.0043
    --------------------------------------------
      LOOP:  cpu time    7.4734: real time    7.5306

 eigenvalue-minimisations  :  1828
 total energy-change (2. order) :-0.6116661E+00  (-0.3187384E+01)
 number of electron     376.0000064 magnetization 
 augmentation part      111.3987030 magnetization 

 Broyden mixing:
  rms(total) = 0.22364E+01    rms(broyden)= 0.22358E+01
  rms(prec ) = 0.40014E+01
  weight for this iteration     100.00

 eigenvalues of (default mixing * dielectric matrix)
  average eigenvalue GAMMA=   0.5397
  0.8469  0.2326

 Free energy of the ion-electron system (eV)
  ---------------------------------------------------
  alpha Z        PSCENC =       975.10247152
  Ewald energy   TEWEN  =     91571.52975874
  -Hartree energ DENC   =   -120387.90129254
  -exchange      EXHF   =         0.00000000
  -V(xc)+E(xc)   XCENC  =       180.66528646
  PAW double counting   =     27364.38623335   -26411.89090289
  entropy T*S    EENTRO =        -0.12918802
  eigenvalues    EBANDS =      -798.18333631
  atomic energy  EATOM  =     27259.89416086
  Solvation  Ediel_sol  =         0.00000000
  ---------------------------------------------------
  free energy    TOTEN  =      -246.52680881 eV

  energy without entropy =     -246.39762079  energy(sigma->0) =     -246.48374614


--------------------------------------------------------------------------------------------------------




--------------------------------------- Iteration      1(   8)  ---------------------------------------


    POTLOK:  cpu time    0.1256: real time    0.1265
    SETDIJ:  cpu time    0.0095: real time    0.0096
    EDDIAG:  cpu time    1.4694: real time    1.4806
  RMM-DIIS:  cpu time    4.6906: real time    4.7271
    ORTHCH:  cpu time    0.2257: real time    0.2270
       DOS:  cpu time    0.0010: real time    0.0010
    CHARGE:  cpu time    0.3967: real time    0.3989
    MIXING:  cpu time    0.0043: real time    0.0043
    --------------------------------------------
      LOOP:  cpu time    6.9227: real time    6.9752

 eigenvalue-minimisations  :  1826
 total energy-change (2. order) : 0.3055154E+01  (-0.1065766E+01)
 number of electron     376.0000063 magnetization 
 augmentation part      111.8892040 magnetization 

 Broyden mixing:
  rms(total) = 0.23021E+01    rms(broyden)= 0.23019E+01
  rms(prec ) = 0.37713E+01
  weight for this iteration     100.00

 eigenvalues of (default mixing * dielectric matrix)
  average eigenvalue GAMMA=   0.5153
  1.1332  0.2682  0.1445

 Free energy of the ion-electron system (eV)
  ---------------------------------------------------
  alpha Z        PSCENC =       975.10247152
  Ewald energy   TEWEN  =     91571.52975874
  -Hartree energ DENC   =   -120368.69950465
  -exchange      EXHF   =         0.00000000
  -V(xc)+E(xc)   XCENC  =       179.61592447
  PAW double counting   =     27922.98158205   -26979.20284538
  entropy T*S    EENTRO =        -0.01617252
  eigenvalues    EBANDS =      -804.67702977
  atomic energy  EATOM  =     27259.89416086
  Solvation  Ediel_sol  =         0.00000000
  ---------------------------------------------------
  free energy    TOTEN  =      -243.47165466 eV

  energy without entropy =     -243.45548215  energy(sigma->0) =     -243.46626383


--------------------------------------------------------------------------------------------------------




--------------------------------------- Iteration      1(   9)  ---------------------------------------


    POTLOK:  cpu time    0.1322: real time    0.1329
    SETDIJ:  cpu time    0.0096: real time    0.0096
    EDDIAG:  cpu time    1.4796: real time    1.4884
  RMM-DIIS:  cpu time    4.9065: real time    4.9409
    ORTHCH:  cpu time    0.2334: real time    0.2349
       DOS:  cpu time    0.0011: real time    0.0011
    CHARGE:  cpu time    0.4383: real time    0.4413
    MIXING:  cpu time    0.0047: real time    0.0048
    --------------------------------------------
      LOOP:  cpu time    7.2054: real time    7.2539

 eigenvalue-minimisations  :  1831
 total energy-change (2. order) : 0.1160334E+02  (-0.6519428E+00)
 number of electron     376.0000058 magnetization 
 augmentation part      112.6461271 magnetization 

 Broyden mixing:
  rms(total) = 0.93471E+00    rms(broyden)= 0.93446E+00
  rms(prec ) = 0.11941E+01
  weight for this iteration     100.00

 eigenvalues of (default mixing * dielectric matrix)
  average eigenvalue GAMMA=   0.5176
  1.2806  0.3259  0.3259  0.1380

 Free energy of the ion-electron system (eV)
  ---------------------------------------------------
  alpha Z        PSCENC =       975.10247152
  Ewald energy   TEWEN  =     91571.52975874
  -Hartree energ DENC   =   -120291.06835935
  -exchange      EXHF   =         0.00000000
  -V(xc)+E(xc)   XCENC  =       178.89698430
  PAW double counting   =     28655.22264898   -27722.80544728
  entropy T*S    EENTRO =        -0.09105999
  eigenvalues    EBANDS =      -858.54947459
  atomic energy  EATOM  =     27259.89416086
  Solvation  Ediel_sol  =         0.00000000
  ---------------------------------------------------
  free energy    TOTEN  =      -231.86831680 eV

  energy without entropy =     -231.77725681  energy(sigma->0) =     -231.83796347


--------------------------------------------------------------------------------------------------------




--------------------------------------- Iteration      1(  10)  ---------------------------------------


    POTLOK:  cpu time    0.1422: real time    0.1431
    SETDIJ:  cpu time    0.0104: real time    0.0105
    EDDIAG:  cpu time    1.4831: real time    1.4928
  RMM-DIIS:  cpu time    4.8361: real time    4.8679
    ORTHCH:  cpu time    0.2050: real time    0.2062
       DOS:  cpu time    0.0011: real time    0.0011
    CHARGE:  cpu time    0.3882: real time    0.3908
    MIXING:  cpu time    0.0054: real time    0.0055
    --------------------------------------------
      LOOP:  cpu time    7.0715: real time    7.1179

 eigenvalue-minimisations  :  1831
 total energy-change (2. order) : 0.1352680E+01  (-0.2049171E+00)
 number of electron     376.0000057 magnetization 
 augmentation part      112.7851072 magnetization 

 Broyden mixing:
  rms(total) = 0.53154E+00    rms(broyden)= 0.53148E+00
  rms(prec ) = 0.66495E+00
  weight for this iteration     100.00

 eigenvalues of (default mixing * dielectric matrix)
  average eigenvalue GAMMA=   0.5370
  1.3878  0.4516  0.4516  0.1398  0.2542

 Free energy of the ion-electron system (eV)
  ---------------------------------------------------
  alpha Z        PSCENC =       975.10247152
  Ewald energy   TEWEN  =     91571.52975874
  -Hartree energ DENC   =   -120280.65853036
  -exchange      EXHF   =         0.00000000
  -V(xc)+E(xc)   XCENC  =       178.73806575
  PAW double counting   =     29037.10852076   -28109.93495709
  entropy T*S    EENTRO =         0.01222277
  eigenvalues    EBANDS =      -862.30734981
  atomic energy  EATOM  =     27259.89416086
  Solvation  Ediel_sol  =         0.00000000
  ---------------------------------------------------
  free energy    TOTEN  =      -230.51563685 eV

  energy without entropy =     -230.52785962  energy(sigma->0) =     -230.51971111


--------------------------------------------------------------------------------------------------------




--------------------------------------- Iteration      1(  11)  ---------------------------------------


    POTLOK:  cpu time    0.1312: real time    0.1320
    SETDIJ:  cpu time    0.0098: real time    0.0099
    EDDIAG:  cpu time    1.3683: real time    1.3774
  RMM-DIIS:  cpu time    4.4133: real time    4.4443
    ORTHCH:  cpu time    0.2165: real time    0.2179
       DOS:  cpu time    0.0011: real time    0.0011
    CHARGE:  cpu time    0.4188: real time    0.4217
    MIXING:  cpu time    0.0054: real time    0.0054
    --------------------------------------------
      LOOP:  cpu time    6.5644: real time    6.6097

 eigenvalue-minimisations  :  1831
 total energy-change (2. order) : 0.2948540E+00  (-0.5194334E-01)
 number of electron     376.0000057 magnetization 
 augmentation part      112.9282327 magnetization 

 Broyden mixing:
  rms(total) = 0.33887E+00    rms(broyden)= 0.33851E+00
  rms(prec ) = 0.45474E+00
  weight for this iteration     100.00

 eigenvalues of (default mixing * dielectric matrix)
  average eigenvalue GAMMA=   0.5780
  1.5604  0.8532  0.3425  0.3425  0.1386  0.2309

 Free energy of the ion-electron system (eV)
  ---------------------------------------------------
  alpha Z        PSCENC =       975.10247152
  Ewald energy   TEWEN  =     91571.52975874
  -Hartree energ DENC   =   -120278.38287347
  -exchange      EXHF   =         0.00000000
  -V(xc)+E(xc)   XCENC  =       178.73010479
  PAW double counting   =     29329.79732605   -28406.42115919
  entropy T*S    EENTRO =        -0.02896205
  eigenvalues    EBANDS =      -860.44161014
  atomic energy  EATOM  =     27259.89416086
  Solvation  Ediel_sol  =         0.00000000
  ---------------------------------------------------
  free energy    TOTEN  =      -230.22078289 eV

  energy without entropy =     -230.19182084  energy(sigma->0) =     -230.21112887


--------------------------------------------------------------------------------------------------------




--------------------------------------- Iteration      1(  12)  ---------------------------------------


    POTLOK:  cpu time    0.1427: real time    0.1436
    SETDIJ:  cpu time    0.0098: real time    0.0098
    EDDIAG:  cpu time    1.6339: real time    1.6443
  RMM-DIIS:  cpu time    4.5140: real time    4.5463
    ORTHCH:  cpu time    0.2174: real time    0.2188
       DOS:  cpu time    0.0011: real time    0.0011
    CHARGE:  cpu time    0.3916: real time    0.3943
    MIXING:  cpu time    0.0050: real time    0.0051
    --------------------------------------------
      LOOP:  cpu time    6.9155: real time    6.9632

 eigenvalue-minimisations  :  1842
 total energy-change (2. order) : 0.1814918E+00  (-0.2204533E-01)
 number of electron     376.0000056 magnetization 
 augmentation part      112.9760557 magnetization 

 Broyden mixing:
  rms(total) = 0.17372E+00    rms(broyden)= 0.17368E+00
  rms(prec ) = 0.18955E+00
  weight for this iteration     100.00

 eigenvalues of (default mixing * dielectric matrix)
  average eigenvalue GAMMA=   0.6695
  1.9103  1.0620  0.6205  0.4209  0.1387  0.2911  0.2430

 Free energy of the ion-electron system (eV)
  ---------------------------------------------------
  alpha Z        PSCENC =       975.10247152
  Ewald energy   TEWEN  =     91571.52975874
  -Hartree energ DENC   =   -120270.02014468
  -exchange      EXHF   =         0.00000000
  -V(xc)+E(xc)   XCENC  =       178.67976842
  PAW double counting   =     29648.66597084   -28729.16984644
  entropy T*S    EENTRO =        -0.01824319
  eigenvalues    EBANDS =      -864.70318713
  atomic energy  EATOM  =     27259.89416086
  Solvation  Ediel_sol  =         0.00000000
  ---------------------------------------------------
  free energy    TOTEN  =      -230.03929106 eV

  energy without entropy =     -230.02104787  energy(sigma->0) =     -230.03320999


--------------------------------------------------------------------------------------------------------




--------------------------------------- Iteration      1(  13)  ---------------------------------------


    POTLOK:  cpu time    0.1334: real time    0.1342
    SETDIJ:  cpu time    0.0095: real time    0.0096
    EDDIAG:  cpu time    1.3034: real time    1.3121
  RMM-DIIS:  cpu time    4.4406: real time    4.4727
    ORTHCH:  cpu time    0.2138: real time    0.2152
       DOS:  cpu time    0.0011: real time    0.0011
    CHARGE:  cpu time    0.3819: real time    0.3846
    MIXING:  cpu time    0.0052: real time    0.0052
    --------------------------------------------
      LOOP:  cpu time    6.4888: real time    6.5346

 eigenvalue-minimisations  :  1834
 total energy-change (2. order) :-0.7426896E-02  (-0.1020610E-01)
 number of electron     376.0000056 magnetization 
 augmentation part      112.9985865 magnetization 

 Broyden mixing:
  rms(total) = 0.18546E+00    rms(broyden)= 0.18545E+00
  rms(prec ) = 0.23000E+00
  weight for this iteration     100.00

 eigenvalues of (default mixing * dielectric matrix)
  average eigenvalue GAMMA=   0.6981
  2.1537  1.1404  0.8542  0.4334  0.1387  0.3167  0.3167  0.2310

 Free energy of the ion-electron system (eV)
  ---------------------------------------------------
  alpha Z        PSCENC =       975.10247152
  Ewald energy   TEWEN  =     91571.52975874
  -Hartree energ DENC   =   -120270.21051132
  -exchange      EXHF   =         0.00000000
  -V(xc)+E(xc)   XCENC  =       178.58673253
  PAW double counting   =     29919.11417101   -29002.83841452
  entropy T*S    EENTRO =        -0.02039399
  eigenvalues    EBANDS =      -861.20469278
  atomic energy  EATOM  =     27259.89416086
  Solvation  Ediel_sol  =         0.00000000
  ---------------------------------------------------
  free energy    TOTEN  =      -230.04671795 eV

  energy without entropy =     -230.02632396  energy(sigma->0) =     -230.03991996


--------------------------------------------------------------------------------------------------------




--------------------------------------- Iteration      1(  14)  ---------------------------------------


    POTLOK:  cpu time    0.1300: real time    0.1309
    SETDIJ:  cpu time    0.0099: real time    0.0100
    EDDIAG:  cpu time    1.1551: real time    1.1621
  RMM-DIIS:  cpu time    4.2094: real time    4.2382
    ORTHCH:  cpu time    0.2125: real time    0.2138
       DOS:  cpu time    0.0011: real time    0.0011
    CHARGE:  cpu time    0.3858: real time    0.3884
    MIXING:  cpu time    0.0056: real time    0.0056
    --------------------------------------------
      LOOP:  cpu time    6.1094: real time    6.1500

 eigenvalue-minimisations  :  1831
 total energy-change (2. order) : 0.3393006E-01  (-0.8346470E-02)
 number of electron     376.0000056 magnetization 
 augmentation part      112.9776781 magnetization 

 Broyden mixing:
  rms(total) = 0.10695E+00    rms(broyden)= 0.10694E+00
  rms(prec ) = 0.13824E+00
  weight for this iteration     100.00

 eigenvalues of (default mixing * dielectric matrix)
  average eigenvalue GAMMA=   0.7284
  2.4334  1.2595  0.8169  0.7270  0.1387  0.3682  0.3209  0.2295  0.2614

 Free energy of the ion-electron system (eV)
  ---------------------------------------------------
  alpha Z        PSCENC =       975.10247152
  Ewald energy   TEWEN  =     91571.52975874
  -Hartree energ DENC   =   -120274.41147017
  -exchange      EXHF   =         0.00000000
  -V(xc)+E(xc)   XCENC  =       178.53408505
  PAW double counting   =     30058.19792601   -29143.51944383
  entropy T*S    EENTRO =        -0.02006281
  eigenvalues    EBANDS =      -855.32021327
  atomic energy  EATOM  =     27259.89416086
  Solvation  Ediel_sol  =         0.00000000
  ---------------------------------------------------
  free energy    TOTEN  =      -230.01278790 eV

  energy without entropy =     -229.99272509  energy(sigma->0) =     -230.00610029


--------------------------------------------------------------------------------------------------------




--------------------------------------- Iteration      1(  15)  ---------------------------------------


    POTLOK:  cpu time    0.1298: real time    0.1306
    SETDIJ:  cpu time    0.0097: real time    0.0097
    EDDIAG:  cpu time    1.3130: real time    1.3218
  RMM-DIIS:  cpu time    4.5301: real time    4.5625
    ORTHCH:  cpu time    0.2222: real time    0.2237
       DOS:  cpu time    0.0011: real time    0.0011
    CHARGE:  cpu time    0.3980: real time    0.4007
    MIXING:  cpu time    0.0063: real time    0.0063
    --------------------------------------------
      LOOP:  cpu time    6.6102: real time    6.6563

 eigenvalue-minimisations  :  1831
 total energy-change (2. order) : 0.7955403E-02  (-0.3075757E-02)
 number of electron     376.0000056 magnetization 
 augmentation part      112.9578306 magnetization 

 Broyden mixing:
  rms(total) = 0.76422E-01    rms(broyden)= 0.76357E-01
  rms(prec ) = 0.95744E-01
  weight for this iteration     100.00

 eigenvalues of (default mixing * dielectric matrix)
  average eigenvalue GAMMA=   0.7014
  2.4688  1.2637  0.8184  0.8184  0.4252  0.1387  0.3040  0.3040  0.2280  0.2449

 Free energy of the ion-electron system (eV)
  ---------------------------------------------------
  alpha Z        PSCENC =       975.10247152
  Ewald energy   TEWEN  =     91571.52975874
  -Hartree energ DENC   =   -120276.02517036
  -exchange      EXHF   =         0.00000000
  -V(xc)+E(xc)   XCENC  =       178.51368814
  PAW double counting   =     30147.07093057   -29233.34521833
  entropy T*S    EENTRO =        -0.01218082
  eigenvalues    EBANDS =      -852.73327283
  atomic energy  EATOM  =     27259.89416086
  Solvation  Ediel_sol  =         0.00000000
  ---------------------------------------------------
  free energy    TOTEN  =      -230.00483249 eV

  energy without entropy =     -229.99265167  energy(sigma->0) =     -230.00077222


--------------------------------------------------------------------------------------------------------




--------------------------------------- Iteration      1(  16)  ---------------------------------------


    POTLOK:  cpu time    0.1322: real time    0.1330
    SETDIJ:  cpu time    0.0098: real time    0.0098
    EDDIAG:  cpu time    1.3187: real time    1.3276
  RMM-DIIS:  cpu time    4.4724: real time    4.5044
    ORTHCH:  cpu time    0.2199: real time    0.2214
       DOS:  cpu time    0.0011: real time    0.0011
    CHARGE:  cpu time    0.3830: real time    0.3854
    MIXING:  cpu time    0.0058: real time    0.0059
    --------------------------------------------
      LOOP:  cpu time    6.5429: real time    6.5887

 eigenvalue-minimisations  :  1827
 total energy-change (2. order) : 0.9007720E-02  (-0.7920259E-03)
 number of electron     376.0000056 magnetization 
 augmentation part      112.9634166 magnetization 

 Broyden mixing:
  rms(total) = 0.21631E-01    rms(broyden)= 0.21618E-01
  rms(prec ) = 0.25698E-01
  weight for this iteration     100.00

 eigenvalues of (default mixing * dielectric matrix)
  average eigenvalue GAMMA=   0.6899
  2.5014  1.2709  0.8024  0.8024  0.5955  0.1387  0.3974  0.3068  0.3068  0.2398
  0.2270

 Free energy of the ion-electron system (eV)
  ---------------------------------------------------
  alpha Z        PSCENC =       975.10247152
  Ewald energy   TEWEN  =     91571.52975874
  -Hartree energ DENC   =   -120277.18098070
  -exchange      EXHF   =         0.00000000
  -V(xc)+E(xc)   XCENC  =       178.52277325
  PAW double counting   =     30157.02808066   -29243.38621023
  entropy T*S    EENTRO =        -0.01518795
  eigenvalues    EBANDS =      -851.49069093
  atomic energy  EATOM  =     27259.89416086
  Solvation  Ediel_sol  =         0.00000000
  ---------------------------------------------------
  free energy    TOTEN  =      -229.99582477 eV

  energy without entropy =     -229.98063682  energy(sigma->0) =     -229.99076212


--------------------------------------------------------------------------------------------------------




--------------------------------------- Iteration      1(  17)  ---------------------------------------


    POTLOK:  cpu time    0.1285: real time    0.1293
    SETDIJ:  cpu time    0.0100: real time    0.0100
    EDDIAG:  cpu time    1.2515: real time    1.2599
  RMM-DIIS:  cpu time    4.4052: real time    4.4367
    ORTHCH:  cpu time    0.2180: real time    0.2195
       DOS:  cpu time    0.0011: real time    0.0011
    CHARGE:  cpu time    0.3839: real time    0.3866
    MIXING:  cpu time    0.0056: real time    0.0056
    --------------------------------------------
      LOOP:  cpu time    6.4038: real time    6.4488

 eigenvalue-minimisations  :  1817
 total energy-change (2. order) : 0.4253173E-03  (-0.1604705E-03)
 number of electron     376.0000056 magnetization 
 augmentation part      112.9645993 magnetization 

 Broyden mixing:
  rms(total) = 0.13987E-01    rms(broyden)= 0.13983E-01
  rms(prec ) = 0.16781E-01
  weight for this iteration     100.00

 eigenvalues of (default mixing * dielectric matrix)
  average eigenvalue GAMMA=   0.7376
  2.5593  1.3245  1.1002  1.1002  0.8081  0.4369  0.1387  0.3172  0.3172  0.2839
  0.2388  0.2257

 Free energy of the ion-electron system (eV)
  ---------------------------------------------------
  alpha Z        PSCENC =       975.10247152
  Ewald energy   TEWEN  =     91571.52975874
  -Hartree energ DENC   =   -120277.55344120
  -exchange      EXHF   =         0.00000000
  -V(xc)+E(xc)   XCENC  =       178.52907395
  PAW double counting   =     30160.37391705   -29246.73914970
  entropy T*S    EENTRO =        -0.01522159
  eigenvalues    EBANDS =      -851.11696910
  atomic energy  EATOM  =     27259.89416086
  Solvation  Ediel_sol  =         0.00000000
  ---------------------------------------------------
  free energy    TOTEN  =      -229.99539946 eV

  energy without entropy =     -229.98017787  energy(sigma->0) =     -229.99032559


--------------------------------------------------------------------------------------------------------




--------------------------------------- Iteration      1(  18)  ---------------------------------------


    POTLOK:  cpu time    0.1230: real time    0.1237
    SETDIJ:  cpu time    0.0091: real time    0.0092
    EDDIAG:  cpu time    1.1963: real time    1.2044
  RMM-DIIS:  cpu time    4.2309: real time    4.2615
    ORTHCH:  cpu time    0.2142: real time    0.2157
       DOS:  cpu time    0.0011: real time    0.0011
    CHARGE:  cpu time    0.3699: real time    0.3724
    MIXING:  cpu time    0.0063: real time    0.0064
    --------------------------------------------
      LOOP:  cpu time    6.1509: real time    6.1943

 eigenvalue-minimisations  :  1799
 total energy-change (2. order) :-0.2396026E-03  (-0.9092849E-04)
 number of electron     376.0000056 magnetization 
 augmentation part      112.9634629 magnetization 

 Broyden mixing:
  rms(total) = 0.13340E-01    rms(broyden)= 0.13340E-01
  rms(prec ) = 0.16717E-01
  weight for this iteration     100.00

 eigenvalues of (default mixing * dielectric matrix)
  average eigenvalue GAMMA=   0.7464
  2.5689  1.8056  1.2578  0.8888  0.8888  0.4434  0.1387  0.3602  0.3164  0.3164
  0.2567  0.2355  0.2255

 Free energy of the ion-electron system (eV)
  ---------------------------------------------------
  alpha Z        PSCENC =       975.10247152
  Ewald energy   TEWEN  =     91571.52975874
  -Hartree energ DENC   =   -120278.87519609
  -exchange      EXHF   =         0.00000000
  -V(xc)+E(xc)   XCENC  =       178.53938401
  PAW double counting   =     30161.86565239   -29248.18617286
  entropy T*S    EENTRO =        -0.01501708
  eigenvalues    EBANDS =      -849.85068056
  atomic energy  EATOM  =     27259.89416086
  Solvation  Ediel_sol  =         0.00000000
  ---------------------------------------------------
  free energy    TOTEN  =      -229.99563906 eV

  energy without entropy =     -229.98062197  energy(sigma->0) =     -229.99063336


--------------------------------------------------------------------------------------------------------




--------------------------------------- Iteration      1(  19)  ---------------------------------------


    POTLOK:  cpu time    0.1255: real time    0.1263
    SETDIJ:  cpu time    0.0097: real time    0.0097
    EDDIAG:  cpu time    1.2473: real time    1.2555
  RMM-DIIS:  cpu time    2.7764: real time    2.7943
    ORTHCH:  cpu time    0.1966: real time    0.1977
       DOS:  cpu time    0.0010: real time    0.0010
    CHARGE:  cpu time    0.3665: real time    0.3690
    MIXING:  cpu time    0.0060: real time    0.0060
    --------------------------------------------
      LOOP:  cpu time    4.7290: real time    4.7597

 eigenvalue-minimisations  :  1320
 total energy-change (2. order) : 0.1241470E-03  (-0.3950161E-04)
 number of electron     376.0000056 magnetization 
 augmentation part      112.9627742 magnetization 

 Broyden mixing:
  rms(total) = 0.54376E-02    rms(broyden)= 0.54349E-02
  rms(prec ) = 0.77008E-02
  weight for this iteration     100.00

 eigenvalues of (default mixing * dielectric matrix)
  average eigenvalue GAMMA=   0.7550
  2.5408  2.0245  1.2756  0.8748  0.8748  0.7329  0.4373  0.1387  0.3462  0.3069
  0.3069  0.2517  0.2343  0.2247

 Free energy of the ion-electron system (eV)
  ---------------------------------------------------
  alpha Z        PSCENC =       975.10247152
  Ewald energy   TEWEN  =     91571.52975874
  -Hartree energ DENC   =   -120280.04644402
  -exchange      EXHF   =         0.00000000
  -V(xc)+E(xc)   XCENC  =       178.54716595
  PAW double counting   =     30159.39858592   -29245.65290061
  entropy T*S    EENTRO =        -0.01533453
  eigenvalues    EBANDS =      -848.75297875
  atomic energy  EATOM  =     27259.89416086
  Solvation  Ediel_sol  =         0.00000000
  ---------------------------------------------------
  free energy    TOTEN  =      -229.99551491 eV

  energy without entropy =     -229.98018039  energy(sigma->0) =     -229.99040340


--------------------------------------------------------------------------------------------------------




--------------------------------------- Iteration      1(  20)  ---------------------------------------


    POTLOK:  cpu time    0.1265: real time    0.1273
    SETDIJ:  cpu time    0.0096: real time    0.0097
    EDDIAG:  cpu time    1.2513: real time    1.2599
  RMM-DIIS:  cpu time    2.6241: real time    2.6433
    ORTHCH:  cpu time    0.2147: real time    0.2161
       DOS:  cpu time    0.0011: real time    0.0012
    --------------------------------------------
      LOOP:  cpu time    4.2274: real time    4.2574

 eigenvalue-minimisations  :  1004
 total energy-change (2. order) :-0.9137906E-04  (-0.1030628E-04)
 number of electron     376.0000056 magnetization 
 augmentation part      112.9627742 magnetization 

 Free energy of the ion-electron system (eV)
  ---------------------------------------------------
  alpha Z        PSCENC =       975.10247152
  Ewald energy   TEWEN  =     91571.52975874
  -Hartree energ DENC   =   -120280.68842691
  -exchange      EXHF   =         0.00000000
  -V(xc)+E(xc)   XCENC  =       178.55076758
  PAW double counting   =     30157.00381263   -29243.21516059
  entropy T*S    EENTRO =        -0.01516711
  eigenvalues    EBANDS =      -848.15782301
  atomic energy  EATOM  =     27259.89416086
  Solvation  Ediel_sol  =         0.00000000
  ---------------------------------------------------
  free energy    TOTEN  =      -229.99560629 eV

  energy without entropy =     -229.98043918  energy(sigma->0) =     -229.99055059


--------------------------------------------------------------------------------------------------------




 average (electrostatic) potential at core
  the test charge radii are     0.6991  0.7215  1.2059
  (the norm of the test charge is              1.0000)
       1 -56.3882       2 -74.8503       3 -76.3540       4 -72.2934       5 -72.3027
       6 -72.2784       7 -72.2740       8 -72.3045       9 -72.2951      10 -72.2531
      11 -72.2897      12 -72.2773      13 -72.8489      14 -72.9214      15 -72.8838
      16 -72.9432      17 -72.9855      18 -72.9250      19 -72.9806      20 -72.9675
      21 -73.0260      22 -72.8739      23 -72.9585      24 -72.9391      25 -73.0250
      26 -72.9904      27 -73.0182      28 -72.9755      29 -72.9406      30 -72.8666
      31 -72.2935      32 -72.5294      33 -72.5495      34 -72.3909      35 -72.4123
      36 -73.2968      37 -72.4136      38 -73.2239      39 -72.3836
 
 
 
 E-fermi :   1.1212     XC(G=0):  -6.6167     alpha+bet : -6.8913


 k-point     1 :       0.0000    0.0000    0.0000
  band No.  band energies     occupation 
      1     -22.2197      2.00000
      2     -17.1420      2.00000
      3      -8.6989      2.00000
      4      -8.1018      2.00000
      5      -6.8431      2.00000
      6      -6.0696      2.00000
      7      -5.9303      2.00000
      8      -5.7474      2.00000
      9      -5.6990      2.00000
     10      -5.6658      2.00000
     11      -5.6504      2.00000
     12      -5.5736      2.00000
     13      -5.5357      2.00000
     14      -5.5336      2.00000
     15      -5.4571      2.00000
     16      -5.3119      2.00000
     17      -5.1015      2.00000
     18      -5.0826      2.00000
     19      -5.0682      2.00000
     20      -5.0581      2.00000
     21      -4.9965      2.00000
     22      -4.9819      2.00000
     23      -4.7356      2.00000
     24      -4.6442      2.00000
     25      -4.5675      2.00000
     26      -4.5489      2.00000
     27      -4.5262      2.00000
     28      -4.4921      2.00000
     29      -4.4463      2.00000
     30      -4.3626      2.00000
     31      -4.3422      2.00000
     32      -4.3141      2.00000
     33      -4.3040      2.00000
     34      -4.2386      2.00000
     35      -4.1694      2.00000
     36      -4.1396      2.00000
     37      -4.1207      2.00000
     38      -4.1067      2.00000
     39      -4.0681      2.00000
     40      -4.0559      2.00000
     41      -4.0295      2.00000
     42      -4.0264      2.00000
     43      -3.9963      2.00000
     44      -3.9915      2.00000
     45      -3.9671      2.00000
     46      -3.9221      2.00000
     47      -3.6355      2.00000
     48      -3.5775      2.00000
     49      -3.5207      2.00000
     50      -3.4558      2.00000
     51      -3.4198      2.00000
     52      -3.4087      2.00000
     53      -3.4024      2.00000
     54      -3.3774      2.00000
     55      -3.3659      2.00000
     56      -3.3110      2.00000
     57      -3.2761      2.00000
     58      -3.1917      2.00000
     59      -3.1510      2.00000
     60      -3.1284      2.00000
     61      -3.0626      2.00000
     62      -2.9992      2.00000
     63      -2.9053      2.00000
     64      -2.6457      2.00000
     65      -2.5880      2.00000
     66      -2.5577      2.00000
     67      -2.5258      2.00000
     68      -2.5157      2.00000
     69      -2.4830      2.00000
     70      -2.4715      2.00000
     71      -2.4403      2.00000
     72      -2.4353      2.00000
     73      -2.3845      2.00000
     74      -2.3745      2.00000
     75      -2.3542      2.00000
     76      -2.3477      2.00000
     77      -2.3279      2.00000
     78      -2.3195      2.00000
     79      -2.3032      2.00000
     80      -2.2897      2.00000
     81      -2.2780      2.00000
     82      -2.2701      2.00000
     83      -2.2570      2.00000
     84      -2.2230      2.00000
     85      -2.1836      2.00000
     86      -2.1573      2.00000
     87      -2.1231      2.00000
     88      -2.0894      2.00000
     89      -2.0780      2.00000
     90      -2.0502      2.00000
     91      -2.0112      2.00000
     92      -1.9892      2.00000
     93      -1.9603      2.00000
     94      -1.9382      2.00000
     95      -1.9105      2.00000
     96      -1.8836      2.00000
     97      -1.8515      2.00000
     98      -1.8339      2.00000
     99      -1.8270      2.00000
    100      -1.7841      2.00000
    101      -1.6235      2.00000
    102      -1.6124      2.00000
    103      -1.5956      2.00000
    104      -1.5850      2.00000
    105      -1.5657      2.00000
    106      -1.5280      2.00000
    107      -1.5085      2.00000
    108      -1.4998      2.00000
    109      -1.4631      2.00000
    110      -1.4578      2.00000
    111      -1.4535      2.00000
    112      -1.4405      2.00000
    113      -1.4311      2.00000
    114      -1.3450      2.00000
    115      -1.2632      2.00000
    116      -1.1495      2.00000
    117      -1.1197      2.00000
    118      -1.0724      2.00000
    119      -1.0436      2.00000
    120      -1.0045      2.00000
    121      -0.9690      2.00000
    122      -0.9566      2.00000
    123      -0.9349      2.00000
    124      -0.8905      2.00000
    125      -0.8827      2.00000
    126      -0.8084      2.00000
    127      -0.7897      2.00000
    128      -0.7513      2.00000
    129      -0.6713      2.00000
    130      -0.6611      2.00000
    131      -0.6335      2.00000
    132      -0.6270      2.00000
    133      -0.5842      2.00000
    134      -0.5368      2.00000
    135      -0.5034      2.00000
    136      -0.4353      2.00000
    137      -0.3946      2.00000
    138      -0.3442      2.00000
    139      -0.3246      2.00000
    140      -0.3152      2.00000
    141      -0.2512      2.00000
    142      -0.2275      2.00000
    143      -0.1861      2.00000
    144      -0.1698      2.00000
    145      -0.1459      2.00000
    146      -0.1070      2.00000
    147      -0.0651      2.00000
    148      -0.0314      2.00000
    149       0.0331      2.00000
    150       0.0563      2.00000
    151       0.0801      2.00000
    152       0.1260      2.00000
    153       0.1436      2.00000
    154       0.1638      2.00000
    155       0.1721      2.00000
    156       0.2134      2.00000
    157       0.2215      2.00000
    158       0.2660      2.00000
    159       0.2902      2.00000
    160       0.3023      2.00000
    161       0.3257      2.00000
    162       0.3341      2.00000
    163       0.3620      2.00000
    164       0.3696      2.00000
    165       0.3957      2.00000
    166       0.4133      2.00001
    167       0.4335      2.00001
    168       0.4591      2.00003
    169       0.4828      2.00006
    170       0.5056      2.00012
    171       0.5258      2.00021
    172       0.5599      2.00053
    173       0.6211      2.00231
    174       0.6428      2.00370
    175       0.6499      2.00429
    176       0.6710      2.00655
    177       0.6976      2.01072
    178       0.7137      2.01413
    179       0.7278      2.01776
    180       0.7472      2.02377
    181       0.7749      2.03441
    182       0.7844      2.03852
    183       0.8204      2.05495
    184       0.8423      2.06395
    185       0.8462      2.06531
    186       0.8505      2.06667
    187       0.8571      2.06844
    188       0.8641      2.06987
    189       0.8692      2.07055
    190       0.8712      2.07073
    191       0.8988      2.06638
    192       0.9009      2.06540
    193       0.9239      2.04736
    194       0.9371      2.02954
    195       0.9629      1.97557
    196       1.1118      1.07932
    197       1.1368      0.86824
    198       1.2057      0.35038
    199       1.2221      0.25498
    200       1.2442      0.14666
    201       1.2602      0.08380
    202       1.2708      0.04885
    203       1.2920     -0.00526
    204       1.4586     -0.03821
    205       1.5125     -0.01836
    206       1.9722     -0.00000
    207       2.0323     -0.00000
    208       2.0842     -0.00000
    209       2.1120     -0.00000
    210       2.2305     -0.00000
    211       2.5484     -0.00000
    212       3.5792     -0.00000
    213       4.0046     -0.00000
    214       4.3400     -0.00000
    215       4.3972     -0.00000
    216       4.4383     -0.00000
    217       4.6137     -0.00000
    218       4.8620     -0.00000
    219       5.4407     -0.00000
    220       5.6180     -0.00000
    221       5.8779     -0.00000
    222       5.9012     -0.00000
    223       5.9364     -0.00000
    224       5.9558     -0.00000
    225       6.0178     -0.00000
    226       6.1900     -0.00000
    227       6.5671     -0.00000
    228       6.7866      0.00000

 k-point     2 :       0.5000    0.0000    0.0000
  band No.  band energies     occupation 
      1     -22.2196      2.00000
      2     -17.1416      2.00000
      3      -8.6885      2.00000
      4      -7.2411      2.00000
      5      -7.2267      2.00000
      6      -6.1718      2.00000
      7      -6.0772      2.00000
      8      -5.8965      2.00000
      9      -5.8538      2.00000
     10      -5.6992      2.00000
[...]
     83      -2.2606      2.00000
     84      -2.2452      2.00000
     85      -2.2187      2.00000
     86      -2.1947      2.00000
     87      -2.1709      2.00000
     88      -2.1698      2.00000
     89      -2.1521      2.00000
     90      -2.1390      2.00000
     91      -2.1078      2.00000
     92      -2.0886      2.00000
     93      -2.0552      2.00000
     94      -2.0058      2.00000
     95      -1.9690      2.00000
     96      -1.9414      2.00000
     97      -1.9065      2.00000
     98      -1.8700      2.00000
     99      -1.8579      2.00000
    100      -1.8139      2.00000
    101      -1.7788      2.00000
    102      -1.7533      2.00000
    103      -1.7228      2.00000
    104      -1.7148      2.00000
    105      -1.6921      2.00000
    106      -1.6740      2.00000
    107      -1.6605      2.00000
    108      -1.6323      2.00000
    109      -1.5933      2.00000
    110      -1.5503      2.00000
    111      -1.5160      2.00000
    112      -1.4710      2.00000
    113      -1.4316      2.00000
    114      -1.3836      2.00000
    115      -1.3029      2.00000
    116      -1.2759      2.00000
    117      -1.2091      2.00000
    118      -1.1941      2.00000
    119      -1.1278      2.00000
    120      -1.0910      2.00000
    121      -1.0811      2.00000
    122      -1.0342      2.00000
    123      -1.0241      2.00000
    124      -1.0157      2.00000
    125      -0.9689      2.00000
    126      -0.9576      2.00000
    127      -0.9376      2.00000
    128      -0.9314      2.00000
    129      -0.9044      2.00000
    130      -0.8878      2.00000
    131      -0.8514      2.00000
    132      -0.8104      2.00000
    133      -0.7601      2.00000
    134      -0.7358      2.00000
    135      -0.7105      2.00000
    136      -0.6868      2.00000
    137      -0.6765      2.00000
    138      -0.6497      2.00000
    139      -0.5873      2.00000
    140      -0.5560      2.00000
    141      -0.4813      2.00000
    142      -0.4514      2.00000
    143      -0.3922      2.00000
    144      -0.3088      2.00000
    145      -0.2809      2.00000
    146      -0.1763      2.00000
    147      -0.1679      2.00000
    148      -0.1121      2.00000
    149      -0.0948      2.00000
    150      -0.0671      2.00000
    151      -0.0362      2.00000
    152       0.0426      2.00000
    153       0.0531      2.00000
    154       0.0836      2.00000
    155       0.0999      2.00000
    156       0.1101      2.00000
    157       0.1204      2.00000
    158       0.1735      2.00000
    159       0.2068      2.00000
    160       0.2277      2.00000
    161       0.2527      2.00000
    162       0.2967      2.00000
    163       0.3250      2.00000
    164       0.3597      2.00000
    165       0.3725      2.00000
    166       0.4090      2.00001
    167       0.5191      2.00027
    168       0.5888      2.00159
    169       0.6016      2.00214
    170       0.6227      2.00340
    171       0.6476      2.00567
    172       0.6939      2.01327
    173       0.7142      2.01846
    174       0.7904      2.04857
    175       0.7986      2.05233
    176       0.8185      2.06100
    177       0.8563      2.07080
    178       0.8831      2.06624
    179       0.9271      2.01940
    180       0.9303      2.01345
    181       0.9417      1.98868
    182       1.0182      1.66468
    183       1.0504      1.44479
    184       1.0968      1.07094
    185       1.1055      0.99701
    186       1.1095      0.96337
    187       1.1413      0.69928
    188       1.1558      0.58640
    189       1.1689      0.48974
    190       1.1852      0.37926
    191       1.3113     -0.05606
    192       1.3409     -0.07021
    193       1.3730     -0.06748
    194       1.3922     -0.06083
    195       1.4294     -0.04418
    196       1.4979     -0.01795
    197       1.5950     -0.00290
    198       1.7354     -0.00008
    199       1.8300     -0.00000
    200       1.9929     -0.00000
    201       2.2729     -0.00000
    202       2.3391     -0.00000
    203       2.7909     -0.00000
    204       2.9527     -0.00000
    205       2.9644     -0.00000
    206       2.9951     -0.00000
    207       3.0116     -0.00000
    208       3.2220     -0.00000
    209       3.3871     -0.00000
    210       3.5298     -0.00000
    211       3.5683     -0.00000
    212       3.6064     -0.00000
    213       3.7416     -0.00000
    214       3.8152     -0.00000
    215       3.9898     -0.00000
    216       4.1890     -0.00000
    217       4.2294     -0.00000
    218       4.4114     -0.00000
    219       4.4492     -0.00000
    220       4.6201     -0.00000
    221       4.6547     -0.00000
    222       4.8405     -0.00000
    223       5.1564     -0.00000
    224       5.5531     -0.00000
    225       5.9099     -0.00000
    226       6.5466     -0.00000
    227       6.5705      0.00000
    228       6.6056      0.00000


--------------------------------------------------------------------------------------------------------


 soft charge-density along one line, spin component           1
         0         1         2         3         4         5         6         7         8         9
 total charge-density along one line
 
 pseudopotential strength for first ion, spin component:           1
 10.096   0.015   0.004   0.009   0.001  -0.004  -0.008  -0.000
  0.015  -0.002  -0.000  -0.000  -0.000  -0.000  -0.000   0.000
  0.004  -0.000  -4.247  -0.006   0.001  -0.010  -0.002   0.000
  0.009  -0.000  -0.006  -4.262   0.003  -0.002  -0.016   0.000
  0.001  -0.000   0.001   0.003  -4.245   0.000   0.000  -0.009
 -0.004  -0.000  -0.010  -0.002   0.000  -0.770  -0.000   0.000
 -0.008  -0.000  -0.002  -0.016   0.000  -0.000  -0.770   0.000
 -0.000   0.000   0.000   0.000  -0.009   0.000   0.000  -0.770
 total augmentation occupancy for first ion, spin component:           1
  1.635  -0.855   0.009  -0.002  -0.056   0.034   0.080  -0.020
 -0.855   1.187  -0.213  -0.524   0.065  -0.085  -0.221   0.022
  0.009  -0.213   0.852   0.194   0.011   0.115   0.055  -0.003
 -0.002  -0.524   0.194   1.314   0.009   0.055   0.245  -0.005
 -0.056   0.065   0.011   0.009   0.786  -0.003  -0.006   0.097
  0.034  -0.085   0.115   0.055  -0.003   0.020   0.022  -0.002
  0.080  -0.221   0.055   0.245  -0.006   0.022   0.069  -0.004
 -0.020   0.022  -0.003  -0.005   0.097  -0.002  -0.004   0.013


------------------------ aborting loop because EDIFF is reached ----------------------------------------


    CHARGE:  cpu time    0.3644: real time    0.3670
    FORLOC:  cpu time    0.0392: real time    0.0395
    FORNL :  cpu time    2.1052: real time    2.1207
    STRESS:  cpu time    6.6676: real time    6.7160
    FORCOR:  cpu time    0.1524: real time    0.1534
    FORHAR:  cpu time    0.0673: real time    0.0677
    MIXING:  cpu time    0.0045: real time    0.0046
    OFIELD:  cpu time    0.0000: real time    0.0000

  FORCE on cell =-STRESS in cart. coord.  units (eV):
  Direction    XX          YY          ZZ          XY          YZ          ZX
  --------------------------------------------------------------------------------------
  Alpha Z   975.10247   975.10247   975.10247
  Ewald  111229.01246111208.12190************  -185.56810   242.48249   -81.95274
  Hartree117982.47428117937.86787************  -122.47996   100.48759   -52.34102
  E(xc)   -1665.95318 -1665.69296 -1673.31314    -0.44208     0.67877    -0.20376
  Local  ************************239865.52678   298.05873  -319.45699   129.36115
  n-local   124.19579   122.60264    90.28831    -1.27681     1.42025     0.12329
  augment  1895.24312  1893.55097  1932.66069     2.76314    -4.24148     0.81102
  Kinetic  5524.30798  5514.20709  5599.89011     9.37279   -21.39780     5.60292
  Fock        0.00000     0.00000     0.00000     0.00000     0.00000     0.00000
  -------------------------------------------------------------------------------------
  Total     -35.41717   -38.63575    -4.17803     0.42771    -0.02717     1.40087
  in kB     -42.18243   -46.01581    -4.97611     0.50941    -0.03236     1.66846
  external pressure =      -31.06 kB  Pullay stress =        0.00 kB


 VOLUME and BASIS-vectors are now :
 -----------------------------------------------------------------------------
  energy-cutoff  :      450.00
  volume of cell :     1345.22
      direct lattice vectors                 reciprocal lattice vectors
     7.296955120 -4.212899000  0.000000000     0.137043463  0.000000000  0.000000000
     0.000000000  8.425798000  0.000000000     0.068521732  0.118683121  0.000000000
     0.000000000  0.000000000 21.879635000     0.000000000  0.000000000  0.045704602

  length of vectors
     8.425798004  8.425798000 21.879635000     0.137043463  0.137043463  0.045704602


 FORCES acting on ions
    electron-ion (+dipol)            ewald-force                    non-local-force                 convergence-correction
 -----------------------------------------------------------------------------------------------
   0.231E+02 0.211E+02 -.890E+03   -.244E+02 -.255E+02 0.879E+03   0.111E+01 0.381E+01 0.108E+02   -.668E-02 0.415E-02 0.816E-02
   -.842E+02 0.546E+02 -.159E+04   0.861E+02 -.516E+02 0.162E+04   -.127E+01 -.266E+01 -.232E+02   0.134E-01 0.122E-01 0.713E-02
   0.520E+02 -.105E+03 -.155E+04   -.577E+02 0.127E+03 0.161E+04   0.584E+01 -.217E+02 -.573E+02   0.597E-02 -.290E-02 -.872E-02
   -.157E+00 0.334E+00 0.234E+04   0.122E+00 -.351E+00 -.234E+04   0.163E-01 -.425E-01 -.119E+01   0.398E-01 0.201E-01 0.393E-02
   0.415E+00 0.151E+00 0.234E+04   -.436E+00 -.186E+00 -.234E+04   -.168E-01 -.365E-01 -.110E+01   0.572E-02 0.263E-01 0.527E-02
   0.624E-01 0.232E+00 0.234E+04   -.136E+00 -.233E+00 -.234E+04   0.314E-01 -.224E-01 -.113E+01   0.895E-03 0.339E-01 -.223E-02
   -.529E-01 0.339E+00 0.234E+04   0.601E-01 -.277E+00 -.234E+04   0.416E-02 0.225E-01 -.118E+01   -.634E-02 -.329E-01 -.131E-02
   0.257E+00 0.311E+00 0.234E+04   -.246E+00 -.253E+00 -.234E+04   0.109E-01 0.134E-01 -.127E+01   -.289E-01 -.463E-01 -.959E-03
   0.213E+00 0.101E+00 0.234E+04   -.160E+00 -.754E-01 -.234E+04   0.669E-02 0.747E-02 -.122E+01   -.337E-01 -.402E-01 0.282E-03
   -.349E-02 -.577E+00 0.234E+04   0.121E+00 0.430E+00 -.234E+04   -.834E-01 0.949E-01 -.109E+01   -.672E-02 0.200E-01 -.103E-01
   -.286E+00 -.259E+00 0.234E+04   0.289E+00 0.313E+00 -.234E+04   -.514E-02 -.187E-01 -.125E+01   0.776E-03 0.627E-02 -.101E-01
   -.381E+00 -.623E+00 0.234E+04   0.384E+00 0.629E+00 -.234E+04   -.137E-01 0.452E-02 -.102E+01   0.286E-01 0.128E-01 -.336E-02
   -.647E+00 -.551E+01 0.855E+03   0.535E+00 0.552E+01 -.855E+03   0.748E-01 0.166E-01 -.391E+00   0.979E-02 0.344E-01 0.266E-02
   -.704E+00 0.163E+00 0.860E+03   0.607E+00 -.137E+00 -.860E+03   0.754E-01 -.438E-01 -.203E+00   0.345E-02 0.324E-01 0.508E-02
   -.263E+01 -.210E+01 0.858E+03   0.272E+01 0.197E+01 -.857E+03   -.196E-02 0.829E-01 -.272E+00   0.340E-01 0.161E-01 0.116E-01
   0.304E+01 0.285E+01 0.859E+03   -.307E+01 -.293E+01 -.859E+03   -.505E-01 0.571E-01 -.238E+00   0.116E-01 -.112E-01 -.201E-01
   0.226E+01 0.299E+01 0.861E+03   -.234E+01 -.299E+01 -.861E+03   0.716E-01 -.738E-01 -.282E+00   -.158E-01 0.141E-01 -.587E-02
   -.154E+01 0.253E+01 0.861E+03   0.150E+01 -.256E+01 -.861E+03   0.578E-01 0.308E-01 -.255E+00   0.851E-02 0.425E-02 -.125E-01
   -.733E-01 0.234E+01 0.864E+03   0.133E+00 -.220E+01 -.863E+03   -.778E-01 -.146E+00 -.374E+00   -.195E-01 -.238E-01 -.169E-02
   0.217E-01 -.136E+01 0.863E+03   0.144E-01 0.144E+01 -.863E+03   0.149E-01 -.233E-01 -.421E+00   -.221E-01 -.458E-01 0.149E-01
   0.540E+00 -.134E+00 0.865E+03   -.468E+00 0.327E+00 -.865E+03   -.346E-01 -.116E+00 -.420E+00   -.101E-01 -.202E-01 0.215E-01
   -.181E+01 0.291E+01 -.646E+03   0.175E+01 -.290E+01 0.645E+03   0.198E-01 -.861E-01 0.273E+00   0.754E-02 -.174E-01 0.829E-02
   -.306E+01 -.134E+01 -.636E+03   0.300E+01 0.139E+01 0.636E+03   0.181E+00 0.585E-01 0.283E+00   -.543E-02 -.215E-01 0.351E-01
   -.458E+00 0.468E+01 -.641E+03   0.186E+00 -.429E+01 0.641E+03   0.236E+00 -.482E+00 0.242E+00   0.175E-01 0.371E-02 0.609E-02
   -.351E+01 0.131E+02 -.644E+03   0.304E+01 -.124E+02 0.645E+03   0.391E+00 -.786E+00 -.795E+00   0.226E-01 0.498E-02 0.293E-01
   0.110E+02 -.956E+00 -.635E+03   -.103E+02 0.788E+00 0.635E+03   -.707E+00 0.260E+00 -.555E-01   -.137E-01 0.234E-01 0.137E-01
   -.586E+01 -.117E+02 -.622E+03   0.575E+01 0.115E+02 0.622E+03   0.142E+00 0.176E+00 0.630E+00   -.147E-01 0.239E-01 -.260E-01
   -.247E+01 -.637E+01 -.628E+03   0.251E+01 0.639E+01 0.628E+03   -.467E-01 0.672E-01 0.393E+00   0.430E-03 -.264E-01 0.201E-01
   0.290E+01 0.246E+00 -.625E+03   -.291E+01 -.260E+00 0.625E+03   -.190E-01 0.299E-01 0.537E+00   0.569E-02 -.186E-01 -.122E-01
   0.138E+01 0.131E+01 -.634E+03   -.139E+01 -.155E+01 0.634E+03   0.222E-01 0.197E+00 0.380E+00   -.194E-01 0.269E-01 -.186E-01
   -.245E+02 -.126E+02 -.218E+04   0.251E+02 0.127E+02 0.217E+04   -.665E+00 -.115E-02 0.124E+01   0.172E-01 -.283E-01 0.153E-01
   0.132E+02 0.288E+02 -.213E+04   -.136E+02 -.294E+02 0.213E+04   0.413E+00 0.535E+00 0.156E+01   0.934E-03 -.118E-01 -.242E-01
   0.414E+02 -.458E+01 -.213E+04   -.416E+02 0.463E+01 0.213E+04   -.483E-01 -.357E-01 0.117E+01   0.153E-01 0.156E-01 -.130E-01
   -.324E+01 -.108E+02 -.217E+04   0.318E+01 0.103E+02 0.217E+04   0.103E-01 0.707E+00 0.109E+01   0.690E-02 -.911E-02 -.169E-01
   0.831E+01 0.117E+02 -.217E+04   -.847E+01 -.121E+02 0.217E+04   0.288E+00 0.373E+00 0.984E+00   -.129E-01 0.819E-02 -.271E-02
   0.705E+02 0.663E+02 -.198E+04   -.735E+02 -.645E+02 0.198E+04   0.272E+01 -.181E+01 -.365E+01   0.122E-01 0.857E-02 0.194E-01
   -.541E+02 -.561E+02 -.209E+04   0.556E+02 0.586E+02 0.208E+04   -.159E+01 -.268E+01 0.205E+01   0.230E-02 0.162E-01 0.181E-01
   -.562E+02 0.979E+02 -.203E+04   0.566E+02 -.988E+02 0.203E+04   -.429E+00 0.728E+00 -.460E+00   0.125E-01 0.121E-02 -.555E-01
   0.860E+01 -.704E+02 -.211E+04   -.856E+01 0.715E+02 0.211E+04   0.550E-01 -.914E+00 0.124E+01   -.253E-01 -.127E-01 0.435E-02
 -----------------------------------------------------------------------------------------------
   -.669E+01 0.245E+02 0.759E+02   0.497E-13 -.142E-13 -.318E-11   0.673E+01 -.244E+02 -.759E+02   0.423E-01 0.422E-03 0.409E-02
 
 
 POSITION                                       TOTAL-FORCE (eV/Angst)
 -----------------------------------------------------------------------------------
      5.05235      0.62426     10.38350        -0.210833     -0.597202      0.187626
      6.65667     -0.50795     10.13207         0.652305      0.402611      0.059267
      4.94898      1.03718     11.46722         0.184149     -0.030641     -0.142281
      7.20031     -1.38846      1.62732         0.019290     -0.042854      0.149657
      2.33567      1.42014      1.62732        -0.033356     -0.048555      0.147141
      4.76799      0.01584      1.62732        -0.043446      0.007175      0.125477
      7.20031      1.42015      1.62732         0.003055      0.048347      0.132660
      2.33567      4.22875      1.62732        -0.009188      0.021421      0.147382
      4.76799      2.82445      1.62732         0.023981     -0.010564      0.137788
      2.33567      7.03734      1.62732         0.025718     -0.035367      0.042324
      4.76799      5.63304      1.62732        -0.003290      0.038096      0.119052
      7.20031      4.22874      1.62732         0.015518      0.019351      0.053054
      1.52490      0.01584      3.92052        -0.029725      0.048438     -0.069385
      3.95722     -1.38846      3.92052        -0.020484      0.011386     -0.053758
      6.38953     -2.79276      3.92052         0.117970     -0.029550     -0.080125
      1.52490      2.82445      3.92052        -0.072557     -0.035698     -0.025803
      3.95722      1.42015      3.92052        -0.021638     -0.067990     -0.058968
      6.38953      0.01585      3.92052         0.024303     -0.002519      0.047809
      1.52490      5.63305      3.92052        -0.039689     -0.032293     -0.135197
      3.95722      4.22874      3.92052         0.026835      0.008686     -0.141080
      6.38953      2.82445      3.92052         0.025664      0.053549     -0.274482
      0.71469      4.21672      6.22173        -0.036520     -0.106239     -0.147508
      3.12826      5.60803      6.19364         0.114955      0.080102     -0.108054
      5.56943     -1.37457      6.20809        -0.019625     -0.091973      0.119462
      0.69704      1.43835      6.23001        -0.054949      0.003794     -0.137656
      3.15777     -0.01894      6.21066        -0.035650      0.112703     -0.078153
      0.70508      7.01712      6.17274         0.010433     -0.044341      0.227826
      5.58165      4.21431      6.18204        -0.013185      0.053677     -0.039966
      3.14960      2.80589      6.18135        -0.021198     -0.006456      0.110152
      5.58345      1.40341      6.20297        -0.010164     -0.021309      0.036543
      2.37644      4.18570      8.50276        -0.058343      0.116924     -0.230159
      4.75890      5.60483      8.42928        -0.020639      0.002063      0.120382
      2.34445      1.38619      8.46771        -0.220661      0.019784     -0.042090
      7.21071      4.16075      8.48244        -0.048108      0.207167      0.051355
      2.31801      6.99088      8.49146         0.108276     -0.009154     -0.002363
      4.66201      0.05021      8.62243        -0.283206      0.031043     -0.278515
      7.26391      1.42967      8.51297        -0.084908     -0.133644     -0.141273
      7.24218     -1.49152      8.54591        -0.033462     -0.112262      0.346113
      4.78042      2.83062      8.48196         0.072373      0.172299     -0.174255
 -----------------------------------------------------------------------------------
    total drift:                                0.076636      0.130324      0.042206
  FORCES: max atom, RMS     0.768837    0.219825
  Number: max atom                 2
  FORCE total and by dimension    1.372809    0.652305


--------------------------------------------------------------------------------------------------------



  FREE ENERGIE OF THE ION-ELECTRON SYSTEM (eV)
  ---------------------------------------------------
  free  energy   TOTEN  =      -230.70267439 eV

  energy  without entropy=     -230.68179045  energy(sigma->0) =     -230.69571308
 
 d Force = 0.5498358E-01[ 0.494E-01, 0.606E-01]  d Energy = 0.5532779E-01-0.344E-03
 d Force =-0.1224862E+02[-0.122E+02,-0.123E+02]  d Ewald  =-0.1224895E+02 0.337E-03


--------------------------------------------------------------------------------------------------------


    POTLOK:  cpu time    0.1337: real time    0.3350


--------------------------------------------------------------------------------------------------------


 stress matrix after NEB project (eV)
    -35.41717      0.42771      1.40087
      0.42771    -38.63575     -0.02717
      1.40087     -0.02717     -4.17803
  FORCES: max atom, RMS     0.768837    0.219825
  FORCE total and by dimension    1.372809    0.652305
  Stress total and by dimension   52.619815   38.635748
 Quasi-Newton relaxation of ions (Broydens 2nd method)
  g(Force)  = 0.364E-01   g(Stress)= 0.000E+00

 retain information from N=  3 steps
 eigenvalues of (default step * inverse Hessian matrix)
  average eigenvalue of G=   2.6140
 eigenvalue spectrum of G is  0.4289  3.7066  3.7066
  RESET_HESSIAN           0


--------------------------------------------------------------------------------------------------------


    WAVPRE:  cpu time    0.0796: real time    0.4781
    FEWALD:  cpu time    0.0015: real time    0.0015

 real space projection operators:
  total allocation   :      13540.69 KBytes
  max/ min on nodes  :       6777.09       6763.59

    ORTHCH:  cpu time    1.0944: real time    1.1021
     LOOP+:  cpu time   65.7641: real time   67.2512
