 running on    8 total cores
 distrk:  each k-point on    8 cores,    1 groups
 distr:  one band on    2 cores,    4 groups
 using from now: INCAR     
 vasp.5.4.4 16052018 (build Apr 24 2014 20:13:14) complex standard
 Contain Constrained Minimization Technique (TS), Periodic NBO, VASPsol, libbeef, VASP2WANNIER90, Constrained Cell Relaxation
 POSCAR found type information on POSCAR  C  O  Pt
 POSCAR found :  3 types and      39 ions
 scaLAPACK will be used
 LDA part: xc-table for Pade appr. of Perdew
 POSCAR found type information on POSCAR  C  O  Pt
 POSCAR found :  3 types and      39 ions
 POSCAR, INCAR and KPOINTS ok, starting setup
 FFT: planning ...
 WAVECAR not read
 entering main loop
       N       E                     dE             d eps       ncg     rms          rms(c)
DAV:   1     0.242424122575E+04    0.24242E+04   -0.15952E+05  1824   0.129E+03
DAV:   2    -0.648895107250E+02   -0.24891E+04   -0.23137E+04  2136   0.286E+02
DAV:   3    -0.240391743017E+03   -0.17550E+03   -0.15910E+03  2136   0.689E+01
DAV:   4    -0.247897016587E+03   -0.75053E+01   -0.72499E+01  2312   0.137E+01
DAV:   5    -0.248125192685E+03   -0.22818E+00   -0.22655E+00  2392   0.243E+00    0.273E+01
RMM:   6    -0.245915142749E+03    0.22100E+01   -0.54979E+01  1828   0.149E+01    0.296E+01
RMM:   7    -0.246526808808E+03   -0.61167E+00   -0.31874E+01  1828   0.893E+00    0.224E+01
RMM:   8    -0.243471654665E+03    0.30552E+01   -0.10658E+01  1826   0.491E+00    0.230E+01
RMM:   9    -0.231868316798E+03    0.11603E+02   -0.65194E+00  1831   0.422E+00    0.935E+00
RMM:  10    -0.230515636848E+03    0.13527E+01   -0.20492E+00  1831   0.235E+00    0.532E+00
RMM:  11    -0.230220782887E+03    0.29485E+00   -0.51943E-01  1831   0.113E+00    0.339E+00
RMM:  12    -0.230039291058E+03    0.18149E+00   -0.22045E-01  1842   0.747E-01    0.174E+00
RMM:  13    -0.230046717954E+03   -0.74269E-02   -0.10206E-01  1834   0.527E-01    0.185E+00
RMM:  14    -0.230012787898E+03    0.33930E-01   -0.83465E-02  1831   0.491E-01    0.107E+00
RMM:  15    -0.230004832494E+03    0.79554E-02   -0.30758E-02  1831   0.302E-01    0.764E-01
RMM:  16    -0.229995824774E+03    0.90077E-02   -0.79203E-03  1827   0.154E-01    0.216E-01
RMM:  17    -0.229995399457E+03    0.42532E-03   -0.16047E-03  1817   0.677E-02    0.140E-01
RMM:  18    -0.229995639059E+03   -0.23960E-03   -0.90928E-04  1799   0.498E-02    0.133E-01
RMM:  19    -0.229995514912E+03    0.12415E-03   -0.39502E-04  1320   0.349E-02    0.544E-02
RMM:  20    -0.229995606291E+03   -0.91379E-04   -0.10306E-04  1004   0.184E-02
   1 F= -.22999561E+03 E0= -.22999055E+03  d E =-.229996E+03
 BRION: g(F)=  0.377E+00 g(S)=  0.000E+00
 bond charge predicted
       N       E                     dE             d eps       ncg     rms          rms(c)
DAV:   1    -0.230246865167E+03   -0.25135E+00   -0.37099E+01  1856   0.111E+01    0.762E-01
RMM:   2    -0.230352953877E+03   -0.10609E+00   -0.63580E-01  1833   0.171E+00    0.185E+00
RMM:   3    -0.230311272199E+03    0.41682E-01   -0.47160E-02  1869   0.379E-01    0.967E-01
RMM:   4    -0.230299029257E+03    0.12243E-01   -0.14822E-02  1835   0.208E-01    0.525E-01
RMM:   5    -0.230295946898E+03    0.30824E-02   -0.49308E-03  1831   0.119E-01    0.338E-01
RMM:   6    -0.230296515497E+03   -0.56860E-03   -0.70430E-03  1830   0.142E-01    0.382E-01
RMM:   7    -0.230295136964E+03    0.13785E-02   -0.44485E-03  1831   0.113E-01    0.198E-01
RMM:   8    -0.230294598481E+03    0.53848E-03   -0.10875E-03  1820   0.568E-02    0.104E-01
RMM:   9    -0.230294544847E+03    0.53634E-04   -0.25002E-04  1061   0.286E-02
   2 F= -.23029454E+03 E0= -.23028876E+03  d E =-.298939E+00
 BRION: g(F)=  0.262E+00 g(S)=  0.000E+00 retain N=  1 mean eig= 1.27
 eig:   1.274
 bond charge predicted
       N       E                     dE             d eps       ncg     rms          rms(c)
DAV:   1    -0.230356674483E+03   -0.62076E-01   -0.16606E+01  1840   0.781E+00    0.635E-01
RMM:   2    -0.230416969534E+03   -0.60295E-01   -0.56545E-01  1846   0.127E+00    0.912E-01
RMM:   3    -0.230409381495E+03    0.75880E-02   -0.21894E-02  1868   0.250E-01    0.801E-01
RMM:   4    -0.230401298311E+03    0.80832E-02   -0.58527E-03  1838   0.129E-01    0.442E-01
RMM:   5    -0.230399993596E+03    0.13047E-02   -0.69215E-03  1832   0.136E-01    0.413E-01
RMM:   6    -0.230399100543E+03    0.89305E-03   -0.70574E-03  1830   0.138E-01    0.384E-01
RMM:   7    -0.230397117002E+03    0.19835E-02   -0.26521E-03  1828   0.870E-02    0.133E-01
RMM:   8    -0.230396925722E+03    0.19128E-03   -0.53746E-04  1465   0.402E-02    0.884E-02
RMM:   9    -0.230396833276E+03    0.92446E-04   -0.15369E-04  1010   0.238E-02
   3 F= -.23039683E+03 E0= -.23039070E+03  d E =-.102288E+00
 BRION: g(F)=  0.459E+00 g(S)=  0.000E+00 retain N=  2 mean eig= 0.64
 eig:   0.643  0.643
 bond charge predicted
       N       E                     dE             d eps       ncg     rms          rms(c)
DAV:   1    -0.230539178966E+03   -0.14225E+00   -0.77285E+01  1824   0.164E+01    0.114E+00
RMM:   2    -0.230697436973E+03   -0.15826E+00   -0.13961E+00  1834   0.249E+00    0.163E+00
RMM:   3    -0.230698157240E+03   -0.72027E-03   -0.91486E-02  1873   0.532E-01    0.173E+00
RMM:   4    -0.230659676153E+03    0.38481E-01   -0.27797E-02  1838   0.281E-01    0.844E-01
RMM:   5    -0.230650843980E+03    0.88322E-02   -0.12640E-02  1834   0.192E-01    0.491E-01
RMM:   6    -0.230652975144E+03   -0.21312E-02   -0.15182E-02  1831   0.207E-01    0.603E-01
RMM:   7    -0.230648488869E+03    0.44863E-02   -0.90291E-03  1831   0.162E-01    0.251E-01
RMM:   8    -0.230647600022E+03    0.88885E-03   -0.20607E-03  1825   0.785E-02    0.139E-01
RMM:   9    -0.230647428101E+03    0.17192E-03   -0.48675E-04  1470   0.383E-02    0.934E-02
RMM:  10    -0.230647322475E+03    0.10563E-03   -0.18615E-04   990   0.257E-02    0.407E-02
RMM:  11    -0.230647346596E+03   -0.24122E-04   -0.13301E-04   968   0.214E-02
   4 F= -.23064735E+03 E0= -.23064029E+03  d E =-.250513E+00
 BRION: g(F)=  0.659E-01 g(S)=  0.000E+00 retain N=  2 mean eig= 1.03
 eig:   1.025  1.025
 bond charge predicted
       N       E                     dE             d eps       ncg     rms          rms(c)
DAV:   1    -0.230691025099E+03   -0.43703E-01   -0.65471E+00  1828   0.506E+00    0.383E-01
RMM:   2    -0.230705597267E+03   -0.14572E-01   -0.13846E-01  1835   0.725E-01    0.405E-01
RMM:   3    -0.230708462591E+03   -0.28653E-02   -0.89454E-03  1859   0.167E-01    0.618E-01
RMM:   4    -0.230704143846E+03    0.43187E-02   -0.22984E-03  1842   0.795E-02    0.307E-01
RMM:   5    -0.230702882458E+03    0.12614E-02   -0.11283E-03  1820   0.572E-02    0.146E-01
RMM:   6    -0.230702884069E+03   -0.16107E-05   -0.88990E-04  1778   0.496E-02    0.136E-01
RMM:   7    -0.230702801548E+03    0.82521E-04   -0.70509E-04  1720   0.458E-02    0.916E-02
RMM:   8    -0.230702689307E+03    0.11224E-03   -0.20459E-04  1018   0.266E-02    0.397E-02
RMM:   9    -0.230702674391E+03    0.14916E-04   -0.49265E-05   953   0.138E-02
   5 F= -.23070267E+03 E0= -.23069571E+03  d E =-.553278E-01
 BRION: g(F)=  0.364E-01 g(S)=  0.000E+00 retain N=  3 mean eig= 2.61
 eig:   0.429  3.707  3.707
 bond charge predicted
       N       E                     dE             d eps       ncg     rms          rms(c)
[mpiexec@node06] Sending Ctrl-C to processes as requested
[mpiexec@node06] Press Ctrl-C again to force abort
