<?xml version="1.0" encoding="ISO-8859-1"?>
<modeling>
 <generator>
  <i name="program" type="string"> vasp </i>
  <i name="version" type="string">5.4.4  </i>
  <i name="subversion" type="string">16052018 (build Apr 24 2014 20:13:14) complex standard parallel Constrained Minimization Technique (TS), Periodic NBO, VASPsol, libbeef, VASP2WANNIER90, Constrained Cell Relaxation </i>
  <i name="platform" type="string">Center for Computational Chemistry </i>
  <i name="user" type="string">phu </i>
  <i name="host" type="string">node06 </i>
  <i name="date" type="string">2025 09 27 </i>
  <i name="time" type="string">23:44:48 </i>
 </generator>
 <incar>
  <i type="string" name="SYSTEM"> metal</i>
  <i type="int" name="ISTART">     0</i>
  <i type="string" name="PREC">normal</i>
  <i type="string" name="ALGO">Fast</i>
  <i type="int" name="NSIM">     4</i>
  <i type="int" name="ISPIN">     1</i>
  <i type="int" name="NELMIN">     8</i>
  <i type="int" name="IBRION">     1</i>
  <i name="EDIFFG">     -0.05000000</i>
  <i type="int" name="NSW">  5000</i>
  <i type="int" name="ISIF">     2</i>
  <i type="int" name="ISYM">     0</i>
  <i name="ENCUT">    450.00000000</i>
  <i name="POTIM">      0.20000000</i>
  <i type="string" name="LREAL">A</i>
  <i type="int" name="ISMEAR">     1</i>
  <i name="SIGMA">      0.20000000</i>
  <i type="logical" name="LWAVE"> F  </i>
  <i type="logical" name="LCHARG"> F  </i>
  <v type="int" name="KPOINT_BSE">    -1     0     0     0</v>
  <i type="int" name="VOSKOWN">     0</i>
 </incar>
 <structure name="primitive_cell" >
  <crystal>
   <varray name="basis" >
    <v>       7.29695512      -4.21289900       0.00000000 </v>
    <v>       0.00000000       8.42579800       0.00000000 </v>
    <v>       0.00000000       0.00000000      21.87963500 </v>
   </varray>
   <i name="volume">   1345.21837528 </i>
   <varray name="rec_basis" >
    <v>       0.13704346       0.00000000       0.00000000 </v>
    <v>       0.06852173       0.11868312       0.00000000 </v>
    <v>       0.00000000       0.00000000       0.04570460 </v>
   </varray>
  </crystal>
  <varray name="positions" >
   <v>      -0.29929048       0.43314041       0.47571983 </v>
   <v>      -0.32742703       0.45999629      -0.47439164 </v>
   <v>      -0.09611743       0.38668900       0.46088752 </v>
   <v>      -0.35650735       0.32229572       0.39294417 </v>
   <v>      -0.34842748      -0.34133862       0.38806752 </v>
   <v>      -0.00338687      -0.33232527       0.39091759 </v>
   <v>       0.32439459       0.32581058       0.38553137 </v>
   <v>      -0.01060508       0.32109839       0.38798664 </v>
   <v>       0.31897683      -0.01021073       0.38758868 </v>
   <v>      -0.34913723      -0.00535374       0.38222900 </v>
   <v>      -0.23855100      -0.44718406       0.28279153 </v>
   <v>      -0.00975633      -0.01293697       0.38734153 </v>
   <v>       0.43022584       0.21305435       0.28638178 </v>
   <v>      -0.23567035       0.21736376       0.28584638 </v>
   <v>       0.32700651      -0.34070898       0.38989714 </v>
   <v>       0.09725662      -0.45400573       0.28622245 </v>
   <v>       0.43456212      -0.45360236       0.28160877 </v>
   <v>      -0.23494599      -0.12108286       0.28328939 </v>
   <v>       0.09375648      -0.11571811       0.27802660 </v>
   <v>       0.43149263      -0.11855863       0.28660059 </v>
   <v>       0.09900776       0.22145335       0.28821940 </v>
   <v>      -0.45768900       0.43970300       0.17918600 </v>
   <v>      -0.12435600       0.43970300       0.17918600 </v>
   <v>      -0.45768900       0.10636900       0.17918600 </v>
   <v>      -0.12435600      -0.22696400       0.17918600 </v>
   <v>       0.20897700       0.10636900       0.17918600 </v>
   <v>      -0.45768900      -0.22696400       0.17918600 </v>
   <v>      -0.12435600       0.10636900       0.17918600 </v>
   <v>       0.20897700      -0.22696400       0.17918600 </v>
   <v>       0.20897700       0.43970300       0.17918600 </v>
   <v>      -0.34657800       0.32859100       0.07437600 </v>
   <v>      -0.34657800      -0.33807500       0.07437600 </v>
   <v>      -0.01324500      -0.33807500       0.07437600 </v>
   <v>       0.32008800       0.32859100       0.07437600 </v>
   <v>      -0.01324500       0.32859100       0.07437600 </v>
   <v>       0.32008800      -0.00474200       0.07437600 </v>
   <v>      -0.34657800      -0.00474200       0.07437600 </v>
   <v>      -0.01324500      -0.00474200       0.07437600 </v>
   <v>       0.32008800      -0.33807500       0.07437600 </v>
  </varray>
 </structure>
 <varray name="primitive_index" >
  <v type="int" >        1 </v>
  <v type="int" >        3 </v>
  <v type="int" >        2 </v>
  <v type="int" >       36 </v>
  <v type="int" >       39 </v>
  <v type="int" >       37 </v>
  <v type="int" >       33 </v>
  <v type="int" >       38 </v>
  <v type="int" >       35 </v>
  <v type="int" >       32 </v>
  <v type="int" >       30 </v>
  <v type="int" >       34 </v>
  <v type="int" >       26 </v>
  <v type="int" >       24 </v>
  <v type="int" >       31 </v>
  <v type="int" >       22 </v>
  <v type="int" >       29 </v>
  <v type="int" >       28 </v>
  <v type="int" >       27 </v>
  <v type="int" >       23 </v>
  <v type="int" >       25 </v>
  <v type="int" >       17 </v>
  <v type="int" >       18 </v>
  <v type="int" >       14 </v>
  <v type="int" >       21 </v>
  <v type="int" >       13 </v>
  <v type="int" >       20 </v>
  <v type="int" >       15 </v>
  <v type="int" >       19 </v>
  <v type="int" >       16 </v>
  <v type="int" >        6 </v>
  <v type="int" >        9 </v>
  <v type="int" >        7 </v>
  <v type="int" >        5 </v>
  <v type="int" >        4 </v>
  <v type="int" >       10 </v>
  <v type="int" >       11 </v>
  <v type="int" >       12 </v>
  <v type="int" >        8 </v>
 </varray>
 <kpoints>
  <generation param="Gamma">
   <v type="int" name="divisions">       2        2        1 </v>
   <v name="usershift">      0.00000000       0.00000000       0.00000000 </v>
   <v name="genvec1">      0.50000000       0.00000000       0.00000000 </v>
   <v name="genvec2">     -0.00000000       0.50000000       0.00000000 </v>
   <v name="genvec3">      0.00000000       0.00000000       1.00000000 </v>
   <v name="shift">      0.00000000       0.00000000       0.00000000 </v>
  </generation>
  <varray name="kpointlist" >
   <v>       0.00000000       0.00000000       0.00000000 </v>
   <v>       0.50000000       0.00000000       0.00000000 </v>
   <v>      -0.00000000       0.50000000       0.00000000 </v>
   <v>       0.50000000       0.50000000       0.00000000 </v>
  </varray>
  <varray name="weights" >
   <v>       0.25000000 </v>
   <v>       0.25000000 </v>
   <v>       0.25000000 </v>
   <v>       0.25000000 </v>
  </varray>
 </kpoints>
 <parameters>
  <separator name="general" >
   <i type="string" name="SYSTEM">metal</i>
   <i type="logical" name="LCOMPAT"> F  </i>
  </separator>
  <separator name="electronic" >
   <i type="string" name="PREC">normal</i>
   <i name="ENMAX">    450.00000000</i>
   <i name="ENAUG">    644.87300000</i>
   <i name="EDIFF">      0.00010000</i>
   <i type="int" name="IALGO">    68</i>
   <i type="int" name="IWAVPR">    11</i>
   <i type="int" name="NBANDS">   228</i>
   <i name="NELECT">    376.00000000</i>
   <i type="int" name="TURBO">     0</i>
   <i type="int" name="IRESTART">     0</i>
   <i type="int" name="NREBOOT">     0</i>
   <i type="int" name="NMIN">     0</i>
   <i name="EREF">      0.00000000</i>
   <separator name="electronic smearing" >
    <i type="int" name="ISMEAR">     1</i>
    <i name="SIGMA">      0.20000000</i>
    <i name="KSPACING">      0.50000000</i>
    <i type="logical" name="KGAMMA"> T  </i>
   </separator>
   <separator name="electronic projectors" >
    <i type="logical" name="LREAL"> T  </i>
    <v name="ROPT">     -0.00050000     -0.00050000     -0.00050000</v>
    <i type="int" name="LMAXPAW">  -100</i>
    <i type="int" name="LMAXMIX">     2</i>
    <i type="logical" name="NLSPLINE"> F  </i>
   </separator>
   <separator name="electronic startup" >
    <i type="int" name="ISTART">     0</i>
    <i type="int" name="ICHARG">     2</i>
    <i type="int" name="INIWAV">     1</i>
   </separator>
   <separator name="electronic spin" >
    <i type="int" name="ISPIN">     1</i>
    <i type="logical" name="LNONCOLLINEAR"> F  </i>
    <v name="MAGMOM">      1.00000000      1.00000000      1.00000000      1.00000000      1.00000000      1.00000000      1.00000000      1.00000000      1.00000000      1.00000000      1.00000000      1.00000000      1.00000000      1.00000000      1.00000000      1.00000000      1.00000000      1.00000000      1.00000000      1.00000000
      1.00000000      1.00000000      1.00000000      1.00000000      1.00000000      1.00000000      1.00000000      1.00000000      1.00000000      1.00000000      1.00000000      1.00000000      1.00000000      1.00000000      1.00000000      1.00000000      1.00000000      1.00000000      1.00000000</v>
    <i name="NUPDOWN">     -1.00000000</i>
    <i type="logical" name="LSORBIT"> F  </i>
    <v name="SAXIS">      0.00000000      0.00000000      1.00000000</v>
    <i type="logical" name="LSPIRAL"> F  </i>
    <v name="QSPIRAL">      0.00000000      0.00000000      0.00000000</v>
    <i type="logical" name="LZEROZ"> F  </i>
   </separator>
   <separator name="electronic exchange-correlation" >
    <i type="logical" name="LASPH"> F  </i>
    <i type="logical" name="LMETAGGA"> F  </i>
   </separator>
   <separator name="electronic convergence" >
    <i type="int" name="NELM">    60</i>
    <i type="int" name="NELMDL">    -5</i>
    <i type="int" name="NELMIN">     8</i>
    <i name="ENINI">    450.00000000</i>
    <separator name="electronic convergence detail" >
     <i type="logical" name="LDIAG"> T  </i>
     <i type="logical" name="LSUBROT"> F  </i>
     <i name="WEIMIN">      0.00100000</i>
     <i name="EBREAK">      0.00000011</i>
     <i name="DEPER">      0.30000000</i>
     <i type="int" name="NRMM">     4</i>
     <i name="TIME">      0.40000000</i>
    </separator>
   </separator>
   <separator name="electronic mixer" >
    <i name="AMIX">      0.40000000</i>
    <i name="BMIX">      1.00000000</i>
    <i name="AMIN">      0.10000000</i>
    <i name="AMIX_MAG">      1.60000000</i>
    <i name="BMIX_MAG">      1.00000000</i>
    <separator name="electronic mixer details" >
     <i type="int" name="IMIX">     4</i>
     <i type="logical" name="MIXFIRST"> F  </i>
     <i type="int" name="MAXMIX">   -45</i>
     <i name="WC">    100.00000000</i>
     <i type="int" name="INIMIX">     1</i>
     <i type="int" name="MIXPRE">     1</i>
     <i type="int" name="MREMOVE">     5</i>
    </separator>
   </separator>
   <separator name="electronic dipolcorrection" >
    <i type="logical" name="LDIPOL"> F  </i>
    <i type="logical" name="LMONO"> F  </i>
    <i type="int" name="IDIPOL">     0</i>
    <i name="EPSILON">      1.00000000</i>
    <v name="DIPOL">   -100.00000000   -100.00000000   -100.00000000</v>
    <i name="EFIELD">      0.00000000</i>
   </separator>
  </separator>
  <separator name="grids" >
   <i type="int" name="NGX">    48</i>
   <i type="int" name="NGY">    48</i>
   <i type="int" name="NGZ">   120</i>
   <i type="int" name="NGXF">    96</i>
   <i type="int" name="NGYF">    96</i>
   <i type="int" name="NGZF">   240</i>
   <i type="logical" name="ADDGRID"> F  </i>
  </separator>
  <separator name="ionic" >
   <i type="int" name="NSW">  5000</i>
   <i type="int" name="IBRION">     1</i>
   <i type="int" name="MDALGO">     0</i>
   <i type="int" name="ISIF">     2</i>
   <i name="PSTRESS">      0.00000000</i>
   <i name="EDIFFG">     -0.05000000</i>
   <i type="int" name="NFREE">     0</i>
   <i name="POTIM">      0.20000000</i>
   <i name="SMASS">     -3.00000000</i>
   <i name="SCALEE">      1.00000000</i>
  </separator>
  <separator name="ionic md" >
   <i name="TEBEG">      0.00010000</i>
   <i name="TEEND">      0.00010000</i>
   <i type="int" name="NBLOCK">     1</i>
   <i type="int" name="KBLOCK">  5000</i>
   <i type="int" name="NPACO">   256</i>
   <i name="APACO">     16.00000000</i>
  </separator>
  <separator name="symmetry" >
   <i type="int" name="ISYM">     0</i>
   <i name="SYMPREC">      0.00001000</i>
  </separator>
  <separator name="dos" >
   <i type="int" name="LORBIT">     0</i>
   <v name="RWIGS">     -1.00000000     -1.00000000     -1.00000000</v>
   <i type="int" name="NEDOS">   301</i>
   <i name="EMIN">     10.00000000</i>
   <i name="EMAX">    -10.00000000</i>
   <i name="EFERMI">      0.00000000</i>
  </separator>
  <separator name="writing" >
   <i type="int" name="NWRITE">     2</i>
   <i type="logical" name="LWAVE"> F  </i>
   <i type="logical" name="LDOWNSAMPLE"> F  </i>
   <i type="logical" name="LCHARG"> F  </i>
   <i type="logical" name="LPARD"> F  </i>
   <i type="logical" name="LVTOT"> F  </i>
   <i type="logical" name="LVHAR"> F  </i>
   <i type="logical" name="LELF"> F  </i>
   <i type="logical" name="LOPTICS"> F  </i>
   <v name="STM">      0.00000000      0.00000000      0.00000000      0.00000000      0.00000000      0.00000000      0.00000000</v>
  </separator>
  <separator name="performance" >
   <i type="int" name="NPAR">     4</i>
   <i type="int" name="NSIM">     4</i>
   <i type="int" name="NBLK">    -1</i>
   <i type="logical" name="LPLANE"> T  </i>
   <i type="logical" name="LSCALAPACK"> T  </i>
   <i type="logical" name="LSCAAWARE"> F  </i>
   <i type="logical" name="LSCALU"> F  </i>
   <i type="logical" name="LASYNC"> F  </i>
   <i type="logical" name="LORBITALREAL"> F  </i>
  </separator>
  <separator name="miscellaneous" >
   <i type="int" name="IDIOT">     3</i>
   <i type="int" name="ISPECIAL">     0</i>
   <i type="logical" name="LMUSIC"> F  </i>
   <v name="POMASS">     12.01100000     16.00000000    195.08000000</v>
   <v name="DARWINR">      0.00000000      0.00000000      0.00000000</v>
   <v name="DARWINV">      1.00000000      1.00000000      1.00000000</v>
   <i type="logical" name="LCORR"> T  </i>
  </separator>
  <i type="logical" name="GGA_COMPAT"> T  </i>
  <i type="logical" name="LBERRY"> F  </i>
  <i type="int" name="ICORELEVEL">     0</i>
  <i type="logical" name="LDAU"> F  </i>
  <i type="int" name="I_CONSTRAINED_M">     0</i>
  <separator name="electronic exchange-correlation" >
   <i type="string" name="GGA">--</i>
   <i type="int" name="VOSKOWN">     0</i>
   <i type="logical" name="LHFCALC"> F  </i>
   <i type="string" name="PRECFOCK"></i>
   <i type="logical" name="LSYMGRAD"> F  </i>
   <i type="logical" name="LHFONE"> F  </i>
   <i type="logical" name="LRHFCALC"> F  </i>
   <i type="logical" name="LTHOMAS"> F  </i>
   <i type="logical" name="LMODELHF"> F  </i>
   <i name="ENCUT4O">     -1.00000000</i>
   <i type="int" name="EXXOEP">     0</i>
   <i type="int" name="FOURORBIT">     0</i>
   <i name="AEXX">      0.00000000</i>
   <i name="HFALPHA">      0.00000000</i>
   <i name="MCALPHA">      0.00000000</i>
   <i name="ALDAX">      1.00000000</i>
   <i name="AGGAX">      1.00000000</i>
   <i name="ALDAC">      1.00000000</i>
   <i name="AGGAC">      1.00000000</i>
   <i type="int" name="NKREDX">     1</i>
   <i type="int" name="NKREDY">     1</i>
   <i type="int" name="NKREDZ">     1</i>
   <i type="logical" name="SHIFTRED"> F  </i>
   <i type="logical" name="ODDONLY"> F  </i>
   <i type="logical" name="EVENONLY"> F  </i>
   <i type="int" name="LMAXFOCK">     0</i>
   <i type="int" name="NMAXFOCKAE">     0</i>
   <i type="logical" name="LFOCKAEDFT"> F  </i>
   <i name="HFSCREEN">      0.00000000</i>
   <i name="HFSCREENC">      0.00000000</i>
   <i type="int" name="NBANDSGWLOW">     0</i>
  </separator>
  <separator name="vdW DFT" >
   <i type="logical" name="LUSE_VDW"> F  </i>
   <i name="Zab_VDW">     -0.84910000</i>
   <i name="PARAM1">      0.12340000</i>
   <i name="PARAM2">      1.00000000</i>
   <i name="PARAM3">      0.00000000</i>
  </separator>
  <separator name="model GW" >
   <i type="int" name="MODEL_GW">     0</i>
   <i name="MODEL_EPS0">     20.69566731</i>
   <i name="MODEL_ALPHA">      1.00000000</i>
  </separator>
  <separator name="linear response parameters" >
   <i type="logical" name="LEPSILON"> F  </i>
   <i type="logical" name="LRPA"> F  </i>
   <i type="logical" name="LNABLA"> F  </i>
   <i type="logical" name="LVEL"> F  </i>
   <i type="int" name="KINTER">     0</i>
   <i name="CSHIFT">      0.10000000</i>
   <i name="OMEGAMAX">     -1.00000000</i>
   <i name="DEG_THRESHOLD">      0.00200000</i>
   <i name="RTIME">     -0.10000000</i>
   <i name="WPLASMAI">      0.00000000</i>
   <v name="DFIELD">      0.00000000      0.00000000      0.00000000</v>
   <v name="WPLASMA">      0.00000000      0.00000000      0.00000000      0.00000000      0.00000000      0.00000000      0.00000000      0.00000000      0.00000000</v>
  </separator>
  <separator name="orbital magnetization" >
   <i type="logical" name="NUCIND"> F  </i>
   <v name="MAGPOS">      0.00000000      0.00000000      0.00000000</v>
   <i type="logical" name="LNICSALL"> T  </i>
   <i type="logical" name="ORBITALMAG"> F  </i>
   <i type="logical" name="LMAGBLOCH"> F  </i>
   <i type="logical" name="LCHIMAG"> F  </i>
   <i type="logical" name="LGAUGE"> T  </i>
   <i type="int" name="MAGATOM">     0</i>
   <v name="MAGDIPOL">      0.00000000      0.00000000      0.00000000</v>
   <v name="AVECCONST">      0.00000000      0.00000000      0.00000000</v>
  </separator>
  <separator name="response functions" >
   <i type="logical" name="LADDER"> F  </i>
   <i type="logical" name="LRPAFORCE"> F  </i>
   <i type="logical" name="LFXC"> F  </i>
   <i type="logical" name="LHARTREE"> T  </i>
   <i type="int" name="IBSE">     0</i>
   <v type="int" name="KPOINT">    -1     0     0     0</v>
   <i type="logical" name="LTCTE"> F  </i>
   <i type="logical" name="LTETE"> F  </i>
   <i type="logical" name="LTRIPLET"> F  </i>
   <i type="logical" name="LFXCEPS"> F  </i>
   <i type="logical" name="LFXHEG"> F  </i>
   <i type="int" name="NATURALO">     2</i>
   <i type="logical" name="L2ORDER"> F  </i>
   <i type="logical" name="LMP2LT"> F  </i>
   <i type="logical" name="LUSEW"> F  </i>
   <i name="ENCUTGW">     -2.00000000</i>
   <i name="ENCUTGWSOFT">     -2.00000000</i>
   <i name="ENCUTLF">     -1.00000000</i>
   <i type="int" name="LMAXMP2">    -1</i>
   <i name="SCISSOR">      0.00000000</i>
   <i type="int" name="NOMEGA">     0</i>
   <i type="int" name="NOMEGAR">     0</i>
   <i type="int" name="NBANDSGW">    -1</i>
   <i type="int" name="NBANDSO">    -1</i>
   <i type="int" name="NBANDSV">    -1</i>
   <i type="int" name="NELM">     1</i>
   <i type="int" name="NELMHF">     1</i>
   <i type="int" name="DIM">     3</i>
   <i type="int" name="ANTIRES">     0</i>
   <i name="OMEGAMAX">    -30.00000000</i>
   <i name="OMEGAMIN">    -30.00000000</i>
   <i name="OMEGATL">   -200.00000000</i>
   <i type="int" name="OMEGAGRID">   140</i>
   <i name="CSHIFT">     -0.10000000</i>
   <i type="logical" name="SELFENERGY"> F  </i>
   <i type="logical" name="LSPECTRAL"> F  </i>
   <i type="logical" name="LSPECTRALGW"> F  </i>
   <i type="logical" name="LSINGLES"> F  </i>
   <i type="logical" name="LFERMIGW"> F  </i>
   <i type="logical" name="ODDONLYGW"> F  </i>
   <i type="logical" name="EVENONLYGW"> F  </i>
   <i type="int" name="NKREDLFX">     1</i>
   <i type="int" name="NKREDLFY">     1</i>
   <i type="int" name="NKREDLFZ">     1</i>
   <i type="int" name="MAXMEM">  2800</i>
   <i type="int" name="TELESCOPE">     0</i>
   <i type="int" name="TAUPAR">     1</i>
   <i type="int" name="OMEGAPAR">    -1</i>
   <i name="LAMBDA">      1.00000000</i>
  </separator>
  <separator name="External order field" >
   <i name="OFIELD_KAPPA">      0.00000000</i>
   <v name="OFIELD_K">      0.00000000      0.00000000      0.00000000</v>
   <i name="OFIELD_Q6_NEAR">      0.00000000</i>
   <i name="OFIELD_Q6_FAR">      0.00000000</i>
   <i name="OFIELD_A">      0.00000000</i>
  </separator>
  <separator name="solvation model" >
   <i type="logical" name="LSOL"> F  </i>
  </separator>
 </parameters>
 <atominfo>
  <atoms>      39 </atoms>
  <types>       3 </types>
  <array name="atoms" >
   <dimension dim="1">ion</dimension>
   <field type="string">element</field>
   <field type="int">atomtype</field>
   <set>
    <rc><c>C </c><c>   1</c></rc>
    <rc><c>O </c><c>   2</c></rc>
    <rc><c>O </c><c>   2</c></rc>
    <rc><c>Pt</c><c>   3</c></rc>
    <rc><c>Pt</c><c>   3</c></rc>
    <rc><c>Pt</c><c>   3</c></rc>
    <rc><c>Pt</c><c>   3</c></rc>
    <rc><c>Pt</c><c>   3</c></rc>
    <rc><c>Pt</c><c>   3</c></rc>
    <rc><c>Pt</c><c>   3</c></rc>
    <rc><c>Pt</c><c>   3</c></rc>
    <rc><c>Pt</c><c>   3</c></rc>
    <rc><c>Pt</c><c>   3</c></rc>
    <rc><c>Pt</c><c>   3</c></rc>
    <rc><c>Pt</c><c>   3</c></rc>
    <rc><c>Pt</c><c>   3</c></rc>
    <rc><c>Pt</c><c>   3</c></rc>
    <rc><c>Pt</c><c>   3</c></rc>
    <rc><c>Pt</c><c>   3</c></rc>
    <rc><c>Pt</c><c>   3</c></rc>
    <rc><c>Pt</c><c>   3</c></rc>
    <rc><c>Pt</c><c>   3</c></rc>
    <rc><c>Pt</c><c>   3</c></rc>
    <rc><c>Pt</c><c>   3</c></rc>
    <rc><c>Pt</c><c>   3</c></rc>
    <rc><c>Pt</c><c>   3</c></rc>
    <rc><c>Pt</c><c>   3</c></rc>
    <rc><c>Pt</c><c>   3</c></rc>
    <rc><c>Pt</c><c>   3</c></rc>
    <rc><c>Pt</c><c>   3</c></rc>
    <rc><c>Pt</c><c>   3</c></rc>
    <rc><c>Pt</c><c>   3</c></rc>
    <rc><c>Pt</c><c>   3</c></rc>
    <rc><c>Pt</c><c>   3</c></rc>
    <rc><c>Pt</c><c>   3</c></rc>
    <rc><c>Pt</c><c>   3</c></rc>
    <rc><c>Pt</c><c>   3</c></rc>
    <rc><c>Pt</c><c>   3</c></rc>
    <rc><c>Pt</c><c>   3</c></rc>
   </set>
  </array>
  <array name="atomtypes" >
   <dimension dim="1">type</dimension>
   <field type="int">atomspertype</field>
   <field type="string">element</field>
   <field>mass</field>
   <field>valence</field>
   <field type="string">pseudopotential</field>
   <set>
    <rc><c>   1</c><c>C </c><c>     12.01100000</c><c>      4.00000000</c><c> PAW_PBE C 08Apr2002                    </c></rc>
    <rc><c>   2</c><c>O </c><c>     16.00000000</c><c>      6.00000000</c><c> PAW_PBE O 08Apr2002                    </c></rc>
    <rc><c>  36</c><c>Pt</c><c>    195.08000000</c><c>     10.00000000</c><c>  PAW_PBE Pt 04Feb2005                  </c></rc>
   </set>
  </array>
 </atominfo>
 <structure name="initialpos" >
  <crystal>
   <varray name="basis" >
    <v>       7.29695512      -4.21289900       0.00000000 </v>
    <v>       0.00000000       8.42579800       0.00000000 </v>
    <v>       0.00000000       0.00000000      21.87963500 </v>
   </varray>
   <i name="volume">   1345.21837528 </i>
   <varray name="rec_basis" >
    <v>       0.13704346       0.00000000       0.00000000 </v>
    <v>       0.06852173       0.11868312       0.00000000 </v>
    <v>       0.00000000       0.00000000       0.04570460 </v>
   </varray>
  </crystal>
  <varray name="positions" >
   <v>       0.70070952       0.43314041       0.47571983 </v>
   <v>       0.90388257       0.38668900       0.46088752 </v>
   <v>       0.67257297       0.45999629       0.52560836 </v>
   <v>       0.98675500       0.32859100       0.07437600 </v>
   <v>       0.32008800       0.32859100       0.07437600 </v>
   <v>       0.65342200       0.32859100       0.07437600 </v>
   <v>       0.98675500       0.66192500       0.07437600 </v>
   <v>       0.32008800       0.66192500       0.07437600 </v>
   <v>       0.65342200       0.66192500       0.07437600 </v>
   <v>       0.32008800       0.99525800       0.07437600 </v>
   <v>       0.65342200       0.99525800       0.07437600 </v>
   <v>       0.98675500       0.99525800       0.07437600 </v>
   <v>       0.20897700       0.10636900       0.17918600 </v>
   <v>       0.54231100       0.10636900       0.17918600 </v>
   <v>       0.87564400       0.10636900       0.17918600 </v>
   <v>       0.20897700       0.43970300       0.17918600 </v>
   <v>       0.54231100       0.43970300       0.17918600 </v>
   <v>       0.87564400       0.43970300       0.17918600 </v>
   <v>       0.20897700       0.77303600       0.17918600 </v>
   <v>       0.54231100       0.77303600       0.17918600 </v>
   <v>       0.87564400       0.77303600       0.17918600 </v>
   <v>       0.09725662       0.54599427       0.28622245 </v>
   <v>       0.43149263       0.88144137       0.28660059 </v>
   <v>       0.76432965       0.21736376       0.28584638 </v>
   <v>       0.09900776       0.22145335       0.28821940 </v>
   <v>       0.43022584       0.21305435       0.28638178 </v>
   <v>       0.09375648       0.88428189       0.27802660 </v>
   <v>       0.76505401       0.87891714       0.28328939 </v>
   <v>       0.43456212       0.54639764       0.28160877 </v>
   <v>       0.76144900       0.55281594       0.28279153 </v>
   <v>       0.32700651       0.65929102       0.38989714 </v>
   <v>       0.65086277       0.99464626       0.38222900 </v>
   <v>       0.32439459       0.32581058       0.38553137 </v>
   <v>       0.99024367       0.98706303       0.38734153 </v>
   <v>       0.31897683       0.98978927       0.38758868 </v>
   <v>       0.64349265       0.32229572       0.39294417 </v>
   <v>       0.99661313       0.66767473       0.39091759 </v>
   <v>       0.98939492       0.32109839       0.38798664 </v>
   <v>       0.65157252       0.65866138       0.38806752 </v>
  </varray>
  <varray name="selective"  type="logical" >
   <v type="logical" >  T  T  T </v>
   <v type="logical" >  T  T  T </v>
   <v type="logical" >  T  T  T </v>
   <v type="logical" >  F  F  F </v>
   <v type="logical" >  F  F  F </v>
   <v type="logical" >  F  F  F </v>
   <v type="logical" >  F  F  F </v>
   <v type="logical" >  F  F  F </v>
   <v type="logical" >  F  F  F </v>
   <v type="logical" >  F  F  F </v>
   <v type="logical" >  F  F  F </v>
   <v type="logical" >  F  F  F </v>
   <v type="logical" >  F  F  F </v>
   <v type="logical" >  F  F  F </v>
   <v type="logical" >  F  F  F </v>
   <v type="logical" >  F  F  F </v>
   <v type="logical" >  F  F  F </v>
   <v type="logical" >  F  F  F </v>
   <v type="logical" >  F  F  F </v>
   <v type="logical" >  F  F  F </v>
   <v type="logical" >  F  F  F </v>
   <v type="logical" >  T  T  T </v>
   <v type="logical" >  T  T  T </v>
   <v type="logical" >  T  T  T </v>
   <v type="logical" >  T  T  T </v>
   <v type="logical" >  T  T  T </v>
   <v type="logical" >  T  T  T </v>
   <v type="logical" >  T  T  T </v>
   <v type="logical" >  T  T  T </v>
   <v type="logical" >  T  T  T </v>
   <v type="logical" >  T  T  T </v>
   <v type="logical" >  T  T  T </v>
   <v type="logical" >  T  T  T </v>
   <v type="logical" >  T  T  T </v>
   <v type="logical" >  T  T  T </v>
   <v type="logical" >  T  T  T </v>
   <v type="logical" >  T  T  T </v>
   <v type="logical" >  T  T  T </v>
   <v type="logical" >  T  T  T </v>
  </varray>
  <nose>
   <v>      -3.00000000       0.00000000       0.00010000       0.00010000 </v>
  </nose>
 </structure>
 <calculation>
  <scstep>
   <time name="dav">    7.53    7.58</time>
   <time name="total">    7.66    7.92</time>
   <energy>
    <i name="alphaZ">    975.10247152 </i>
    <i name="ewald">  91571.52975874 </i>
    <i name="hartreedc">-120659.01386175 </i>
    <i name="XCdc">    189.96919923 </i>
    <i name="pawpsdc">  24789.08602224 </i>
    <i name="pawaedc"> -23775.73976456 </i>
    <i name="eentropy">      0.01563840 </i>
    <i name="bandstr">   2073.39760106 </i>
    <i name="atom">  27259.89416086 </i>
    <i name="e_fr_energy">   2424.24122575 </i>
    <i name="e_wo_entrp">   2424.22558735 </i>
    <i name="e_0_energy">   2424.23601295 </i>
   </energy>
  </scstep>
  <scstep>
   <time name="dav">    9.04    9.11</time>
   <time name="total">    9.05    9.11</time>
   <energy>
    <i name="e_fr_energy">    -64.88951073 </i>
    <i name="e_wo_entrp">    -64.88232889 </i>
    <i name="e_0_energy">    -64.88711678 </i>
   </energy>
  </scstep>
  <scstep>
   <time name="dav">    9.15    9.21</time>
   <time name="total">    9.15    9.21</time>
   <energy>
    <i name="e_fr_energy">   -240.39174302 </i>
    <i name="e_wo_entrp">   -240.38753595 </i>
    <i name="e_0_energy">   -240.39034066 </i>
   </energy>
  </scstep>
  <scstep>
   <time name="dav">    9.56    9.63</time>
   <time name="total">    9.56    9.63</time>
   <energy>
    <i name="e_fr_energy">   -247.89701659 </i>
    <i name="e_wo_entrp">   -247.90024792 </i>
    <i name="e_0_energy">   -247.89809370 </i>
   </energy>
  </scstep>
  <scstep>
   <time name="dav">   10.26   10.33</time>
   <time name="total">   10.70   10.78</time>
   <energy>
    <i name="e_fr_energy">   -248.12519269 </i>
    <i name="e_wo_entrp">   -248.12846105 </i>
    <i name="e_0_energy">   -248.12628214 </i>
   </energy>
  </scstep>
  <scstep>
   <time name="diag">    1.48    1.49</time>
   <time name="diis">    4.82    4.86</time>
   <time name="orth">    0.22    0.22</time>
   <time name="total">    7.10    7.16</time>
   <energy>
    <i name="e_fr_energy">   -245.91514275 </i>
    <i name="e_wo_entrp">   -245.72489726 </i>
    <i name="e_0_energy">   -245.85172759 </i>
   </energy>
  </scstep>
  <scstep>
   <time name="diag">    1.47    1.48</time>
   <time name="diis">    5.16    5.19</time>
   <time name="orth">    0.24    0.24</time>
   <time name="total">    7.47    7.53</time>
   <energy>
    <i name="e_fr_energy">   -246.52680881 </i>
    <i name="e_wo_entrp">   -246.39762079 </i>
    <i name="e_0_energy">   -246.48374614 </i>
   </energy>
  </scstep>
  <scstep>
   <time name="diag">    1.47    1.48</time>
   <time name="diis">    4.69    4.73</time>
   <time name="orth">    0.23    0.23</time>
   <time name="total">    6.92    6.98</time>
   <energy>
    <i name="e_fr_energy">   -243.47165466 </i>
    <i name="e_wo_entrp">   -243.45548215 </i>
    <i name="e_0_energy">   -243.46626383 </i>
   </energy>
  </scstep>
  <scstep>
   <time name="diag">    1.48    1.49</time>
   <time name="diis">    4.91    4.94</time>
   <time name="orth">    0.23    0.23</time>
   <time name="total">    7.21    7.25</time>
   <energy>
    <i name="e_fr_energy">   -231.86831680 </i>
    <i name="e_wo_entrp">   -231.77725681 </i>
    <i name="e_0_energy">   -231.83796347 </i>
   </energy>
  </scstep>
  <scstep>
   <time name="diag">    1.48    1.49</time>
   <time name="diis">    4.84    4.87</time>
   <time name="orth">    0.20    0.21</time>
   <time name="total">    7.07    7.12</time>
   <energy>
    <i name="e_fr_energy">   -230.51563685 </i>
    <i name="e_wo_entrp">   -230.52785962 </i>
    <i name="e_0_energy">   -230.51971111 </i>
   </energy>
  </scstep>
  <scstep>
   <time name="diag">    1.37    1.38</time>
   <time name="diis">    4.41    4.44</time>
   <time name="orth">    0.22    0.22</time>
   <time name="total">    6.56    6.61</time>
   <energy>
    <i name="e_fr_energy">   -230.22078289 </i>
    <i name="e_wo_entrp">   -230.19182084 </i>
    <i name="e_0_energy">   -230.21112887 </i>
   </energy>
  </scstep>
  <scstep>
   <time name="diag">    1.63    1.64</time>
   <time name="diis">    4.51    4.55</time>
   <time name="orth">    0.22    0.22</time>
   <time name="total">    6.92    6.96</time>
   <energy>
    <i name="e_fr_energy">   -230.03929106 </i>
    <i name="e_wo_entrp">   -230.02104787 </i>
    <i name="e_0_energy">   -230.03320999 </i>
   </energy>
  </scstep>
  <scstep>
   <time name="diag">    1.30    1.31</time>
   <time name="diis">    4.44    4.47</time>
   <time name="orth">    0.21    0.22</time>
   <time name="total">    6.49    6.53</time>
   <energy>
    <i name="e_fr_energy">   -230.04671795 </i>
    <i name="e_wo_entrp">   -230.02632396 </i>
    <i name="e_0_energy">   -230.03991996 </i>
   </energy>
  </scstep>
  <scstep>
   <time name="diag">    1.16    1.16</time>
   <time name="diis">    4.21    4.24</time>
   <time name="orth">    0.21    0.21</time>
   <time name="total">    6.11    6.15</time>
   <energy>
    <i name="e_fr_energy">   -230.01278790 </i>
    <i name="e_wo_entrp">   -229.99272509 </i>
    <i name="e_0_energy">   -230.00610029 </i>
   </energy>
  </scstep>
  <scstep>
   <time name="diag">    1.31    1.32</time>
   <time name="diis">    4.53    4.56</time>
   <time name="orth">    0.22    0.22</time>
   <time name="total">    6.61    6.66</time>
   <energy>
    <i name="e_fr_energy">   -230.00483249 </i>
    <i name="e_wo_entrp">   -229.99265167 </i>
    <i name="e_0_energy">   -230.00077222 </i>
   </energy>
  </scstep>
  <scstep>
   <time name="diag">    1.32    1.33</time>
   <time name="diis">    4.47    4.50</time>
   <time name="orth">    0.22    0.22</time>
   <time name="total">    6.54    6.59</time>
   <energy>
    <i name="e_fr_energy">   -229.99582477 </i>
    <i name="e_wo_entrp">   -229.98063682 </i>
    <i name="e_0_energy">   -229.99076212 </i>
   </energy>
  </scstep>
  <scstep>
   <time name="diag">    1.25    1.26</time>
   <time name="diis">    4.41    4.44</time>
   <time name="orth">    0.22    0.22</time>
   <time name="total">    6.40    6.45</time>
   <energy>
    <i name="e_fr_energy">   -229.99539946 </i>
    <i name="e_wo_entrp">   -229.98017787 </i>
    <i name="e_0_energy">   -229.99032559 </i>
   </energy>
  </scstep>
  <scstep>
   <time name="diag">    1.20    1.20</time>
   <time name="diis">    4.23    4.26</time>
   <time name="orth">    0.21    0.22</time>
   <time name="total">    6.15    6.19</time>
   <energy>
    <i name="e_fr_energy">   -229.99563906 </i>
    <i name="e_wo_entrp">   -229.98062197 </i>
    <i name="e_0_energy">   -229.99063336 </i>
   </energy>
  </scstep>
  <scstep>
   <time name="diag">    1.25    1.26</time>
   <time name="diis">    2.78    2.79</time>
   <time name="orth">    0.20    0.20</time>
   <time name="total">    4.73    4.76</time>
   <energy>
    <i name="e_fr_energy">   -229.99551491 </i>
    <i name="e_wo_entrp">   -229.98018039 </i>
    <i name="e_0_energy">   -229.99040340 </i>
   </energy>
  </scstep>
  <scstep>
   <time name="diag">    1.25    1.26</time>
   <time name="diis">    2.62    2.64</time>
   <time name="orth">    0.21    0.22</time>
   <time name="total">    4.23    4.26</time>
   <energy>
    <i name="alphaZ">    975.10247152 </i>
    <i name="ewald">  91571.52975874 </i>
    <i name="hartreedc">-120280.68842691 </i>
    <i name="XCdc">    178.55076758 </i>
    <i name="pawpsdc">  30157.00381263 </i>
    <i name="pawaedc"> -29243.21516059 </i>
    <i name="eentropy">     -0.01516711 </i>
    <i name="bandstr">   -848.15782301 </i>
    <i name="atom">  27259.89416086 </i>
    <i name="e_fr_energy">   -229.99560629 </i>
    <i name="e_wo_entrp">   -229.98043918 </i>
    <i name="e_0_energy">   -229.99055059 </i>
   </energy>
  </scstep>
  <structure>
   <crystal>
    <varray name="basis" >
     <v>       7.29695512      -4.21289900       0.00000000 </v>
     <v>       0.00000000       8.42579800       0.00000000 </v>
     <v>       0.00000000       0.00000000      21.87963500 </v>
    </varray>
    <i name="volume">   1345.21837528 </i>
    <varray name="rec_basis" >
     <v>       0.13704346       0.00000000       0.00000000 </v>
     <v>       0.06852173       0.11868312       0.00000000 </v>
     <v>       0.00000000       0.00000000       0.04570460 </v>
    </varray>
   </crystal>
   <varray name="positions" >
    <v>       0.70070952       0.43314041       0.47571983 </v>
    <v>       0.90388257       0.38668900       0.46088752 </v>
    <v>       0.67257297       0.45999629       0.52560836 </v>
    <v>       0.98675500       0.32859100       0.07437600 </v>
    <v>       0.32008800       0.32859100       0.07437600 </v>
    <v>       0.65342200       0.32859100       0.07437600 </v>
    <v>       0.98675500       0.66192500       0.07437600 </v>
    <v>       0.32008800       0.66192500       0.07437600 </v>
    <v>       0.65342200       0.66192500       0.07437600 </v>
    <v>       0.32008800       0.99525800       0.07437600 </v>
    <v>       0.65342200       0.99525800       0.07437600 </v>
    <v>       0.98675500       0.99525800       0.07437600 </v>
    <v>       0.20897700       0.10636900       0.17918600 </v>
    <v>       0.54231100       0.10636900       0.17918600 </v>
    <v>       0.87564400       0.10636900       0.17918600 </v>
    <v>       0.20897700       0.43970300       0.17918600 </v>
    <v>       0.54231100       0.43970300       0.17918600 </v>
    <v>       0.87564400       0.43970300       0.17918600 </v>
    <v>       0.20897700       0.77303600       0.17918600 </v>
    <v>       0.54231100       0.77303600       0.17918600 </v>
    <v>       0.87564400       0.77303600       0.17918600 </v>
    <v>       0.09725662       0.54599427       0.28622245 </v>
    <v>       0.43149263       0.88144137       0.28660059 </v>
    <v>       0.76432965       0.21736376       0.28584638 </v>
    <v>       0.09900776       0.22145335       0.28821940 </v>
    <v>       0.43022584       0.21305435       0.28638178 </v>
    <v>       0.09375648       0.88428189       0.27802660 </v>
    <v>       0.76505401       0.87891714       0.28328939 </v>
    <v>       0.43456212       0.54639764       0.28160877 </v>
    <v>       0.76144900       0.55281594       0.28279153 </v>
    <v>       0.32700651       0.65929102       0.38989714 </v>
    <v>       0.65086277       0.99464626       0.38222900 </v>
    <v>       0.32439459       0.32581058       0.38553137 </v>
    <v>       0.99024367       0.98706303       0.38734153 </v>
    <v>       0.31897683       0.98978927       0.38758868 </v>
    <v>       0.64349265       0.32229572       0.39294417 </v>
    <v>       0.99661313       0.66767473       0.39091759 </v>
    <v>       0.98939492       0.32109839       0.38798664 </v>
    <v>       0.65157252       0.65866138       0.38806752 </v>
   </varray>
  </structure>
  <varray name="forces" >
   <v>      -0.78485906      -0.90163817      -1.09893197 </v>
   <v>       0.56188419       0.45292968       0.77033963 </v>
   <v>       0.47159961       0.00335490      -0.06198891 </v>
   <v>       0.02349236      -0.04267747       0.17529844 </v>
   <v>      -0.03521020      -0.08294679       0.20274743 </v>
   <v>      -0.05685968       0.02778718       0.13230628 </v>
   <v>       0.01028089       0.04090162       0.07615704 </v>
   <v>      -0.01513451       0.07334182       0.16580123 </v>
   <v>       0.06539297      -0.00513957       0.11778840 </v>
   <v>       0.04263608      -0.06226541      -0.01156132 </v>
   <v>      -0.02162506       0.02490303       0.10467186 </v>
   <v>       0.01658378       0.01770230       0.03627857 </v>
   <v>       0.11876635       0.29943046      -0.14319075 </v>
   <v>      -0.01655121      -0.00155955       0.31294594 </v>
   <v>       0.15736911       0.00127714       0.21632830 </v>
   <v>      -0.15510802      -0.06388280       0.13110031 </v>
   <v>      -0.08566411      -0.24530226      -0.19768126 </v>
   <v>       0.02948663      -0.07034381       0.26583686 </v>
   <v>       0.13194457      -0.21403087       0.08024680 </v>
   <v>      -0.01078567       0.12826046       0.03019886 </v>
   <v>      -0.16185514       0.08188054      -0.64370491 </v>
   <v>       0.12714877       0.54709814      -0.59104411 </v>
   <v>      -0.51366661      -0.10928862      -1.28730506 </v>
   <v>      -0.08400731       0.34284367      -0.96823316 </v>
   <v>      -0.40340794      -0.20250938      -1.18696412 </v>
   <v>       0.34352838      -0.14331784      -0.93555452 </v>
   <v>       0.34482180      -0.60737208       1.31328587 </v>
   <v>       0.02173561       0.50182203      -0.25301960 </v>
   <v>      -0.37351924       0.59573689       0.20899371 </v>
   <v>       0.48858445      -0.79229533       0.21837486 </v>
   <v>      -0.12904299       0.04738255      -0.28190631 </v>
   <v>       0.21504589      -0.61386316       1.14341253 </v>
   <v>      -0.20580887       0.15033487       0.63748317 </v>
   <v>      -0.20120014       0.06548346       0.09369977 </v>
   <v>      -0.33597237      -0.09684688       0.22045031 </v>
   <v>      -0.27169403       0.84611157       0.81531085 </v>
   <v>      -0.07942589       0.13996579      -0.52455430 </v>
   <v>       0.39602515      -0.38922365       0.72295412 </v>
   <v>       0.37507150       0.25595552      -0.00637085 </v>
  </varray>
  <varray name="stress" >
   <v>     -39.80210969       0.43365222       0.83473632 </v>
   <v>       0.43365215     -43.83499736      -0.33302137 </v>
   <v>       0.83473637      -0.33302141      -1.20166904 </v>
  </varray>
  <energy>
   <i name="e_fr_energy">   -229.99560629 </i>
   <i name="e_wo_entrp">   -229.99055059 </i>
   <i name="e_0_energy">     -0.01516711 </i>
  </energy>
  <time name="totalsc">  153.39  155.47</time>
 </calculation>
 <calculation>
  <scstep>
   <time name="dav">    8.35    8.41</time>
   <time name="total">    8.90    9.29</time>
   <energy>
    <i name="alphaZ">    975.10247152 </i>
    <i name="ewald">  91495.79495928 </i>
    <i name="hartreedc">-120208.43185646 </i>
    <i name="XCdc">    178.38617990 </i>
    <i name="pawpsdc">  30155.25060217 </i>
    <i name="pawaedc"> -29241.43213904 </i>
    <i name="eentropy">     -0.01643310 </i>
    <i name="bandstr">   -844.79481030 </i>
    <i name="atom">  27259.89416086 </i>
    <i name="e_fr_energy">   -230.24686517 </i>
    <i name="e_wo_entrp">   -230.23043207 </i>
    <i name="e_0_energy">   -230.24138747 </i>
   </energy>
  </scstep>
  <scstep>
   <time name="diag">    1.34    1.35</time>
   <time name="diis">    4.39    4.42</time>
   <time name="orth">    0.20    0.20</time>
   <time name="total">    6.43    6.48</time>
   <energy>
    <i name="e_fr_energy">   -230.35295388 </i>
    <i name="e_wo_entrp">   -230.32317799 </i>
    <i name="e_0_energy">   -230.34302858 </i>
   </energy>
  </scstep>
  <scstep>
   <time name="diag">    1.21    1.22</time>
   <time name="diis">    4.43    4.46</time>
   <time name="orth">    0.22    0.22</time>
   <time name="total">    6.39    6.43</time>
   <energy>
    <i name="e_fr_energy">   -230.31127220 </i>
    <i name="e_wo_entrp">   -230.29792005 </i>
    <i name="e_0_energy">   -230.30682148 </i>
   </energy>
  </scstep>
  <scstep>
   <time name="diag">    1.38    1.39</time>
   <time name="diis">    4.50    4.53</time>
   <time name="orth">    0.22    0.22</time>
   <time name="total">    6.65    6.70</time>
   <energy>
    <i name="e_fr_energy">   -230.29902926 </i>
    <i name="e_wo_entrp">   -230.28073027 </i>
    <i name="e_0_energy">   -230.29292959 </i>
   </energy>
  </scstep>
  <scstep>
   <time name="diag">    1.38    1.39</time>
   <time name="diis">    4.42    4.45</time>
   <time name="orth">    0.22    0.22</time>
   <time name="total">    6.56    6.61</time>
   <energy>
    <i name="e_fr_energy">   -230.29594690 </i>
    <i name="e_wo_entrp">   -230.27888420 </i>
    <i name="e_0_energy">   -230.29025933 </i>
   </energy>
  </scstep>
  <scstep>
   <time name="diag">    1.36    1.37</time>
   <time name="diis">    4.35    4.39</time>
   <time name="orth">    0.22    0.22</time>
   <time name="total">    6.47    6.52</time>
   <energy>
    <i name="e_fr_energy">   -230.29651550 </i>
    <i name="e_wo_entrp">   -230.27807072 </i>
    <i name="e_0_energy">   -230.29036724 </i>
   </energy>
  </scstep>
  <scstep>
   <time name="diag">    1.22    1.23</time>
   <time name="diis">    4.27    4.30</time>
   <time name="orth">    0.21    0.22</time>
   <time name="total">    6.22    6.27</time>
   <energy>
    <i name="e_fr_energy">   -230.29513696 </i>
    <i name="e_wo_entrp">   -230.27897112 </i>
    <i name="e_0_energy">   -230.28974835 </i>
   </energy>
  </scstep>
  <scstep>
   <time name="diag">    1.15    1.16</time>
   <time name="diis">    3.96    3.99</time>
   <time name="orth">    0.22    0.22</time>
   <time name="total">    5.85    5.89</time>
   <energy>
    <i name="e_fr_energy">   -230.29459848 </i>
    <i name="e_wo_entrp">   -230.27634719 </i>
    <i name="e_0_energy">   -230.28851472 </i>
   </energy>
  </scstep>
  <scstep>
   <time name="diag">    1.28    1.29</time>
   <time name="diis">    2.82    2.84</time>
   <time name="orth">    0.21    0.22</time>
   <time name="total">    4.45    4.49</time>
   <energy>
    <i name="alphaZ">    975.10247152 </i>
    <i name="ewald">  91495.79495928 </i>
    <i name="hartreedc">-120204.07116777 </i>
    <i name="XCdc">    178.33764115 </i>
    <i name="pawpsdc">  30123.92929491 </i>
    <i name="pawaedc"> -29209.95472883 </i>
    <i name="eentropy">     -0.01734033 </i>
    <i name="bandstr">   -849.30983565 </i>
    <i name="atom">  27259.89416086 </i>
    <i name="e_fr_energy">   -230.29454485 </i>
    <i name="e_wo_entrp">   -230.27720452 </i>
    <i name="e_0_energy">   -230.28876474 </i>
   </energy>
  </scstep>
  <structure>
   <crystal>
    <varray name="basis" >
     <v>       7.29695512      -4.21289900       0.00000000 </v>
     <v>       0.00000000       8.42579800       0.00000000 </v>
     <v>       0.00000000       0.00000000      21.87963500 </v>
    </varray>
    <i name="volume">   1345.21837528 </i>
    <varray name="rec_basis" >
     <v>       0.13704346       0.00000000       0.00000000 </v>
     <v>       0.06852173       0.11868312       0.00000000 </v>
     <v>       0.00000000       0.00000000       0.04570460 </v>
    </varray>
   </crystal>
   <varray name="positions" >
    <v>       0.69863393       0.43003765       0.47475061 </v>
    <v>       0.90536849       0.38846928       0.46156693 </v>
    <v>       0.67382013       0.46062755       0.52555369 </v>
    <v>       0.98675500       0.32859100       0.07437600 </v>
    <v>       0.32008800       0.32859100       0.07437600 </v>
    <v>       0.65342200       0.32859100       0.07437600 </v>
    <v>       0.98675500       0.66192500       0.07437600 </v>
    <v>       0.32008800       0.66192500       0.07437600 </v>
    <v>       0.65342200       0.66192500       0.07437600 </v>
    <v>       0.32008800       0.99525800       0.07437600 </v>
    <v>       0.65342200       0.99525800       0.07437600 </v>
    <v>       0.98675500       0.99525800       0.07437600 </v>
    <v>       0.20897700       0.10636900       0.17918600 </v>
    <v>       0.54231100       0.10636900       0.17918600 </v>
    <v>       0.87564400       0.10636900       0.17918600 </v>
    <v>       0.20897700       0.43970300       0.17918600 </v>
    <v>       0.54231100       0.43970300       0.17918600 </v>
    <v>       0.87564400       0.43970300       0.17918600 </v>
    <v>       0.20897700       0.77303600       0.17918600 </v>
    <v>       0.54231100       0.77303600       0.17918600 </v>
    <v>       0.87564400       0.77303600       0.17918600 </v>
    <v>       0.09759287       0.54741538       0.28570117 </v>
    <v>       0.43013422       0.88051187       0.28546523 </v>
    <v>       0.76410749       0.21803787       0.28499243 </v>
    <v>       0.09794094       0.22045614       0.28717254 </v>
    <v>       0.43113431       0.21318035       0.28555666 </v>
    <v>       0.09466837       0.88334681       0.27918487 </v>
    <v>       0.76511149       0.88009517       0.28306623 </v>
    <v>       0.43357433       0.54726812       0.28179310 </v>
    <v>       0.76274108       0.55164744       0.28298413 </v>
    <v>       0.32666526       0.65922891       0.38964851 </v>
    <v>       0.65143147       0.99352472       0.38323745 </v>
    <v>       0.32385032       0.32588275       0.38609360 </v>
    <v>       0.98971159       0.98694697       0.38742417 </v>
    <v>       0.31808834       0.98912322       0.38778311 </v>
    <v>       0.64277414       0.32387426       0.39366324 </v>
    <v>       0.99640308       0.66789027       0.39045495 </v>
    <v>       0.99044223       0.32073063       0.38862426 </v>
    <v>       0.65256441       0.65974352       0.38806190 </v>
   </varray>
  </structure>
  <varray name="forces" >
   <v>      -0.81749861      -0.30562469       1.08759185 </v>
   <v>       0.56865322       0.44205005       0.58444797 </v>
   <v>       0.65282323      -0.50284903      -1.74232812 </v>
   <v>       0.02571923      -0.04176749       0.17150518 </v>
   <v>      -0.03287882      -0.07177987       0.18921630 </v>
   <v>      -0.05296714       0.02467735       0.13123230 </v>
   <v>       0.00658724       0.03895079       0.09362707 </v>
   <v>      -0.01379178       0.05645628       0.16434010 </v>
   <v>       0.05208888      -0.00675233       0.12490629 </v>
   <v>       0.04101775      -0.05330573       0.00035551 </v>
   <v>      -0.01714171       0.02785908       0.10896158 </v>
   <v>       0.01589703       0.02159799       0.04112644 </v>
   <v>       0.06955864       0.22556560      -0.12045256 </v>
   <v>      -0.02036857      -0.00143771       0.19926371 </v>
   <v>       0.15426796      -0.01363393       0.12102516 </v>
   <v>      -0.13727467      -0.05636003       0.08512750 </v>
   <v>      -0.06548157      -0.19113395      -0.15233349 </v>
   <v>       0.03549800      -0.04635169       0.19027197 </v>
   <v>       0.07806148      -0.16178961       0.01109694 </v>
   <v>       0.00444674       0.09395228      -0.02443215 </v>
   <v>      -0.10096280       0.07635711      -0.53157992 </v>
   <v>       0.06058300       0.31407477      -0.43351606 </v>
   <v>      -0.24685970      -0.02274058      -0.84821375 </v>
   <v>      -0.09013947       0.17686311      -0.54262938 </v>
   <v>      -0.28109419      -0.11975049      -0.84585414 </v>
   <v>       0.21256199      -0.03499938      -0.61293089 </v>
   <v>       0.23589661      -0.43739312       0.98986602 </v>
   <v>      -0.01233386       0.35537790      -0.17571439 </v>
   <v>      -0.23693461       0.37367129       0.21054156 </v>
   <v>       0.31498571      -0.53532633       0.17014652 </v>
   <v>      -0.09990557       0.07629525      -0.28556037 </v>
   <v>       0.10533598      -0.37782635       0.71972205 </v>
   <v>      -0.22349234       0.07860168       0.37370968 </v>
   <v>      -0.16472773       0.14447286       0.07607388 </v>
   <v>      -0.12020484      -0.05411466       0.12246114 </v>
   <v>      -0.36635399       0.49721701       0.28199084 </v>
   <v>      -0.07946696       0.05716911      -0.43854610 </v>
   <v>       0.26233527      -0.31624740       0.57006582 </v>
   <v>       0.28356097       0.26997486      -0.06458207 </v>
  </varray>
  <varray name="stress" >
   <v>     -41.20955572       0.68863471       1.54869647 </v>
   <v>       0.68863469     -45.21771979      -0.85982738 </v>
   <v>       1.54869648      -0.85982742      -5.17037593 </v>
  </varray>
  <energy>
   <i name="e_fr_energy">   -230.29454485 </i>
   <i name="e_wo_entrp">   -230.28876474 </i>
   <i name="e_0_energy">     -0.01734033 </i>
  </energy>
  <time name="totalsc">   68.60   70.44</time>
 </calculation>
 <calculation>
  <scstep>
   <time name="dav">    8.03    8.08</time>
   <time name="total">    8.55    8.80</time>
   <energy>
    <i name="alphaZ">    975.10247152 </i>
    <i name="ewald">  91487.11431839 </i>
    <i name="hartreedc">-120191.75470683 </i>
    <i name="XCdc">    178.44141256 </i>
    <i name="pawpsdc">  30123.73269989 </i>
    <i name="pawaedc"> -29209.75759536 </i>
    <i name="eentropy">     -0.01865478 </i>
    <i name="bandstr">   -853.11078073 </i>
    <i name="atom">  27259.89416086 </i>
    <i name="e_fr_energy">   -230.35667448 </i>
    <i name="e_wo_entrp">   -230.33801970 </i>
    <i name="e_0_energy">   -230.35045622 </i>
   </energy>
  </scstep>
  <scstep>
   <time name="diag">    1.30    1.31</time>
   <time name="diis">    4.15    4.18</time>
   <time name="orth">    0.21    0.22</time>
   <time name="total">    6.20    6.24</time>
   <energy>
    <i name="e_fr_energy">   -230.41696953 </i>
    <i name="e_wo_entrp">   -230.39412154 </i>
    <i name="e_0_energy">   -230.40935353 </i>
   </energy>
  </scstep>
  <scstep>
   <time name="diag">    1.30    1.31</time>
   <time name="diis">    4.60    4.64</time>
   <time name="orth">    0.22    0.22</time>
   <time name="total">    6.65    6.70</time>
   <energy>
    <i name="e_fr_energy">   -230.40938150 </i>
    <i name="e_wo_entrp">   -230.39368110 </i>
    <i name="e_0_energy">   -230.40414803 </i>
   </energy>
  </scstep>
  <scstep>
   <time name="diag">    1.34    1.35</time>
   <time name="diis">    4.57    4.61</time>
   <time name="orth">    0.21    0.21</time>
   <time name="total">    6.66    6.71</time>
   <energy>
    <i name="e_fr_energy">   -230.40129831 </i>
    <i name="e_wo_entrp">   -230.38213161 </i>
    <i name="e_0_energy">   -230.39490941 </i>
   </energy>
  </scstep>
  <scstep>
   <time name="diag">    1.34    1.35</time>
   <time name="diis">    4.50    4.53</time>
   <time name="orth">    0.21    0.21</time>
   <time name="total">    6.57    6.62</time>
   <energy>
    <i name="e_fr_energy">   -230.39999360 </i>
    <i name="e_wo_entrp">   -230.38220180 </i>
    <i name="e_0_energy">   -230.39406300 </i>
   </energy>
  </scstep>
  <scstep>
   <time name="diag">    1.34    1.34</time>
   <time name="diis">    4.26    4.29</time>
   <time name="orth">    0.20    0.21</time>
   <time name="total">    6.29    6.33</time>
   <energy>
    <i name="e_fr_energy">   -230.39910054 </i>
    <i name="e_wo_entrp">   -230.37911509 </i>
    <i name="e_0_energy">   -230.39243872 </i>
   </energy>
  </scstep>
  <scstep>
   <time name="diag">    1.12    1.13</time>
   <time name="diis">    3.77    3.79</time>
   <time name="orth">    0.20    0.20</time>
   <time name="total">    5.54    5.58</time>
   <energy>
    <i name="e_fr_energy">   -230.39711700 </i>
    <i name="e_wo_entrp">   -230.37946206 </i>
    <i name="e_0_energy">   -230.39123202 </i>
   </energy>
  </scstep>
  <scstep>
   <time name="diag">    1.12    1.12</time>
   <time name="diis">    3.12    3.14</time>
   <time name="orth">    0.21    0.21</time>
   <time name="total">    4.92    4.95</time>
   <energy>
    <i name="e_fr_energy">   -230.39692572 </i>
    <i name="e_wo_entrp">   -230.37784435 </i>
    <i name="e_0_energy">   -230.39056526 </i>
   </energy>
  </scstep>
  <scstep>
   <time name="diag">    1.17    1.18</time>
   <time name="diis">    2.44    2.45</time>
   <time name="orth">    0.21    0.21</time>
   <time name="total">    3.94    3.97</time>
   <energy>
    <i name="alphaZ">    975.10247152 </i>
    <i name="ewald">  91487.11431839 </i>
    <i name="hartreedc">-120200.54776760 </i>
    <i name="XCdc">    178.55423271 </i>
    <i name="pawpsdc">  30122.01662310 </i>
    <i name="pawaedc"> -29208.00637684 </i>
    <i name="eentropy">     -0.01840463 </i>
    <i name="bandstr">   -844.50609079 </i>
    <i name="atom">  27259.89416086 </i>
    <i name="e_fr_energy">   -230.39683328 </i>
    <i name="e_wo_entrp">   -230.37842865 </i>
    <i name="e_0_energy">   -230.39069840 </i>
   </energy>
  </scstep>
  <structure>
   <crystal>
    <varray name="basis" >
     <v>       7.29695512      -4.21289900       0.00000000 </v>
     <v>       0.00000000       8.42579800       0.00000000 </v>
     <v>       0.00000000       0.00000000      21.87963500 </v>
    </varray>
    <i name="volume">   1345.21837528 </i>
    <varray name="rec_basis" >
     <v>       0.13704346       0.00000000       0.00000000 </v>
     <v>       0.06852173       0.11868312       0.00000000 </v>
     <v>       0.00000000       0.00000000       0.04570460 </v>
    </varray>
   </crystal>
   <varray name="positions" >
    <v>       0.69692538       0.42863020       0.47550868 </v>
    <v>       0.90655696       0.38986361       0.46197430 </v>
    <v>       0.67518452       0.46039960       0.52433926 </v>
    <v>       0.98675500       0.32859100       0.07437600 </v>
    <v>       0.32008800       0.32859100       0.07437600 </v>
    <v>       0.65342200       0.32859100       0.07437600 </v>
    <v>       0.98675500       0.66192500       0.07437600 </v>
    <v>       0.32008800       0.66192500       0.07437600 </v>
    <v>       0.65342200       0.66192500       0.07437600 </v>
    <v>       0.32008800       0.99525800       0.07437600 </v>
    <v>       0.65342200       0.99525800       0.07437600 </v>
    <v>       0.98675500       0.99525800       0.07437600 </v>
    <v>       0.20897700       0.10636900       0.17918600 </v>
    <v>       0.54231100       0.10636900       0.17918600 </v>
    <v>       0.87564400       0.10636900       0.17918600 </v>
    <v>       0.20897700       0.43970300       0.17918600 </v>
    <v>       0.54231100       0.43970300       0.17918600 </v>
    <v>       0.87564400       0.43970300       0.17918600 </v>
    <v>       0.20897700       0.77303600       0.17918600 </v>
    <v>       0.54231100       0.77303600       0.17918600 </v>
    <v>       0.87564400       0.77303600       0.17918600 </v>
    <v>       0.09771948       0.54804715       0.28539900 </v>
    <v>       0.42961829       0.88021275       0.28487401 </v>
    <v>       0.76391910       0.21826379       0.28461421 </v>
    <v>       0.09735346       0.21994565       0.28658296 </v>
    <v>       0.43157856       0.21333913       0.28512943 </v>
    <v>       0.09516139       0.88280165       0.27987482 </v>
    <v>       0.76508571       0.88072550       0.28294376 </v>
    <v>       0.43307914       0.54769686       0.28193985 </v>
    <v>       0.76339939       0.55100767       0.28310272 </v>
    <v>       0.32645646       0.65926260       0.38944947 </v>
    <v>       0.65165162       0.99295094       0.38373910 </v>
    <v>       0.32338322       0.32579147       0.38635408 </v>
    <v>       0.98936731       0.98703632       0.38747719 </v>
    <v>       0.31783712       0.98889966       0.38786847 </v>
    <v>       0.64200847       0.32439138       0.39385979 </v>
    <v>       0.99623700       0.66791070       0.39014928 </v>
    <v>       0.99099050       0.32043237       0.38902160 </v>
    <v>       0.65315705       0.66052849       0.38801689 </v>
   </varray>
  </structure>
  <varray name="forces" >
   <v>      -0.29653047      -1.63992231      -3.02569127 </v>
   <v>       0.65117365       0.35745600       0.35470216 </v>
   <v>       0.00655733       0.87258527       2.42759681 </v>
   <v>       0.02374700      -0.04282040       0.16603656 </v>
   <v>      -0.03291835      -0.06766447       0.17735766 </v>
   <v>      -0.05165108       0.01916455       0.12918567 </v>
   <v>       0.00506110       0.03943760       0.10448211 </v>
   <v>      -0.01337246       0.04751392       0.16270059 </v>
   <v>       0.04518918      -0.00823321       0.12576179 </v>
   <v>       0.03936941      -0.04936385       0.01275215 </v>
   <v>      -0.01347290       0.03047672       0.11476273 </v>
   <v>       0.01590557       0.02325077       0.04415012 </v>
   <v>       0.04659887       0.18055437      -0.09832462 </v>
   <v>      -0.02300114       0.00001474       0.13658713 </v>
   <v>       0.14867569      -0.01701484       0.07639317 </v>
   <v>      -0.12531226      -0.05057408       0.06100575 </v>
   <v>      -0.05437314      -0.16204067      -0.12492587 </v>
   <v>       0.03643086      -0.03470946       0.15387336 </v>
   <v>       0.04949809      -0.13225325      -0.02425290 </v>
   <v>       0.00964300       0.07453111      -0.05188710 </v>
   <v>      -0.06805591       0.07034969      -0.46351549 </v>
   <v>       0.03098141       0.20505012      -0.36820485 </v>
   <v>      -0.13192117       0.01066056      -0.66249527 </v>
   <v>      -0.08333106       0.09766356      -0.34111007 </v>
   <v>      -0.22406019      -0.08031760      -0.67038821 </v>
   <v>       0.15451760       0.00947396      -0.46630133 </v>
   <v>       0.18342937      -0.34916999       0.81357757 </v>
   <v>      -0.01445581       0.27404321      -0.14578377 </v>
   <v>      -0.17939498       0.27108144       0.19487900 </v>
   <v>       0.22207660      -0.39171763       0.14655899 </v>
   <v>      -0.09011793       0.08821940      -0.27644092 </v>
   <v>       0.06927142      -0.27664586       0.54885951 </v>
   <v>      -0.22990301       0.06075133       0.24929449 </v>
   <v>      -0.14596129       0.17912487       0.07197981 </v>
   <v>      -0.04271858      -0.04198853       0.08664369 </v>
   <v>      -0.27061866       0.42947571       0.31564823 </v>
   <v>      -0.08045900       0.00306332      -0.38901593 </v>
   <v>       0.19699089      -0.26511671       0.54877959 </v>
   <v>       0.23651236       0.26561063      -0.11523102 </v>
  </varray>
  <varray name="stress" >
   <v>     -41.60103045       0.28563204       0.57916948 </v>
   <v>       0.28563203     -45.08331095       0.80794644 </v>
   <v>       0.57916954       0.80794647      -0.87404053 </v>
  </varray>
  <energy>
   <i name="e_fr_energy">   -230.39683328 </i>
   <i name="e_wo_entrp">   -230.39069840 </i>
   <i name="e_0_energy">     -0.01840463 </i>
  </energy>
  <time name="totalsc">   64.54   65.92</time>
 </calculation>
 <calculation>
  <scstep>
   <time name="dav">    6.71    6.75</time>
   <time name="total">    7.16    7.39</time>
   <energy>
    <i name="alphaZ">    975.10247152 </i>
    <i name="ewald">  91414.81834789 </i>
    <i name="hartreedc">-120132.08249226 </i>
    <i name="XCdc">    178.39009359 </i>
    <i name="pawpsdc">  30121.74487086 </i>
    <i name="pawaedc"> -29207.73647008 </i>
    <i name="eentropy">     -0.01979469 </i>
    <i name="bandstr">   -840.65036667 </i>
    <i name="atom">  27259.89416086 </i>
    <i name="e_fr_energy">   -230.53917897 </i>
    <i name="e_wo_entrp">   -230.51938428 </i>
    <i name="e_0_energy">   -230.53258074 </i>
   </energy>
  </scstep>
  <scstep>
   <time name="diag">    1.02    1.02</time>
   <time name="diis">    3.53    3.55</time>
   <time name="orth">    0.22    0.22</time>
   <time name="total">    5.26    5.29</time>
   <energy>
    <i name="e_fr_energy">   -230.69743697 </i>
    <i name="e_wo_entrp">   -230.66817529 </i>
    <i name="e_0_energy">   -230.68768308 </i>
   </energy>
  </scstep>
  <scstep>
   <time name="diag">    1.23    1.24</time>
   <time name="diis">    4.44    4.47</time>
   <time name="orth">    0.22    0.22</time>
   <time name="total">    6.39    6.44</time>
   <energy>
    <i name="e_fr_energy">   -230.69815724 </i>
    <i name="e_wo_entrp">   -230.68260579 </i>
    <i name="e_0_energy">   -230.69297342 </i>
   </energy>
  </scstep>
  <scstep>
   <time name="diag">    1.31    1.32</time>
   <time name="diis">    4.40    4.44</time>
   <time name="orth">    0.21    0.22</time>
   <time name="total">    6.45    6.49</time>
   <energy>
    <i name="e_fr_energy">   -230.65967615 </i>
    <i name="e_wo_entrp">   -230.63689592 </i>
    <i name="e_0_energy">   -230.65208274 </i>
   </energy>
  </scstep>
  <scstep>
   <time name="diag">    1.31    1.32</time>
   <time name="diis">    4.38    4.41</time>
   <time name="orth">    0.22    0.22</time>
   <time name="total">    6.42    6.47</time>
   <energy>
    <i name="e_fr_energy">   -230.65084398 </i>
    <i name="e_wo_entrp">   -230.63041530 </i>
    <i name="e_0_energy">   -230.64403442 </i>
   </energy>
  </scstep>
  <scstep>
   <time name="diag">    1.32    1.33</time>
   <time name="diis">    4.29    4.32</time>
   <time name="orth">    0.22    0.22</time>
   <time name="total">    6.34    6.39</time>
   <energy>
    <i name="e_fr_energy">   -230.65297514 </i>
    <i name="e_wo_entrp">   -230.63056055 </i>
    <i name="e_0_energy">   -230.64550361 </i>
   </energy>
  </scstep>
  <scstep>
   <time name="diag">    1.24    1.25</time>
   <time name="diis">    4.06    4.09</time>
   <time name="orth">    0.20    0.20</time>
   <time name="total">    5.99    6.03</time>
   <energy>
    <i name="e_fr_energy">   -230.64848887 </i>
    <i name="e_wo_entrp">   -230.62882806 </i>
    <i name="e_0_energy">   -230.64193526 </i>
   </energy>
  </scstep>
  <scstep>
   <time name="diag">    1.13    1.14</time>
   <time name="diis">    4.23    4.26</time>
   <time name="orth">    0.22    0.22</time>
   <time name="total">    6.08    6.13</time>
   <energy>
    <i name="e_fr_energy">   -230.64760002 </i>
    <i name="e_wo_entrp">   -230.62546319 </i>
    <i name="e_0_energy">   -230.64022108 </i>
   </energy>
  </scstep>
  <scstep>
   <time name="diag">    1.27    1.27</time>
   <time name="diis">    3.56    3.59</time>
   <time name="orth">    0.21    0.21</time>
   <time name="total">    5.55    5.59</time>
   <energy>
    <i name="e_fr_energy">   -230.64742810 </i>
    <i name="e_wo_entrp">   -230.62654720 </i>
    <i name="e_0_energy">   -230.64046780 </i>
   </energy>
  </scstep>
  <scstep>
   <time name="diag">    1.28    1.28</time>
   <time name="diis">    2.63    2.65</time>
   <time name="orth">    0.22    0.22</time>
   <time name="total">    4.67    4.70</time>
   <energy>
    <i name="e_fr_energy">   -230.64732247 </i>
    <i name="e_wo_entrp">   -230.62587882 </i>
    <i name="e_0_energy">   -230.64017459 </i>
   </energy>
  </scstep>
  <scstep>
   <time name="diag">    1.29    1.30</time>
   <time name="diis">    2.64    2.66</time>
   <time name="orth">    0.21    0.21</time>
   <time name="total">    4.28    4.31</time>
   <energy>
    <i name="alphaZ">    975.10247152 </i>
    <i name="ewald">  91414.81834789 </i>
    <i name="hartreedc">-120123.33831574 </i>
    <i name="XCdc">    178.30757396 </i>
    <i name="pawpsdc">  30103.50062329 </i>
    <i name="pawaedc"> -29189.47143155 </i>
    <i name="eentropy">     -0.02118227 </i>
    <i name="bandstr">   -849.43959457 </i>
    <i name="atom">  27259.89416086 </i>
    <i name="e_fr_energy">   -230.64734660 </i>
    <i name="e_wo_entrp">   -230.62616433 </i>
    <i name="e_0_energy">   -230.64028584 </i>
   </energy>
  </scstep>
  <structure>
   <crystal>
    <varray name="basis" >
     <v>       7.29695512      -4.21289900       0.00000000 </v>
     <v>       0.00000000       8.42579800       0.00000000 </v>
     <v>       0.00000000       0.00000000      21.87963500 </v>
    </varray>
    <i name="volume">   1345.21837528 </i>
    <varray name="rec_basis" >
     <v>       0.13704346       0.00000000       0.00000000 </v>
     <v>       0.06852173       0.11868312       0.00000000 </v>
     <v>       0.00000000       0.00000000       0.04570460 </v>
    </varray>
   </crystal>
   <varray name="positions" >
    <v>       0.69332950       0.42239881       0.47428808 </v>
    <v>       0.91015665       0.39376880       0.46294916 </v>
    <v>       0.67748763       0.46189125       0.52430247 </v>
    <v>       0.98675500       0.32859100       0.07437600 </v>
    <v>       0.32008800       0.32859100       0.07437600 </v>
    <v>       0.65342200       0.32859100       0.07437600 </v>
    <v>       0.98675500       0.66192500       0.07437600 </v>
    <v>       0.32008800       0.66192500       0.07437600 </v>
    <v>       0.65342200       0.66192500       0.07437600 </v>
    <v>       0.32008800       0.99525800       0.07437600 </v>
    <v>       0.65342200       0.99525800       0.07437600 </v>
    <v>       0.98675500       0.99525800       0.07437600 </v>
    <v>       0.20897700       0.10636900       0.17918600 </v>
    <v>       0.54231100       0.10636900       0.17918600 </v>
    <v>       0.87564400       0.10636900       0.17918600 </v>
    <v>       0.20897700       0.43970300       0.17918600 </v>
    <v>       0.54231100       0.43970300       0.17918600 </v>
    <v>       0.87564400       0.43970300       0.17918600 </v>
    <v>       0.20897700       0.77303600       0.17918600 </v>
    <v>       0.54231100       0.77303600       0.17918600 </v>
    <v>       0.87564400       0.77303600       0.17918600 </v>
    <v>       0.09800820       0.54958276       0.28458936 </v>
    <v>       0.42842782       0.87957132       0.28333756 </v>
    <v>       0.76339760       0.21874842       0.28369939 </v>
    <v>       0.09581559       0.21864170       0.28504277 </v>
    <v>       0.43270466       0.21381626       0.28402941 </v>
    <v>       0.09644062       0.88136776       0.28170116 </v>
    <v>       0.76500681       0.88235012       0.28261843 </v>
    <v>       0.43180624       0.54877364       0.28234628 </v>
    <v>       0.76505109       0.54937193       0.28342218 </v>
    <v>       0.32588399       0.65939645       0.38888823 </v>
    <v>       0.65219164       0.99148321       0.38503187 </v>
    <v>       0.32203272       0.32548457       0.38699595 </v>
    <v>       0.98842990       0.98738889       0.38762534 </v>
    <v>       0.31731056       0.98838244       0.38808288 </v>
    <v>       0.64005698       0.32584233       0.39444914 </v>
    <v>       0.99575998       0.66785218       0.38931662 </v>
    <v>       0.99239583       0.31960877       0.39013946 </v>
    <v>       0.65473430       0.66270405       0.38784656 </v>
   </varray>
  </structure>
  <varray name="forces" >
   <v>      -0.29215707      -0.39181017       0.88757866 </v>
   <v>       0.65061931       0.36936344       0.08215480 </v>
   <v>       0.27238279      -0.18784605      -0.68069659 </v>
   <v>       0.02110989      -0.04263185       0.15213352 </v>
   <v>      -0.03340728      -0.05349296       0.15075770 </v>
   <v>      -0.04749773       0.01086996       0.12581115 </v>
   <v>       0.00267265       0.04531026       0.13041625 </v>
   <v>      -0.01146823       0.02665058       0.15139950 </v>
   <v>       0.02805031      -0.01030088       0.13650631 </v>
   <v>       0.02947269      -0.03717712       0.03983637 </v>
   <v>      -0.00635818       0.03698991       0.12034362 </v>
   <v>       0.01627686       0.02062658       0.05518976 </v>
   <v>      -0.01767452       0.07192090      -0.07667693 </v>
   <v>      -0.02681258       0.00414966      -0.03113502 </v>
   <v>       0.12544409      -0.03317679      -0.06451063 </v>
   <v>      -0.08813919      -0.03734666      -0.00985697 </v>
   <v>      -0.02704099      -0.08438855      -0.06777424 </v>
   <v>       0.03312825      -0.00245723       0.05134818 </v>
   <v>      -0.02860877      -0.04907728      -0.12579812 </v>
   <v>       0.02778190       0.02129042      -0.13021973 </v>
   <v>       0.00881469       0.05895691      -0.30874110 </v>
   <v>      -0.02939357      -0.09038230      -0.18361059 </v>
   <v>       0.12674366       0.09187125      -0.16509195 </v>
   <v>      -0.03738869      -0.09745992       0.10490695 </v>
   <v>      -0.06574399       0.00347562      -0.21113666 </v>
   <v>      -0.01105246       0.12064786      -0.10594738 </v>
   <v>       0.03484092      -0.07788332       0.31550068 </v>
   <v>      -0.02590650       0.08607619      -0.05113593 </v>
   <v>      -0.03101324       0.01058783       0.15167413 </v>
   <v>       0.00499831      -0.04951510       0.06352310 </v>
   <v>      -0.05991750       0.11864594      -0.25001308 </v>
   <v>      -0.01833924      -0.02937733       0.14781263 </v>
   <v>      -0.23028817       0.00983947      -0.02638960 </v>
   <v>      -0.06491945       0.23741458       0.05420207 </v>
   <v>       0.13898876      -0.00419769       0.00151101 </v>
   <v>      -0.37686321      -0.01707787      -0.46030350 </v>
   <v>      -0.09153324      -0.12562826      -0.18730852 </v>
   <v>      -0.00031881      -0.13350372       0.39277178 </v>
   <v>       0.10051755       0.21004368      -0.17903160 </v>
  </varray>
  <varray name="stress" >
   <v>     -42.22427614       0.60677467       1.70549737 </v>
   <v>       0.60677463     -46.01481860      -0.20953235 </v>
   <v>       1.70549737      -0.20953238      -5.26908688 </v>
  </varray>
  <energy>
   <i name="e_fr_energy">   -230.64734660 </i>
   <i name="e_wo_entrp">   -230.64028584 </i>
   <i name="e_0_energy">     -0.02118227 </i>
  </energy>
  <time name="totalsc">   75.19   76.39</time>
 </calculation>
 <calculation>
  <scstep>
   <time name="dav">    7.81    7.86</time>
   <time name="total">    8.33    8.42</time>
   <energy>
    <i name="alphaZ">    975.10247152 </i>
    <i name="ewald">  91427.06730192 </i>
    <i name="hartreedc">-120135.11592041 </i>
    <i name="XCdc">    178.31972152 </i>
    <i name="pawpsdc">  30103.44341464 </i>
    <i name="pawaedc"> -29189.41464673 </i>
    <i name="eentropy">     -0.02118707 </i>
    <i name="bandstr">   -849.96634135 </i>
    <i name="atom">  27259.89416086 </i>
    <i name="e_fr_energy">   -230.69102510 </i>
    <i name="e_wo_entrp">   -230.66983802 </i>
    <i name="e_0_energy">   -230.68396274 </i>
   </energy>
  </scstep>
  <scstep>
   <time name="diag">    1.32    1.33</time>
   <time name="diis">    4.56    4.60</time>
   <time name="orth">    0.22    0.22</time>
   <time name="total">    6.63    6.68</time>
   <energy>
    <i name="e_fr_energy">   -230.70559727 </i>
    <i name="e_wo_entrp">   -230.68642536 </i>
    <i name="e_0_energy">   -230.69920663 </i>
   </energy>
  </scstep>
  <scstep>
   <time name="diag">    1.31    1.32</time>
   <time name="diis">    4.62    4.65</time>
   <time name="orth">    0.22    0.22</time>
   <time name="total">    6.68    6.73</time>
   <energy>
    <i name="e_fr_energy">   -230.70846259 </i>
    <i name="e_wo_entrp">   -230.68346536 </i>
    <i name="e_0_energy">   -230.70013018 </i>
   </energy>
  </scstep>
  <scstep>
   <time name="diag">    1.30    1.31</time>
   <time name="diis">    4.55    4.58</time>
   <time name="orth">    0.21    0.21</time>
   <time name="total">    6.58    6.63</time>
   <energy>
    <i name="e_fr_energy">   -230.70414385 </i>
    <i name="e_wo_entrp">   -230.68346253 </i>
    <i name="e_0_energy">   -230.69725008 </i>
   </energy>
  </scstep>
  <scstep>
   <time name="diag">    1.34    1.35</time>
   <time name="diis">    4.30    4.33</time>
   <time name="orth">    0.20    0.20</time>
   <time name="total">    6.32    6.36</time>
   <energy>
    <i name="e_fr_energy">   -230.70288246 </i>
    <i name="e_wo_entrp">   -230.68221151 </i>
    <i name="e_0_energy">   -230.69599214 </i>
   </energy>
  </scstep>
  <scstep>
   <time name="diag">    1.14    1.15</time>
   <time name="diis">    4.19    4.22</time>
   <time name="orth">    0.21    0.21</time>
   <time name="total">    6.05    6.09</time>
   <energy>
    <i name="e_fr_energy">   -230.70288407 </i>
    <i name="e_wo_entrp">   -230.68128350 </i>
    <i name="e_0_energy">   -230.69568388 </i>
   </energy>
  </scstep>
  <scstep>
   <time name="diag">    1.34    1.34</time>
   <time name="diis">    4.11    4.14</time>
   <time name="orth">    0.20    0.20</time>
   <time name="total">    6.13    6.17</time>
   <energy>
    <i name="e_fr_energy">   -230.70280155 </i>
    <i name="e_wo_entrp">   -230.68235785 </i>
    <i name="e_0_energy">   -230.69598698 </i>
   </energy>
  </scstep>
  <scstep>
   <time name="diag">    1.20    1.21</time>
   <time name="diis">    2.50    2.51</time>
   <time name="orth">    0.21    0.21</time>
   <time name="total">    4.39    4.42</time>
   <energy>
    <i name="e_fr_energy">   -230.70268931 </i>
    <i name="e_wo_entrp">   -230.68155139 </i>
    <i name="e_0_energy">   -230.69564334 </i>
   </energy>
  </scstep>
  <scstep>
   <time name="diag">    1.07    1.08</time>
   <time name="diis">    2.51    2.53</time>
   <time name="orth">    0.21    0.21</time>
   <time name="total">    3.92    3.95</time>
   <energy>
    <i name="alphaZ">    975.10247152 </i>
    <i name="ewald">  91427.06730192 </i>
    <i name="hartreedc">-120136.07170404 </i>
    <i name="XCdc">    178.32927874 </i>
    <i name="pawpsdc">  30103.75107148 </i>
    <i name="pawaedc"> -29189.74284535 </i>
    <i name="eentropy">     -0.02088394 </i>
    <i name="bandstr">   -849.01152557 </i>
    <i name="atom">  27259.89416086 </i>
    <i name="e_fr_energy">   -230.70267439 </i>
    <i name="e_wo_entrp">   -230.68179045 </i>
    <i name="e_0_energy">   -230.69571308 </i>
   </energy>
  </scstep>
  <structure>
   <crystal>
    <varray name="basis" >
     <v>       7.29695512      -4.21289900       0.00000000 </v>
     <v>       0.00000000       8.42579800       0.00000000 </v>
     <v>       0.00000000       0.00000000      21.87963500 </v>
    </varray>
    <i name="volume">   1345.21837528 </i>
    <varray name="rec_basis" >
     <v>       0.13704346       0.00000000       0.00000000 </v>
     <v>       0.06852173       0.11868312       0.00000000 </v>
     <v>       0.00000000       0.00000000       0.04570460 </v>
    </varray>
   </crystal>
   <varray name="positions" >
    <v>       0.69239183       0.42028468       0.47457386 </v>
    <v>       0.91225248       0.39584071       0.46308215 </v>
    <v>       0.67822505       0.46220797       0.52410455 </v>
    <v>       0.98675500       0.32859100       0.07437600 </v>
    <v>       0.32008800       0.32859100       0.07437600 </v>
    <v>       0.65342200       0.32859100       0.07437600 </v>
    <v>       0.98675500       0.66192500       0.07437600 </v>
    <v>       0.32008800       0.66192500       0.07437600 </v>
    <v>       0.65342200       0.66192500       0.07437600 </v>
    <v>       0.32008800       0.99525800       0.07437600 </v>
    <v>       0.65342200       0.99525800       0.07437600 </v>
    <v>       0.98675500       0.99525800       0.07437600 </v>
    <v>       0.20897700       0.10636900       0.17918600 </v>
    <v>       0.54231100       0.10636900       0.17918600 </v>
    <v>       0.87564400       0.10636900       0.17918600 </v>
    <v>       0.20897700       0.43970300       0.17918600 </v>
    <v>       0.54231100       0.43970300       0.17918600 </v>
    <v>       0.87564400       0.43970300       0.17918600 </v>
    <v>       0.20897700       0.77303600       0.17918600 </v>
    <v>       0.54231100       0.77303600       0.17918600 </v>
    <v>       0.87564400       0.77303600       0.17918600 </v>
    <v>       0.09794351       0.54942562       0.28436158 </v>
    <v>       0.42870746       0.87993235       0.28307782 </v>
    <v>       0.76325428       0.21848898       0.28373820 </v>
    <v>       0.09552518       0.21847018       0.28473993 </v>
    <v>       0.43275144       0.21412819       0.28385593 </v>
    <v>       0.09662670       0.88112671       0.28212254 </v>
    <v>       0.76492912       0.88263211       0.28254782 </v>
    <v>       0.43163264       0.54882848       0.28251631 </v>
    <v>       0.76517500       0.54914861       0.28350418 </v>
    <v>       0.32567605       0.65961020       0.38861540 </v>
    <v>       0.65217612       0.99128715       0.38525701 </v>
    <v>       0.32129141       0.32516328       0.38701326 </v>
    <v>       0.98818048       0.98790117       0.38768649 </v>
    <v>       0.31766780       0.98853306       0.38809860 </v>
    <v>       0.63889779       0.32540824       0.39408462 </v>
    <v>       0.99547082       0.66741267       0.38908197 </v>
    <v>       0.99249298       0.31922845       0.39058719 </v>
    <v>       0.65512558       0.66350941       0.38766482 </v>
   </varray>
  </structure>
  <varray name="forces" >
   <v>      -0.21083265      -0.59720246       0.18762637 </v>
   <v>       0.65230549       0.40261103       0.05926708 </v>
   <v>       0.18414927      -0.03064065      -0.14228081 </v>
   <v>       0.01928985      -0.04285439       0.14965696 </v>
   <v>      -0.03335607      -0.04855514       0.14714090 </v>
   <v>      -0.04344555       0.00717515       0.12547712 </v>
   <v>       0.00305451       0.04834655       0.13266028 </v>
   <v>      -0.00918795       0.02142055       0.14738193 </v>
   <v>       0.02398103      -0.01056430       0.13778765 </v>
   <v>       0.02571835      -0.03536737       0.04232438 </v>
   <v>      -0.00329032       0.03809568       0.11905173 </v>
   <v>       0.01551763       0.01935140       0.05305431 </v>
   <v>      -0.02972523       0.04843754      -0.06938509 </v>
   <v>      -0.02048449       0.01138557      -0.05375848 </v>
   <v>       0.11797007      -0.02955041      -0.08012473 </v>
   <v>      -0.07255659      -0.03569825      -0.02580324 </v>
   <v>      -0.02163843      -0.06799030      -0.05896751 </v>
   <v>       0.02430330      -0.00251910       0.04780897 </v>
   <v>      -0.03968935      -0.03229276      -0.13519749 </v>
   <v>       0.02683507       0.00868560      -0.14107968 </v>
   <v>       0.02566448       0.05354856      -0.27448155 </v>
   <v>      -0.03652004      -0.10623938      -0.14750839 </v>
   <v>       0.11495467       0.08010163      -0.10805376 </v>
   <v>      -0.01962472      -0.09197275       0.11946190 </v>
   <v>      -0.05494910       0.00379425      -0.13765630 </v>
   <v>      -0.03564955       0.11270286      -0.07815309 </v>
   <v>       0.01043271      -0.04434059       0.22782625 </v>
   <v>      -0.01318538       0.05367728      -0.03996624 </v>
   <v>      -0.02119793      -0.00645607       0.11015180 </v>
   <v>      -0.01016449      -0.02130946       0.03654294 </v>
   <v>      -0.05834344       0.11692364      -0.23015946 </v>
   <v>      -0.02063912       0.00206327       0.12038226 </v>
   <v>      -0.22066054       0.01978360      -0.04209005 </v>
   <v>      -0.04810839       0.20716703       0.05135508 </v>
   <v>       0.10827638      -0.00915382      -0.00236280 </v>
   <v>      -0.28320627       0.03104320      -0.27851493 </v>
   <v>      -0.08490757      -0.13364357      -0.14127281 </v>
   <v>      -0.03346249      -0.11226225       0.34611320 </v>
   <v>       0.07237286       0.17229866      -0.17425471 </v>
  </varray>
  <varray name="stress" >
   <v>     -42.18243151       0.50940930       1.66845604 </v>
   <v>       0.50940935     -46.01581440      -0.03236143 </v>
   <v>       1.66845597      -0.03236144      -4.97610689 </v>
  </varray>
  <energy>
   <i name="e_fr_energy">   -230.70267439 </i>
   <i name="e_wo_entrp">   -230.69571308 </i>
   <i name="e_0_energy">     -0.02088394 </i>
  </energy>
  <time name="totalsc">   65.76   67.25</time>
 </calculation>
 <calculation>
