 vasp.5.4.4 16052018 (build Apr 24 2014 20:13:14) complex standard
 Contain Constrained Minimization Technique (TS), Periodic NBO, VASPsol, libbeef, VASP2WANNIER90, Constrained Cell Relaxation
 executed on Center for Computational Chemistry by phu@node11 date 2025.11.24 21:51:37
 running on    8 total cores
 distrk:  each k-point on    8 cores,    1 groups
 distr:  one band on NCORES_PER_BAND=   2 cores,    4 groups


--------------------------------------------------------------------------------------------------------


 INCAR:
 POTCAR:   PAW_PBE C 08Apr2002                    
 POTCAR:   PAW_PBE O 08Apr2002                    
 POTCAR:    PAW_PBE Pt 04Feb2005                  
 POTCAR:   PAW_PBE C 08Apr2002                    
   VRHFIN =C: s2p2                                                              
   LEXCH  = PE                                                                  
   EATOM  =   147.1560 eV,   10.8157 Ry                                         
                                                                                
   TITEL  = PAW_PBE C 08Apr2002                                                 
   LULTRA =        F    use ultrasoft PP ?                                      
   IUNSCR =        0    unscreen: 0-lin 1-nonlin 2-no                           
   RPACOR =     .000    partial core radius                                     
   POMASS =   12.011; ZVAL   =    4.000    mass and valenz                      
   RCORE  =    1.500    outmost cutoff radius                                   
   RWIGS  =    1.630; RWIGS  =     .863    wigner-seitz radius (au A)           
   ENMAX  =  400.000; ENMIN  =  300.000 eV                                      
   ICORE  =        2    local potential                                         
   LCOR   =        T    correct aug charges                                     
   LPAW   =        T    paw PP                                                  
   EAUG   =  644.873                                                            
   DEXC   =     .000                                                            
   RMAX   =    2.266    core radius for proj-oper                               
   RAUG   =    1.300    factor for augmentation sphere                          
   RDEP   =    1.501    radius for radial grids                                 
   RDEPT  =    1.300    core radius for aug-charge                              
   QCUT   =   -5.516; QGAM   =   11.032    optimization parameters              
                                                                                
   Description                                                                  
     l     E      TYP  RCUT    TYP  RCUT                                        
     0   .000     23  1.200                                                     
     0   .000     23  1.200                                                     
     1   .000     23  1.500                                                     
     1  2.500     23  1.500                                                     
     2   .000      7  1.500                                                     
  local pseudopotential read in
  atomic valenz-charges read in
  non local Contribution for L=           0  read in
    real space projection operators read in
  non local Contribution for L=           0  read in
    real space projection operators read in
  non local Contribution for L=           1  read in
    real space projection operators read in
  non local Contribution for L=           1  read in
    real space projection operators read in
    PAW grid and wavefunctions read in
 
   number of l-projection  operators is LMAX  =           4
   number of lm-projection operators is LMMAX =           8
 
 POTCAR:   PAW_PBE O 08Apr2002                    
   VRHFIN =O: s2p4                                                              
   LEXCH  = PE                                                                  
   EATOM  =   432.3788 eV,   31.7789 Ry                                         
                                                                                
   TITEL  = PAW_PBE O 08Apr2002                                                 
   LULTRA =        F    use ultrasoft PP ?                                      
   IUNSCR =        0    unscreen: 0-lin 1-nonlin 2-no                           
   RPACOR =     .000    partial core radius                                     
   POMASS =   16.000; ZVAL   =    6.000    mass and valenz                      
   RCORE  =    1.520    outmost cutoff radius                                   
   RWIGS  =    1.550; RWIGS  =     .820    wigner-seitz radius (au A)           
   ENMAX  =  400.000; ENMIN  =  300.000 eV                                      
   ICORE  =        2    local potential                                         
   LCOR   =        T    correct aug charges                                     
   LPAW   =        T    paw PP                                                  
   EAUG   =  605.392                                                            
   DEXC   =     .000                                                            
   RMAX   =    2.264    core radius for proj-oper                               
   RAUG   =    1.300    factor for augmentation sphere                          
   RDEP   =    1.550    radius for radial grids                                 
   QCUT   =   -5.520; QGAM   =   11.041    optimization parameters              
                                                                                
   Description                                                                  
     l     E      TYP  RCUT    TYP  RCUT                                        
     0   .000     23  1.200                                                     
     0  -.700     23  1.200                                                     
     1   .000     23  1.520                                                     
     1   .600     23  1.520                                                     
     2   .000      7  1.500                                                     
  local pseudopotential read in
  atomic valenz-charges read in
  non local Contribution for L=           0  read in
    real space projection operators read in
  non local Contribution for L=           0  read in
    real space projection operators read in
  non local Contribution for L=           1  read in
    real space projection operators read in
  non local Contribution for L=           1  read in
    real space projection operators read in
    PAW grid and wavefunctions read in
 
   number of l-projection  operators is LMAX  =           4
   number of lm-projection operators is LMMAX =           8
 
 POTCAR:    PAW_PBE Pt 04Feb2005                  
   VRHFIN =Pt: s1d9                                                             
   LEXCH  = PE                                                                  
   EATOM  =   729.1182 eV,   53.5887 Ry                                         
                                                                                
   TITEL  = PAW_PBE Pt 04Feb2005                                                
   LULTRA =        F    use ultrasoft PP ?                                      
   IUNSCR =        1    unscreen: 0-lin 1-nonlin 2-no                           
   RPACOR =    2.330    partial core radius                                     
   POMASS =  195.080; ZVAL   =   10.000    mass and valenz                      
   RCORE  =    2.600    outmost cutoff radius                                   
   RWIGS  =    2.750; RWIGS  =    1.455    wigner-seitz radius (au A)           
   ENMAX  =  230.283; ENMIN  =  172.712 eV                                      
   ICORE  =        3    local potential                                         
   LCOR   =        T    correct aug charges                                     
   LPAW   =        T    paw PP                                                  
   EAUG   =  358.966                                                            
   DEXC   =     .000                                                            
   RMAX   =    3.038    core radius for proj-oper                               
   RAUG   =    1.300    factor for augmentation sphere                          
   RDEP   =    2.761    radius for radial grids                                 
   QCUT   =   -4.114; QGAM   =    8.228    optimization parameters              
                                                                                
   Description                                                                  
     l     E      TYP  RCUT    TYP  RCUT                                        
     2   .000     23  2.500                                                     
     2   .000     23  2.500                                                     
     0   .000     23  2.500                                                     
     0   .000     23  2.500                                                     
     1  -.200     23  2.600                                                     
     1  1.500     23  2.600                                                     
     3   .000     23  2.500                                                     
  local pseudopotential read in
  partial core-charges read in
  atomic valenz-charges read in
  non local Contribution for L=           2  read in
    real space projection operators read in
  non local Contribution for L=           2  read in
    real space projection operators read in
  non local Contribution for L=           0  read in
    real space projection operators read in
  non local Contribution for L=           0  read in
    real space projection operators read in
  non local Contribution for L=           1  read in
    real space projection operators read in
  non local Contribution for L=           1  read in
    real space projection operators read in
    PAW grid and wavefunctions read in
 
   number of l-projection  operators is LMAX  =           6
   number of lm-projection operators is LMMAX =          18
 
 Optimization of the real space projectors (new method)

 maximal supplied QI-value         = 25.13
 optimisation between [QCUT,QGAM] = [ 10.81, 21.61] = [ 32.71,130.83] Ry 
 Optimized for a Real-space Cutoff    1.23 Angstroem

   l    n(q)    QCUT    max X(q) W(low)/X(q) W(high)/X(q)  e(spline) 
   0      8    10.807     5.582    0.53E-04    0.84E-04    0.44E-07
   0      8    10.807    69.432    0.35E-03    0.71E-03    0.24E-06
   1      7    10.807     2.780    0.44E-04    0.88E-04    0.89E-07
   1      7    10.807     4.549    0.14E-03    0.28E-03    0.13E-06
 Optimization of the real space projectors (new method)

 maximal supplied QI-value         = 24.76
 optimisation between [QCUT,QGAM] = [ 10.64, 21.54] = [ 31.73,129.89] Ry 
 Optimized for a Real-space Cutoff    1.23 Angstroem

   l    n(q)    QCUT    max X(q) W(low)/X(q) W(high)/X(q)  e(spline) 
   0      8    10.645     4.192    0.69E-04    0.93E-04    0.58E-07
   0      8    10.645     8.473    0.40E-03    0.65E-03    0.17E-06
   1      7    10.645     2.474    0.80E-04    0.12E-03    0.30E-07
   1      7    10.645     3.912    0.24E-03    0.53E-03    0.16E-06
 Optimization of the real space projectors (new method)

 maximal supplied QI-value         = 14.36
 optimisation between [QCUT,QGAM] = [ 10.77, 21.69] = [ 32.49,131.70] Ry 
 Optimized for a Real-space Cutoff    1.46 Angstroem

   l    n(q)    QCUT    max X(q) W(low)/X(q) W(high)/X(q)  e(spline) 
   2      9    10.771     3.903    0.38E-04    0.12E-03    0.82E-07
   2      9    10.771    18.372    0.13E-03    0.32E-03    0.28E-06
   0     10    10.771    13.697    0.11E-04    0.86E-05    0.85E-08
   0     10    10.771    65.529    0.40E-04    0.12E-03    0.14E-06
   1      9    10.771     7.604    0.48E-04    0.31E-04    0.38E-07
   1      9    10.771    12.136    0.35E-03    0.16E-03    0.23E-06
 PAW_PBE C 08Apr2002                    :
 energy of atom  1       EATOM= -147.1560
 kinetic energy error for atom=    0.0116 (will be added to EATOM!!)
 PAW_PBE O 08Apr2002                    :
 energy of atom  2       EATOM= -432.3788
 kinetic energy error for atom=    0.0389 (will be added to EATOM!!)
  PAW_PBE Pt 04Feb2005                  :
 energy of atom  3       EATOM= -729.1182
 kinetic energy error for atom=    0.0051 (will be added to EATOM!!)
 
 
 POSCAR: C    O    Pt                            
  positions in direct lattice
  No initial velocities read in
 exchange correlation table for  LEXCH =        8
   RHO(1)=    0.500       N(1)  =     2000
   RHO(2)=  100.500       N(2)  =     4000

 VTST: version 3.2, (02/03/18)

 CHAIN: initializing optimizer
 
 OPT: Using VASP QUASI-newton optimizer
 CHAIN: Read ICHAIN            0
 
 POSCAR: C    O    Pt                            
  positions in direct lattice
  No initial velocities read in
 


--------------------------------------------------------------------------------------------------------


 ion  position               nearest neighbor table
   1  0.704  0.435  0.472-   3 1.16  36 1.80   2 2.00  39 2.75
   2  0.909  0.383  0.464-  38 1.95   1 2.00  36 2.55  37 2.70
   3  0.676  0.462  0.521-   1 1.16
   4  0.987  0.329  0.074-  15 2.81  16 2.81  12 2.81   5 2.81  11 2.81   6 2.81  18 2.81   8 2.81
                             7 2.81
   5  0.320  0.329  0.074-  13 2.81  10 2.81   4 2.81  12 2.81  16 2.81  17 2.81   8 2.81   9 2.81
                             6 2.81
   6  0.653  0.329  0.074-  14 2.81  18 2.81  11 2.81   4 2.81  17 2.81   7 2.81  10 2.81   9 2.81
                             5 2.81
   7  0.987  0.662  0.074-  18 2.81  21 2.81  19 2.81  12 2.81   8 2.81  10 2.81   9 2.81   6 2.81
                             4 2.81
   8  0.320  0.662  0.074-  16 2.81  19 2.81  10 2.81   7 2.81  20 2.81   4 2.81  11 2.81   5 2.81
                             9 2.81
   9  0.653  0.662  0.074-  17 2.81  20 2.81  21 2.81  11 2.81  12 2.81   7 2.81   6 2.81   5 2.81
                             8 2.81
  10  0.320  0.995  0.074-  13 2.81  19 2.81   5 2.81   8 2.81  12 2.81   7 2.81  14 2.81   6 2.81
                            11 2.81
  11  0.653  0.995  0.074-  14 2.81  20 2.81  15 2.81   9 2.81   6 2.81  12 2.81   4 2.81   8 2.81
                            10 2.81
  12  0.987  0.995  0.074-  15 2.81  21 2.81  13 2.81   7 2.81   4 2.81  10 2.81   5 2.81  11 2.81
                             9 2.81
  13  0.209  0.106  0.179-  27 2.72  26 2.74   5 2.81  10 2.81  12 2.81  19 2.81  15 2.81  21 2.81
                            16 2.81  14 2.81  17 2.81  25 2.89
  14  0.542  0.106  0.179-  26 2.74  23 2.76  24 2.81  11 2.81   6 2.81  20 2.81  15 2.81  10 2.81
                            18 2.81  19 2.81  17 2.81  13 2.81
  15  0.876  0.106  0.179-  24 2.76  12 2.81   4 2.81  11 2.81  21 2.81  13 2.81  14 2.81  20 2.81
                            16 2.81  18 2.81  28 2.84  25 2.89
  16  0.209  0.440  0.179-  29 2.77   8 2.81   4 2.81  19 2.81  18 2.81   5 2.81  15 2.81  20 2.81
                            13 2.81  17 2.81  22 2.85  25 2.90
  17  0.542  0.440  0.179-  26 2.73  29 2.76   9 2.81  20 2.81  21 2.81  18 2.81   6 2.81   5 2.81
                            14 2.81  16 2.81  13 2.81  30 2.89
  18  0.876  0.440  0.179-  24 2.80   7 2.81   6 2.81  21 2.81  16 2.81  19 2.81  17 2.81   4 2.81
                            14 2.81  15 2.81  22 2.84  30 2.90
  19  0.209  0.773  0.179-  27 2.70  23 2.76   8 2.81  10 2.81   7 2.81  16 2.81  13 2.81  18 2.81
                            21 2.81  14 2.81  20 2.81  22 2.89
  20  0.542  0.773  0.179-  23 2.75  29 2.77   9 2.81  11 2.81  17 2.81  14 2.81  15 2.81  21 2.81
                             8 2.81  16 2.81  19 2.81  28 2.82
  21  0.876  0.773  0.179-  27 2.70  12 2.81   7 2.81   9 2.81  18 2.81  15 2.81  19 2.81  13 2.81
                            17 2.81  20 2.81  28 2.84  30 2.88
  22  0.093  0.544  0.287-  31 2.73  24 2.76  25 2.78  37 2.79  30 2.80  38 2.82  27 2.83  18 2.84
                            29 2.84  16 2.85  23 2.85  19 2.89
  23  0.431  0.882  0.281-  20 2.75  19 2.76  14 2.76  28 2.78  29 2.80  32 2.81  27 2.82  31 2.82
                            24 2.82  26 2.83  22 2.85  35 2.89
  24  0.768  0.214  0.283-  22 2.76  15 2.76  28 2.76  25 2.77  18 2.80  14 2.81  32 2.81  23 2.82
                            26 2.85  30 2.87  38 2.87  36 3.07
  25  0.097  0.216  0.289-  34 2.64  38 2.68  24 2.77  22 2.78  33 2.80  28 2.81  26 2.82  27 2.83
                            29 2.83  13 2.89  15 2.89  16 2.90
  26  0.432  0.219  0.280-  17 2.73  14 2.74  13 2.74  29 2.80  25 2.82  30 2.82  23 2.83  27 2.84
                            24 2.85  33 2.92  35 2.95  36 2.98
  27  0.096  0.881  0.278-  19 2.70  21 2.70  13 2.72  34 2.79  30 2.79  23 2.82  25 2.83  22 2.83
                            28 2.83  26 2.84  37 2.88  35 2.98
  28  0.762  0.883  0.285-  34 2.73  32 2.73  24 2.76  23 2.78  29 2.79  30 2.80  25 2.81  20 2.82
                            27 2.83  15 2.84  21 2.84  39 2.84
  29  0.433  0.551  0.282-  17 2.76  20 2.77  16 2.77  31 2.78  28 2.79  30 2.79  26 2.80  23 2.80
                            25 2.83  22 2.84  39 2.92  33 2.93
  30  0.765  0.553  0.289-  37 2.77  39 2.77  27 2.79  29 2.79  28 2.80  22 2.80  26 2.82  24 2.87
                            21 2.88  17 2.89  36 2.89  18 2.90
  31  0.319  0.657  0.386-  22 2.73  29 2.78  32 2.79  37 2.80  35 2.81  38 2.81  33 2.82  23 2.82
                            39 2.82
  32  0.649  0.989  0.387-  28 2.73  35 2.76  39 2.78  31 2.79  24 2.81  23 2.81  38 2.83  34 2.89
                            36 2.91
  33  0.325  0.326  0.392-  36 2.64  38 2.75  25 2.80  35 2.81  34 2.81  31 2.82  39 2.82  26 2.92
                            29 2.93
  34  0.993  0.991  0.384-  25 2.64  37 2.72  28 2.73  38 2.74  27 2.79  35 2.79  39 2.80  33 2.81
                            32 2.89
  35  0.324  0.992  0.391-  37 2.75  36 2.75  32 2.76  34 2.79  31 2.81  33 2.81  23 2.89  26 2.95
                            27 2.98
  36  0.638  0.328  0.397-   1 1.80   2 2.55  33 2.64  39 2.75  35 2.75  30 2.89  32 2.91  37 2.94
                            26 2.98  38 3.05  24 3.07
  37  0.994  0.670  0.389-   2 2.70  34 2.72  35 2.75  30 2.77  22 2.79  31 2.80  39 2.81  27 2.88
                            36 2.94  38 2.98
  38  0.993  0.316  0.390-   2 1.95  25 2.68  34 2.74  33 2.75  31 2.81  22 2.82  32 2.83  24 2.87
                            37 2.98  36 3.05
  39  0.657  0.663  0.392-  36 2.75   1 2.75  30 2.77  32 2.78  34 2.80  37 2.81  33 2.82  31 2.82
                            28 2.84  29 2.92
 

IMPORTANT INFORMATION: All symmetrisations will be switched off!
NOSYMM: (Re-)initialisation of all symmetry stuff for point group C_1.

 
 
 KPOINTS: mesh auto                               

Automatic generation of k-mesh.
Space group operators:
 irot       det(A)        alpha          n_x          n_y          n_z        tau_x        tau_y        tau_z
    1     1.000000     0.000000     1.000000     0.000000     0.000000     0.000000     0.000000     0.000000
 
 Subroutine IBZKPT returns following result:
 ===========================================
 
 Found      4 irreducible k-points:
 
 Following reciprocal coordinates:
            Coordinates               Weight
  0.000000  0.000000  0.000000      1.000000
  0.500000  0.000000  0.000000      1.000000
 -0.000000  0.500000  0.000000      1.000000
  0.500000  0.500000  0.000000      1.000000
 
 Following cartesian coordinates:
            Coordinates               Weight
  0.000000  0.000000  0.000000      1.000000
  0.068522  0.000000  0.000000      1.000000
  0.034261  0.059342  0.000000      1.000000
  0.102783  0.059342  0.000000      1.000000
 


--------------------------------------------------------------------------------------------------------




 Dimension of arrays:
   k-points           NKPTS =      4   k-points in BZ     NKDIM =      4   number of bands    NBANDS=    228
   number of dos      NEDOS =    301   number of ions     NIONS =     39
   non local maximal  LDIM  =      6   non local SUM 2l+1 LMDIM =     18
   total plane-waves  NPLWV = 276480
   max r-space proj   IRMAX =   2756   max aug-charges    IRDMAX=  12646
   dimension x,y,z NGX =    48 NGY =   48 NGZ =  120
   dimension x,y,z NGXF=    96 NGYF=   96 NGZF=  240
   support grid    NGXF=    96 NGYF=   96 NGZF=  240
   ions per type =               1   2  36
   NGX,Y,Z   is equivalent  to a cutoff of   9.47,  9.47,  9.12 a.u.
   NGXF,Y,Z  is equivalent  to a cutoff of  18.94, 18.94, 18.24 a.u.

 SYSTEM =  metal                                   
 POSCAR =  C    O    Pt                            

 Startparameter for this run:
   NWRITE =      2    write-flag & timer
   PREC   = normal    normal or accurate (medium, high low for compatibility)
   ISTART =      0    job   : 0-new  1-cont  2-samecut
   ICHARG =      2    charge: 1-file 2-atom 10-const
   ISPIN  =      1    spin polarized calculation?
   LNONCOLLINEAR =      F non collinear calculations
   LSORBIT =      F    spin-orbit coupling
   INIWAV =      1    electr: 0-lowe 1-rand  2-diag
   LASPH  =      F    aspherical Exc in radial PAW
   METAGGA=      F    non-selfconsistent MetaGGA calc.

 Electronic Relaxation 1
   ENCUT  =  450.0 eV  33.07 Ry    5.75 a.u.  14.57 14.57 37.84*2*pi/ulx,y,z
   ENINI  =  450.0     initial cutoff
   ENAUG  =  644.9 eV  augmentation charge cutoff
   NELM   =     60;   NELMIN=  8; NELMDL= -5     # of ELM steps 
   EDIFF  = 0.1E-03   stopping-criterion for ELM
   LREAL  =      T    real-space projection
   NLSPLINE    = F    spline interpolate recip. space projectors
   LCOMPAT=      F    compatible to vasp.4.4
   GGA_COMPAT  = T    GGA compatible to vasp.4.4-vasp.4.6
   LMAXPAW     = -100 max onsite density
   LMAXMIX     =    2 max onsite mixed and CHGCAR
   VOSKOWN=      0    Vosko Wilk Nusair interpolation
   ROPT   =   -0.00050  -0.00050  -0.00050
 Ionic relaxation
   EDIFFG = -.5E-01   stopping-criterion for IOM
   NSW    =   5000    number of steps for IOM
   NBLOCK =      1;   KBLOCK =   5000    inner block; outer block 
   IBRION =      1    ionic relax: 0-MD 1-quasi-New 2-CG
   NFREE  =      0    steps in history (QN), initial steepest desc. (CG)
   ISIF   =      2    stress and relaxation
   IWAVPR =     11    prediction:  0-non 1-charg 2-wave 3-comb
   ISYM   =      0    0-nonsym 1-usesym 2-fastsym
   LCORR  =      T    Harris-Foulkes like correction to forces

   POTIM  = 0.2000    time-step for ionic-motion
   TEIN   =    0.0    initial temperature
   TEBEG  =    0.0;   TEEND  =   0.0 temperature during run
   SMASS  =  -3.00    Nose mass-parameter (am)
   estimated Nose-frequenzy (Omega)   =  0.10E-29 period in steps =****** mass=  -0.162E-26a.u.
   SCALEE = 1.0000    scale energy and forces
   NPACO  =    256;   APACO  = 16.0  distance and # of slots for P.C.
   PSTRESS=    0.0 pullay stress

  Mass of Ions in am
   POMASS =  12.01 16.00195.08
  Ionic Valenz
   ZVAL   =   4.00  6.00 10.00
  Atomic Wigner-Seitz radii
   RWIGS  =  -1.00 -1.00 -1.00
  virtual crystal weights 
   VCA    =   1.00  1.00  1.00
   NELECT =     376.0000    total number of electrons
   NUPDOWN=      -1.0000    fix difference up-down

 DOS related values:
   EMIN   =  10.00;   EMAX   =-10.00  energy-range for DOS
   EFERMI =   0.00
   ISMEAR =     1;   SIGMA  =   0.20  broadening in eV -4-tet -1-fermi 0-gaus

 Electronic relaxation 2 (details)
   IALGO  =     68    algorithm
   LDIAG  =      T    sub-space diagonalisation (order eigenvalues)
   LSUBROT=      F    optimize rotation matrix (better conditioning)
   TURBO    =      0    0=normal 1=particle mesh
   IRESTART =      0    0=no restart 2=restart with 2 vectors
   NREBOOT  =      0    no. of reboots
   NMIN     =      0    reboot dimension
   EREF     =   0.00    reference energy to select bands
   IMIX   =      4    mixing-type and parameters
     AMIX     =   0.40;   BMIX     =  1.00
     AMIX_MAG =   1.60;   BMIX_MAG =  1.00
     AMIN     =   0.10
     WC   =   100.;   INIMIX=   1;  MIXPRE=   1;  MAXMIX= -45

 Intra band minimization:
   WEIMIN = 0.0010     energy-eigenvalue tresh-hold
   EBREAK =  0.11E-06  absolut break condition
   DEPER  =   0.30     relativ break condition  

   TIME   =   0.40     timestep for ELM

  volume/ion in A,a.u.               =      34.49       232.77
  Fermi-wavevector in a.u.,A,eV,Ry     =   1.070385  2.022734 15.588510  1.145723
  Thomas-Fermi vector in A             =   2.206093
 
 Write flags
   LWAVE        =      F    write WAVECAR
   LDOWNSAMPLE  =      F    k-point downsampling of WAVECAR
   LCHARG       =      F    write CHGCAR
   LVTOT        =      F    write LOCPOT, total local potential
   LVHAR        =      F    write LOCPOT, Hartree potential only
   LELF         =      F    write electronic localiz. function (ELF)
   LORBIT       =      0    0 simple, 1 ext, 2 COOP (PROOUT), +10 PAW based schemes


 Dipole corrections
   LMONO  =      F    monopole corrections only (constant potential shift)
   LDIPOL =      F    correct potential (dipole corrections)
   IDIPOL =      0    1-x, 2-y, 3-z, 4-all directions 
   EPSILON=  1.0000000 bulk dielectric constant

 Exchange correlation treatment:
   GGA     =    --    GGA type
   LEXCH   =     8    internal setting for exchange type
   VOSKOWN=      0    Vosko Wilk Nusair interpolation
   LHFCALC =     F    Hartree Fock is set to
   LHFONE  =     F    Hartree Fock one center treatment
   AEXX    =    0.0000 exact exchange contribution

 Linear response parameters
   LEPSILON=     F    determine dielectric tensor
   LRPA    =     F    only Hartree local field effects (RPA)
   LNABLA  =     F    use nabla operator in PAW spheres
   LVEL    =     F    velocity operator in full k-point grid
   LINTERFAST=   F  fast interpolation
   KINTER  =     0    interpolate to denser k-point grid
   CSHIFT  =0.1000    complex shift for real part using Kramers Kronig
   OMEGAMAX=  -1.0    maximum frequency
   DEG_THRESHOLD= 0.2000000E-02 threshold for treating states as degnerate
   RTIME   =   -0.100 relaxation time in fs
  (WPLASMAI=    0.000 imaginary part of plasma frequency in eV, 0.658/RTIME)
   DFIELD  = 0.0000000 0.0000000 0.0000000 field for delta impulse in time
 
 Orbital magnetization related:
   ORBITALMAG=     F  switch on orbital magnetization
   LCHIMAG   =     F  perturbation theory with respect to B field
   DQ        =  0.001000  dq finite difference perturbation B field
   LLRAUG    =     F  two centre corrections for induced B field



--------------------------------------------------------------------------------------------------------


 quasi-Newton-method for relaxation of ions
   using selective dynamics as specified on POSCAR
 charge density and potential will be updated during run
 non-spin polarized calculation
 RMM-DIIS sequential band-by-band and
  variant of blocked Davidson during initial phase
 perform sub-space diagonalisation
    before iterative eigenvector-optimisation
 modified Broyden-mixing scheme, WC =      100.0
 initial mixing is a Kerker type mixing with AMIX =  0.4000 and BMIX =      1.0000
 Hartree-type preconditioning will be used
 using additional bands           40
 real space projection scheme for non local part
 use partial core corrections
 calculate Harris-corrections to forces 
   (improved forces if not selfconsistent)
 use gradient corrections 
 use of overlap-Matrix (Vanderbilt PP)
 Methfessel and Paxton  Order N= 1 SIGMA  =   0.20


--------------------------------------------------------------------------------------------------------


  energy-cutoff  :      450.00
  volume of cell :     1345.22
      direct lattice vectors                 reciprocal lattice vectors
     7.296955120 -4.212899000  0.000000000     0.137043463  0.000000000  0.000000000
     0.000000000  8.425798000  0.000000000     0.068521732  0.118683121  0.000000000
     0.000000000  0.000000000 21.879635000     0.000000000  0.000000000  0.045704602

  length of vectors
     8.425798004  8.425798000 21.879635000     0.137043463  0.137043463  0.045704602


 
 k-points in units of 2pi/SCALE and weight: mesh auto                               
   0.00000000  0.00000000  0.00000000       0.250
   0.06852173  0.00000000  0.00000000       0.250
   0.03426087  0.05934156  0.00000000       0.250
   0.10278260  0.05934156  0.00000000       0.250
 
 k-points in reciprocal lattice and weights: mesh auto                               
   0.00000000  0.00000000  0.00000000       0.250
   0.50000000  0.00000000  0.00000000       0.250
  -0.00000000  0.50000000  0.00000000       0.250
   0.50000000  0.50000000  0.00000000       0.250
 
 position of ions in fractional coordinates (direct lattice) 
   0.70379158  0.43530409  0.47154159
   0.90933056  0.38250042  0.46412892
   0.67565504  0.46215997  0.52143012
   0.98675500  0.32859100  0.07437600
   0.32008800  0.32859100  0.07437600
   0.65342200  0.32859100  0.07437600
   0.98675500  0.66192500  0.07437600
   0.32008800  0.66192500  0.07437600
   0.65342200  0.66192500  0.07437600
   0.32008800  0.99525800  0.07437600
   0.65342200  0.99525800  0.07437600
   0.98675500  0.99525800  0.07437600
   0.20897700  0.10636900  0.17918600
   0.54231100  0.10636900  0.17918600
   0.87564400  0.10636900  0.17918600
   0.20897700  0.43970300  0.17918600
   0.54231100  0.43970300  0.17918600
   0.87564400  0.43970300  0.17918600
   0.20897700  0.77303600  0.17918600
   0.54231100  0.77303600  0.17918600
   0.87564400  0.77303600  0.17918600
   0.09288208  0.54377483  0.28661806
   0.43137671  0.88214794  0.28096530
   0.76835432  0.21442739  0.28293053
   0.09717825  0.21567123  0.28889524
   0.43201566  0.21881692  0.27975789
   0.09631162  0.88080122  0.27801828
   0.76186461  0.88327207  0.28540932
   0.43281686  0.55101465  0.28167217
   0.76471719  0.55280528  0.28852816
   0.31935426  0.65680312  0.38565932
   0.64915163  0.98889860  0.38685777
   0.32455263  0.32573632  0.39224809
   0.99290593  0.99102574  0.38362132
   0.32370583  0.99163193  0.39125794
   0.63825741  0.32816280  0.39739630
   0.99407917  0.66961920  0.38943968
   0.99302653  0.31600288  0.39049437
   0.65702197  0.66281858  0.39245769
 
 position of ions in cartesian coordinates  (Angst):
   5.13553558  0.70278150 10.31715783
   6.63534431 -0.60804656 10.15497132
   4.93022447  1.04760016 11.40870070
   7.20030695 -1.38845776  1.62731973
   2.33566777  1.42014298  1.62731973
   4.76799101  0.01584050  1.62731973
   7.20030695  1.42014719  1.62731973
   2.33566777  4.22874793  1.62731973
   4.76799101  2.82444545  1.62731973
   2.33566777  7.03734445  1.62731973
   4.76799101  5.63304198  1.62731973
   7.20030695  4.22874371  1.62731973
   1.52489579  0.01584471  3.92052428
   3.95721903 -1.38845776  3.92052428
   6.38953497 -2.79275602  3.92052428
   1.52489579  2.82444966  3.92052428
   3.95721903  1.42014719  3.92052428
   6.38953497  0.01584893  3.92052428
   1.52489579  5.63304619  3.92052428
   3.95721903  4.22874371  3.92052428
   6.38953497  2.82444545  3.92052428
   0.67775641  4.19043399  6.27109864
   3.14773649  5.61545382  6.14741812
   5.60664699 -1.43027728  6.19041671
   0.70910530  1.40780012  6.32092241
   3.15239888  0.02366880  6.12100047
   0.70278154  7.01570203  6.08293857
   5.55929186  4.23261342  6.24465166
   3.15824522  2.81932439  6.16288419
   5.58010699  1.43614931  6.31289087
   2.33031373  4.18868315  8.43808508
   4.73683028  5.59744959  8.46430681
   2.36824595  1.37728103  8.58224496
   7.24519003  4.16717030  8.39349439
   2.36206693  6.99155032  8.56058089
   4.65733565  0.07611943  8.69488592
   7.25375110  1.45412098  8.52079812
   7.24606999 -1.52094405  8.54387425
   4.79425980  2.81680829  8.58683109
 


--------------------------------------------------------------------------------------------------------


 k-point  1 :   0.0000 0.0000 0.0000  plane waves:   29241
 k-point  2 :   0.5000 0.0000 0.0000  plane waves:   29108
 k-point  3 :  -0.0000 0.5000 0.0000  plane waves:   29108
 k-point  4 :   0.5000 0.5000 0.0000  plane waves:   29108

 maximum and minimum number of plane-waves per node :     14624    14548

 maximum number of plane-waves:     29241
 maximum index in each direction: 
   IXMAX=   14   IYMAX=   14   IZMAX=   37
   IXMIN=  -15   IYMIN=  -15   IZMIN=  -37


 real space projection operators:
  total allocation   :      13566.73 KBytes
  max/ min on nodes  :       6789.03       6777.70


 parallel 3D FFT for wavefunctions:
    minimum data exchange during FFTs selected (reduces bandwidth)
 parallel 3D FFT for charge:
    minimum data exchange during FFTs selected (reduces bandwidth)


 total amount of memory used by VASP MPI-rank0   131959. kBytes
=======================================================================

   base      :      30000. kBytes
   nonlr-proj:      10151. kBytes
   fftplans  :      13556. kBytes
   grid      :      23353. kBytes
   one-center:        311. kBytes
   wavefun   :      54588. kBytes
 
     INWAV:  cpu time    0.0000: real time    0.0000
 Broyden mixing: mesh for mixing (old mesh)
   NGX = 29   NGY = 29   NGZ = 75
  (NGX  = 96   NGY  = 96   NGZ  =240)
  gives a total of  63075 points

 initial charge density was supplied:
 charge density of overlapping atoms calculated
 number of electron     376.0000000 magnetization 
 keeping initial charge density in first step


--------------------------------------------------------------------------------------------------------


 Maximum index for non-local projection operator         1320
 Maximum index for augmentation-charges         1558 (set IRDMAX)


--------------------------------------------------------------------------------------------------------


 First call to EWALD:  gamma=   0.161
 Maximum number of real-space cells 4x 4x 2
 Maximum number of reciprocal cells 2x 2x 5

    FEWALD:  cpu time    0.0023: real time    0.0024


--------------------------------------- Iteration      1(   1)  ---------------------------------------


    POTLOK:  cpu time    0.1715: real time    0.2917
    SETDIJ:  cpu time    0.0116: real time    0.0145
     EDDAV:  cpu time   11.1172: real time   11.1977
       DOS:  cpu time    0.0012: real time    0.0012
    --------------------------------------------
      LOOP:  cpu time   11.3015: real time   11.5051

 eigenvalue-minimisations  :  1824
 total energy-change (2. order) : 0.2423097E+04  (-0.1595357E+05)
 number of electron     376.0000000 magnetization 
 augmentation part      376.0000000 magnetization 

 Free energy of the ion-electron system (eV)
  ---------------------------------------------------
  alpha Z        PSCENC =       975.10247152
  Ewald energy   TEWEN  =     90983.27332829
  -Hartree energ DENC   =   -120070.79668024
  -exchange      EXHF   =         0.00000000
  -V(xc)+E(xc)   XCENC  =       189.70583393
  PAW double counting   =     24789.08602224   -23775.73976456
  entropy T*S    EENTRO =         0.01821127
  eigenvalues    EBANDS =      2072.55306958
  atomic energy  EATOM  =     27259.89416086
  Solvation  Ediel_sol  =         0.00000000
  ---------------------------------------------------
  free energy    TOTEN  =      2423.09665290 eV

  energy without entropy =     2423.07844163  energy(sigma->0) =     2423.09058248


--------------------------------------------------------------------------------------------------------




--------------------------------------- Iteration      1(   2)  ---------------------------------------


     EDDAV:  cpu time   13.2077: real time   13.3041
       DOS:  cpu time    0.0012: real time    0.0012
    --------------------------------------------
      LOOP:  cpu time   13.2089: real time   13.3053

 eigenvalue-minimisations  :  2120
 total energy-change (2. order) :-0.2486173E+04  (-0.2305401E+04)
 number of electron     376.0000000 magnetization 
 augmentation part      376.0000000 magnetization 

 Free energy of the ion-electron system (eV)
  ---------------------------------------------------
  alpha Z        PSCENC =       975.10247152
  Ewald energy   TEWEN  =     90983.27332829
  -Hartree energ DENC   =   -120070.79668024
  -exchange      EXHF   =         0.00000000
  -V(xc)+E(xc)   XCENC  =       189.70583393
  PAW double counting   =     24789.08602224   -23775.73976456
  entropy T*S    EENTRO =         0.00799081
  eigenvalues    EBANDS =      -413.60938518
  atomic energy  EATOM  =     27259.89416086
  Solvation  Ediel_sol  =         0.00000000
  ---------------------------------------------------
  free energy    TOTEN  =       -63.07602233 eV

  energy without entropy =      -63.08401314  energy(sigma->0) =      -63.07868593


--------------------------------------------------------------------------------------------------------




--------------------------------------- Iteration      1(   3)  ---------------------------------------


     EDDAV:  cpu time   13.3497: real time   13.4448
       DOS:  cpu time    0.0012: real time    0.0012
    --------------------------------------------
      LOOP:  cpu time   13.3509: real time   13.4460

 eigenvalue-minimisations  :  2168
 total energy-change (2. order) :-0.1775820E+03  (-0.1611366E+03)
 number of electron     376.0000000 magnetization 
 augmentation part      376.0000000 magnetization 

 Free energy of the ion-electron system (eV)
  ---------------------------------------------------
  alpha Z        PSCENC =       975.10247152
  Ewald energy   TEWEN  =     90983.27332829
  -Hartree energ DENC   =   -120070.79668024
  -exchange      EXHF   =         0.00000000
  -V(xc)+E(xc)   XCENC  =       189.70583393
  PAW double counting   =     24789.08602224   -23775.73976456
  entropy T*S    EENTRO =        -0.00286656
  eigenvalues    EBANDS =      -591.18050719
  atomic energy  EATOM  =     27259.89416086
  Solvation  Ediel_sol  =         0.00000000
  ---------------------------------------------------
  free energy    TOTEN  =      -240.65800171 eV

  energy without entropy =     -240.65513515  energy(sigma->0) =     -240.65704619


--------------------------------------------------------------------------------------------------------




--------------------------------------- Iteration      1(   4)  ---------------------------------------


     EDDAV:  cpu time   14.0447: real time   14.1411
       DOS:  cpu time    0.0010: real time    0.0010
    --------------------------------------------
      LOOP:  cpu time   14.0457: real time   14.1421

 eigenvalue-minimisations  :  2336
 total energy-change (2. order) :-0.7776943E+01  (-0.7484720E+01)
 number of electron     376.0000000 magnetization 
 augmentation part      376.0000000 magnetization 

 Free energy of the ion-electron system (eV)
  ---------------------------------------------------
  alpha Z        PSCENC =       975.10247152
  Ewald energy   TEWEN  =     90983.27332829
  -Hartree energ DENC   =   -120070.79668024
  -exchange      EXHF   =         0.00000000
  -V(xc)+E(xc)   XCENC  =       189.70583393
  PAW double counting   =     24789.08602224   -23775.73976456
  entropy T*S    EENTRO =         0.00597559
  eigenvalues    EBANDS =      -598.96629217
  atomic energy  EATOM  =     27259.89416086
  Solvation  Ediel_sol  =         0.00000000
  ---------------------------------------------------
  free energy    TOTEN  =      -248.43494454 eV

  energy without entropy =     -248.44092013  energy(sigma->0) =     -248.43693640


--------------------------------------------------------------------------------------------------------




--------------------------------------- Iteration      1(   5)  ---------------------------------------


     EDDAV:  cpu time   13.6960: real time   13.7901
       DOS:  cpu time    0.0012: real time    0.0012
    CHARGE:  cpu time    0.5276: real time    0.5307
    MIXING:  cpu time    0.0085: real time    0.0085
    --------------------------------------------
      LOOP:  cpu time   14.2333: real time   14.3306

 eigenvalue-minimisations  :  2368
 total energy-change (2. order) :-0.2334106E+00  (-0.2316980E+00)
 number of electron     376.0000049 magnetization 
 augmentation part      105.7785156 magnetization 

 Broyden mixing:
  rms(total) = 0.27674E+01    rms(broyden)= 0.27670E+01
  rms(prec ) = 0.30848E+01
  weight for this iteration     100.00

 Free energy of the ion-electron system (eV)
  ---------------------------------------------------
  alpha Z        PSCENC =       975.10247152
  Ewald energy   TEWEN  =     90983.27332829
  -Hartree energ DENC   =   -120070.79668024
  -exchange      EXHF   =         0.00000000
  -V(xc)+E(xc)   XCENC  =       189.70583393
  PAW double counting   =     24789.08602224   -23775.73976456
  entropy T*S    EENTRO =         0.00624677
  eigenvalues    EBANDS =      -599.19997399
  atomic energy  EATOM  =     27259.89416086
  Solvation  Ediel_sol  =         0.00000000
  ---------------------------------------------------
  free energy    TOTEN  =      -248.66835517 eV

  energy without entropy =     -248.67460194  energy(sigma->0) =     -248.67043743


--------------------------------------------------------------------------------------------------------




--------------------------------------- Iteration      1(   6)  ---------------------------------------


    POTLOK:  cpu time    0.1578: real time    0.1586
    SETDIJ:  cpu time    0.0104: real time    0.0104
    EDDIAG:  cpu time    1.6936: real time    1.7063
  RMM-DIIS:  cpu time    6.1696: real time    6.2149
    ORTHCH:  cpu time    0.2636: real time    0.2653
       DOS:  cpu time    0.0013: real time    0.0013
    CHARGE:  cpu time    0.6690: real time    0.6735
    MIXING:  cpu time    0.0073: real time    0.0081
    --------------------------------------------
      LOOP:  cpu time    8.9725: real time    9.0383

 eigenvalue-minimisations  :  1828
 total energy-change (2. order) : 0.2769458E+01  (-0.5701117E+01)
 number of electron     376.0000041 magnetization 
 augmentation part      112.9525965 magnetization 

 Broyden mixing:
  rms(total) = 0.29313E+01    rms(broyden)= 0.29303E+01
  rms(prec ) = 0.38723E+01
  weight for this iteration     100.00

 eigenvalues of (default mixing * dielectric matrix)
  average eigenvalue GAMMA=   0.4945
  0.4945

 Free energy of the ion-electron system (eV)
  ---------------------------------------------------
  alpha Z        PSCENC =       975.10247152
  Ewald energy   TEWEN  =     90983.27332829
  -Hartree energ DENC   =   -119604.43691752
  -exchange      EXHF   =         0.00000000
  -V(xc)+E(xc)   XCENC  =       182.68548732
  PAW double counting   =     26729.12007862   -25769.58971138
  entropy T*S    EENTRO =        -0.17100588
  eigenvalues    EBANDS =     -1001.77678895
  atomic energy  EATOM  =     27259.89416086
  Solvation  Ediel_sol  =         0.00000000
  ---------------------------------------------------
  free energy    TOTEN  =      -245.89889711 eV

  energy without entropy =     -245.72789123  energy(sigma->0) =     -245.84189515


--------------------------------------------------------------------------------------------------------




--------------------------------------- Iteration      1(   7)  ---------------------------------------


    POTLOK:  cpu time    0.1673: real time    0.1685
    SETDIJ:  cpu time    0.0115: real time    0.0116
    EDDIAG:  cpu time    1.9730: real time    1.9862
  RMM-DIIS:  cpu time    6.8108: real time    6.8588
    ORTHCH:  cpu time    0.2708: real time    0.2725
       DOS:  cpu time    0.0012: real time    0.0012
    CHARGE:  cpu time    0.7157: real time    0.7204
    MIXING:  cpu time    0.0065: real time    0.0065
    --------------------------------------------
      LOOP:  cpu time    9.9568: real time   10.0257

 eigenvalue-minimisations  :  1829
 total energy-change (2. order) : 0.5380854E+01  (-0.3319349E+01)
 number of electron     376.0000060 magnetization 
 augmentation part      111.4298753 magnetization 

 Broyden mixing:
  rms(total) = 0.19486E+01    rms(broyden)= 0.19477E+01
  rms(prec ) = 0.30072E+01
  weight for this iteration     100.00

 eigenvalues of (default mixing * dielectric matrix)
  average eigenvalue GAMMA=   0.6159
  0.9701  0.2616

 Free energy of the ion-electron system (eV)
  ---------------------------------------------------
  alpha Z        PSCENC =       975.10247152
  Ewald energy   TEWEN  =     90983.27332829
  -Hartree energ DENC   =   -119801.51156092
  -exchange      EXHF   =         0.00000000
  -V(xc)+E(xc)   XCENC  =       180.28964560
  PAW double counting   =     27391.95842339   -26439.86796162
  entropy T*S    EENTRO =        -0.07633104
  eigenvalues    EBANDS =      -789.58021941
  atomic energy  EATOM  =     27259.89416086
  Solvation  Ediel_sol  =         0.00000000
  ---------------------------------------------------
  free energy    TOTEN  =      -240.51804332 eV

  energy without entropy =     -240.44171228  energy(sigma->0) =     -240.49259964


--------------------------------------------------------------------------------------------------------




--------------------------------------- Iteration      1(   8)  ---------------------------------------


    POTLOK:  cpu time    0.1688: real time    0.1699
    SETDIJ:  cpu time    0.0107: real time    0.0108
    EDDIAG:  cpu time    2.0151: real time    2.0292
  RMM-DIIS:  cpu time    6.6981: real time    6.7462
    ORTHCH:  cpu time    0.2652: real time    0.2670
       DOS:  cpu time    0.0013: real time    0.0013
    CHARGE:  cpu time    0.6485: real time    0.6530
    MIXING:  cpu time    0.0044: real time    0.0045
    --------------------------------------------
      LOOP:  cpu time    9.8122: real time    9.8818

 eigenvalue-minimisations  :  1827
 total energy-change (2. order) :-0.3909077E+01  (-0.9114338E+00)
 number of electron     376.0000049 magnetization 
 augmentation part      112.1873021 magnetization 

 Broyden mixing:
  rms(total) = 0.23336E+01    rms(broyden)= 0.23335E+01
  rms(prec ) = 0.43712E+01
  weight for this iteration     100.00

 eigenvalues of (default mixing * dielectric matrix)
  average eigenvalue GAMMA=   0.5433
  1.1811  0.2952  0.1536

 Free energy of the ion-electron system (eV)
  ---------------------------------------------------
  alpha Z        PSCENC =       975.10247152
  Ewald energy   TEWEN  =     90983.27332829
  -Hartree energ DENC   =   -119725.08177696
  -exchange      EXHF   =         0.00000000
  -V(xc)+E(xc)   XCENC  =       179.17483370
  PAW double counting   =     28126.05845115   -27185.48403064
  entropy T*S    EENTRO =        -0.08341968
  eigenvalues    EBANDS =      -857.28113852
  atomic energy  EATOM  =     27259.89416086
  Solvation  Ediel_sol  =         0.00000000
  ---------------------------------------------------
  free energy    TOTEN  =      -244.42712027 eV

  energy without entropy =     -244.34370059  energy(sigma->0) =     -244.39931371


--------------------------------------------------------------------------------------------------------




--------------------------------------- Iteration      1(   9)  ---------------------------------------


    POTLOK:  cpu time    0.1462: real time    0.1474
    SETDIJ:  cpu time    0.0101: real time    0.0102
    EDDIAG:  cpu time    1.8070: real time    1.8191
  RMM-DIIS:  cpu time    6.2625: real time    6.3078
    ORTHCH:  cpu time    0.2672: real time    0.2689
       DOS:  cpu time    0.0013: real time    0.0013
    CHARGE:  cpu time    0.7023: real time    0.7074
    MIXING:  cpu time    0.0060: real time    0.0082
    --------------------------------------------
      LOOP:  cpu time    9.2028: real time    9.2704

 eigenvalue-minimisations  :  1831
 total energy-change (2. order) : 0.1264487E+02  (-0.4068185E+00)
 number of electron     376.0000051 magnetization 
 augmentation part      112.7022301 magnetization 

 Broyden mixing:
  rms(total) = 0.92061E+00    rms(broyden)= 0.92027E+00
  rms(prec ) = 0.13693E+01
  weight for this iteration     100.00

 eigenvalues of (default mixing * dielectric matrix)
  average eigenvalue GAMMA=   0.5236
  1.2944  0.3387  0.3387  0.1225

 Free energy of the ion-electron system (eV)
  ---------------------------------------------------
  alpha Z        PSCENC =       975.10247152
  Ewald energy   TEWEN  =     90983.27332829
  -Hartree energ DENC   =   -119696.14047345
  -exchange      EXHF   =         0.00000000
  -V(xc)+E(xc)   XCENC  =       178.69123030
  PAW double counting   =     28699.19974203   -27767.46460953
  entropy T*S    EENTRO =        -0.01796559
  eigenvalues    EBANDS =      -864.32013304
  atomic energy  EATOM  =     27259.89416086
  Solvation  Ediel_sol  =         0.00000000
  ---------------------------------------------------
  free energy    TOTEN  =      -231.78224860 eV

  energy without entropy =     -231.76428301  energy(sigma->0) =     -231.77626007


--------------------------------------------------------------------------------------------------------




--------------------------------------- Iteration      1(  10)  ---------------------------------------


    POTLOK:  cpu time    0.1577: real time    0.1589
    SETDIJ:  cpu time    0.0105: real time    0.0106
    EDDIAG:  cpu time    1.9198: real time    1.9334
  RMM-DIIS:  cpu time    6.6370: real time    6.6858
    ORTHCH:  cpu time    0.2591: real time    0.2609
       DOS:  cpu time    0.0012: real time    0.0012
    CHARGE:  cpu time    0.7444: real time    0.7494
    MIXING:  cpu time    0.0080: real time    0.0081
    --------------------------------------------
      LOOP:  cpu time    9.7378: real time    9.8084

 eigenvalue-minimisations  :  1831
 total energy-change (2. order) : 0.1263217E+01  (-0.1521838E+00)
 number of electron     376.0000052 magnetization 
 augmentation part      112.7640341 magnetization 

 Broyden mixing:
  rms(total) = 0.51968E+00    rms(broyden)= 0.51960E+00
  rms(prec ) = 0.68299E+00
  weight for this iteration     100.00

 eigenvalues of (default mixing * dielectric matrix)
  average eigenvalue GAMMA=   0.5546
  1.4122  0.5676  0.4223  0.2462  0.1248

 Free energy of the ion-electron system (eV)
  ---------------------------------------------------
  alpha Z        PSCENC =       975.10247152
  Ewald energy   TEWEN  =     90983.27332829
  -Hartree energ DENC   =   -119695.22351902
  -exchange      EXHF   =         0.00000000
  -V(xc)+E(xc)   XCENC  =       178.57473883
  PAW double counting   =     29030.73018827   -28103.59645254
  entropy T*S    EENTRO =        -0.00659035
  eigenvalues    EBANDS =      -859.26735791
  atomic energy  EATOM  =     27259.89416086
  Solvation  Ediel_sol  =         0.00000000
  ---------------------------------------------------
  free energy    TOTEN  =      -230.51903204 eV

  energy without entropy =     -230.51244169  energy(sigma->0) =     -230.51683526


--------------------------------------------------------------------------------------------------------




--------------------------------------- Iteration      1(  11)  ---------------------------------------


    POTLOK:  cpu time    0.1752: real time    0.1764
    SETDIJ:  cpu time    0.0119: real time    0.0120
    EDDIAG:  cpu time    1.9612: real time    1.9744
  RMM-DIIS:  cpu time    6.7010: real time    6.7499
    ORTHCH:  cpu time    0.2630: real time    0.2647
       DOS:  cpu time    0.0013: real time    0.0013
    CHARGE:  cpu time    0.6804: real time    0.6852
    MIXING:  cpu time    0.0059: real time    0.0059
    --------------------------------------------
      LOOP:  cpu time    9.7999: real time    9.8699

 eigenvalue-minimisations  :  1831
 total energy-change (2. order) : 0.4243150E+00  (-0.4608283E-01)
 number of electron     376.0000049 magnetization 
 augmentation part      112.9156473 magnetization 

 Broyden mixing:
  rms(total) = 0.30178E+00    rms(broyden)= 0.30161E+00
  rms(prec ) = 0.39318E+00
  weight for this iteration     100.00

 eigenvalues of (default mixing * dielectric matrix)
  average eigenvalue GAMMA=   0.5902
  1.5531  0.8186  0.4037  0.4037  0.2382  0.1237

 Free energy of the ion-electron system (eV)
  ---------------------------------------------------
  alpha Z        PSCENC =       975.10247152
  Ewald energy   TEWEN  =     90983.27332829
  -Hartree energ DENC   =   -119682.35130978
  -exchange      EXHF   =         0.00000000
  -V(xc)+E(xc)   XCENC  =       178.55050383
  PAW double counting   =     29361.19869444   -28438.32606682
  entropy T*S    EENTRO =        -0.04182389
  eigenvalues    EBANDS =      -867.39467555
  atomic energy  EATOM  =     27259.89416086
  Solvation  Ediel_sol  =         0.00000000
  ---------------------------------------------------
  free energy    TOTEN  =      -230.09471709 eV

  energy without entropy =     -230.05289320  energy(sigma->0) =     -230.08077579


--------------------------------------------------------------------------------------------------------




--------------------------------------- Iteration      1(  12)  ---------------------------------------


    POTLOK:  cpu time    0.1660: real time    0.1672
    SETDIJ:  cpu time    0.0115: real time    0.0116
    EDDIAG:  cpu time    1.8826: real time    1.8956
  RMM-DIIS:  cpu time    6.7510: real time    6.8002
    ORTHCH:  cpu time    0.2702: real time    0.2719
       DOS:  cpu time    0.0011: real time    0.0012
    CHARGE:  cpu time    0.8226: real time    0.8280
    MIXING:  cpu time    0.0061: real time    0.0061
    --------------------------------------------
      LOOP:  cpu time    9.9110: real time    9.9818

 eigenvalue-minimisations  :  1837
 total energy-change (2. order) : 0.1160805E+00  (-0.1999138E-01)
 number of electron     376.0000049 magnetization 
 augmentation part      112.9724464 magnetization 

 Broyden mixing:
  rms(total) = 0.21092E+00    rms(broyden)= 0.21089E+00
  rms(prec ) = 0.28646E+00
  weight for this iteration     100.00

 eigenvalues of (default mixing * dielectric matrix)
  average eigenvalue GAMMA=   0.6664
  1.8851  1.0644  0.5372  0.5372  0.1240  0.2444  0.2726

 Free energy of the ion-electron system (eV)
  ---------------------------------------------------
  alpha Z        PSCENC =       975.10247152
  Ewald energy   TEWEN  =     90983.27332829
  -Hartree energ DENC   =   -119672.49840711
  -exchange      EXHF   =         0.00000000
  -V(xc)+E(xc)   XCENC  =       178.50052784
  PAW double counting   =     29599.64608510   -28679.68375173
  entropy T*S    EENTRO =        -0.03426552
  eigenvalues    EBANDS =      -874.17878590
  atomic energy  EATOM  =     27259.89416086
  Solvation  Ediel_sol  =         0.00000000
  ---------------------------------------------------
  free energy    TOTEN  =      -229.97863664 eV

  energy without entropy =     -229.94437111  energy(sigma->0) =     -229.96721480


--------------------------------------------------------------------------------------------------------




--------------------------------------- Iteration      1(  13)  ---------------------------------------


    POTLOK:  cpu time    0.1694: real time    0.1707
    SETDIJ:  cpu time    0.0113: real time    0.0114
    EDDIAG:  cpu time    1.9547: real time    1.9686
  RMM-DIIS:  cpu time    6.8583: real time    6.9089
    ORTHCH:  cpu time    0.2727: real time    0.2745
       DOS:  cpu time    0.0012: real time    0.0012
    CHARGE:  cpu time    0.7620: real time    0.7673
    MIXING:  cpu time    0.0058: real time    0.0058
    --------------------------------------------
      LOOP:  cpu time   10.0354: real time   10.1085

 eigenvalue-minimisations  :  1831
 total energy-change (2. order) : 0.1530931E-01  (-0.1326913E-01)
 number of electron     376.0000049 magnetization 
 augmentation part      112.9864912 magnetization 

 Broyden mixing:
  rms(total) = 0.19403E+00    rms(broyden)= 0.19403E+00
  rms(prec ) = 0.23818E+00
  weight for this iteration     100.00

 eigenvalues of (default mixing * dielectric matrix)
  average eigenvalue GAMMA=   0.6994
  2.1322  1.1664  0.8610  0.4517  0.3689  0.1240  0.2629  0.2282

 Free energy of the ion-electron system (eV)
  ---------------------------------------------------
  alpha Z        PSCENC =       975.10247152
  Ewald energy   TEWEN  =     90983.27332829
  -Hartree energ DENC   =   -119672.97117540
  -exchange      EXHF   =         0.00000000
  -V(xc)+E(xc)   XCENC  =       178.40836623
  PAW double counting   =     29879.42705988   -28962.81125334
  entropy T*S    EENTRO =        -0.03302885
  eigenvalues    EBANDS =      -870.25325652
  atomic energy  EATOM  =     27259.89416086
  Solvation  Ediel_sol  =         0.00000000
  ---------------------------------------------------
  free energy    TOTEN  =      -229.96332733 eV

  energy without entropy =     -229.93029848  energy(sigma->0) =     -229.95231771


--------------------------------------------------------------------------------------------------------




--------------------------------------- Iteration      1(  14)  ---------------------------------------


    POTLOK:  cpu time    0.1681: real time    0.1694
    SETDIJ:  cpu time    0.0113: real time    0.0114
    EDDIAG:  cpu time    2.0630: real time    2.0777
  RMM-DIIS:  cpu time    6.9134: real time    6.9666
    ORTHCH:  cpu time    0.2727: real time    0.2745
       DOS:  cpu time    0.0013: real time    0.0013
    CHARGE:  cpu time    0.7488: real time    0.7543
    MIXING:  cpu time    0.0078: real time    0.0078
    --------------------------------------------
      LOOP:  cpu time   10.1864: real time   10.2630

 eigenvalue-minimisations  :  1831
 total energy-change (2. order) : 0.4233988E-01  (-0.8818098E-02)
 number of electron     376.0000049 magnetization 
 augmentation part      112.9599899 magnetization 

 Broyden mixing:
  rms(total) = 0.92019E-01    rms(broyden)= 0.91998E-01
  rms(prec ) = 0.11444E+00
  weight for this iteration     100.00

 eigenvalues of (default mixing * dielectric matrix)
  average eigenvalue GAMMA=   0.7260
  2.3876  1.2785  0.9541  0.4957  0.4957  0.1240  0.3192  0.2551  0.2240

 Free energy of the ion-electron system (eV)
  ---------------------------------------------------
  alpha Z        PSCENC =       975.10247152
  Ewald energy   TEWEN  =     90983.27332829
  -Hartree energ DENC   =   -119675.62091759
  -exchange      EXHF   =         0.00000000
  -V(xc)+E(xc)   XCENC  =       178.34001791
  PAW double counting   =     30034.88299080   -29120.02702877
  entropy T*S    EENTRO =        -0.02379444
  eigenvalues    EBANDS =      -865.74221605
  atomic energy  EATOM  =     27259.89416086
  Solvation  Ediel_sol  =         0.00000000
  ---------------------------------------------------
  free energy    TOTEN  =      -229.92098745 eV

  energy without entropy =     -229.89719301  energy(sigma->0) =     -229.91305597


--------------------------------------------------------------------------------------------------------




--------------------------------------- Iteration      1(  15)  ---------------------------------------


    POTLOK:  cpu time    0.1738: real time    0.1751
    SETDIJ:  cpu time    0.0110: real time    0.0110
    EDDIAG:  cpu time    1.9068: real time    1.9208
  RMM-DIIS:  cpu time    6.9313: real time    6.9799
    ORTHCH:  cpu time    0.2773: real time    0.2790
       DOS:  cpu time    0.0013: real time    0.0014
    CHARGE:  cpu time    0.8575: real time    0.8631
    MIXING:  cpu time    0.0093: real time    0.0093
    --------------------------------------------
      LOOP:  cpu time   10.1683: real time   10.2395

 eigenvalue-minimisations  :  1830
 total energy-change (2. order) : 0.1009068E-01  (-0.3200465E-02)
 number of electron     376.0000049 magnetization 
 augmentation part      112.9536581 magnetization 

 Broyden mixing:
  rms(total) = 0.58372E-01    rms(broyden)= 0.58342E-01
  rms(prec ) = 0.69466E-01
  weight for this iteration     100.00

 eigenvalues of (default mixing * dielectric matrix)
  average eigenvalue GAMMA=   0.7116
  2.4863  1.2747  0.9031  0.6803  0.4880  0.1240  0.3817  0.3025  0.2522  0.2235

 Free energy of the ion-electron system (eV)
  ---------------------------------------------------
  alpha Z        PSCENC =       975.10247152
  Ewald energy   TEWEN  =     90983.27332829
  -Hartree energ DENC   =   -119675.94720598
  -exchange      EXHF   =         0.00000000
  -V(xc)+E(xc)   XCENC  =       178.31897163
  PAW double counting   =     30114.57345609   -29200.56993272
  entropy T*S    EENTRO =        -0.02553041
  eigenvalues    EBANDS =      -864.53061606
  atomic energy  EATOM  =     27259.89416086
  Solvation  Ediel_sol  =         0.00000000
  ---------------------------------------------------
  free energy    TOTEN  =      -229.91089677 eV

  energy without entropy =     -229.88536636  energy(sigma->0) =     -229.90238663


--------------------------------------------------------------------------------------------------------




--------------------------------------- Iteration      1(  16)  ---------------------------------------


    POTLOK:  cpu time    0.1752: real time    0.1765
    SETDIJ:  cpu time    0.0115: real time    0.0116
    EDDIAG:  cpu time    2.1277: real time    2.1419
  RMM-DIIS:  cpu time    7.0900: real time    7.1377
    ORTHCH:  cpu time    0.2722: real time    0.2739
       DOS:  cpu time    0.0013: real time    0.0013
    CHARGE:  cpu time    0.7203: real time    0.7251
    MIXING:  cpu time    0.0078: real time    0.0078
    --------------------------------------------
      LOOP:  cpu time   10.4060: real time   10.4757

 eigenvalue-minimisations  :  1831
 total energy-change (2. order) : 0.3270031E-02  (-0.7458049E-03)
 number of electron     376.0000049 magnetization 
 augmentation part      112.9627192 magnetization 

 Broyden mixing:
  rms(total) = 0.33200E-01    rms(broyden)= 0.33174E-01
  rms(prec ) = 0.40481E-01
  weight for this iteration     100.00

 eigenvalues of (default mixing * dielectric matrix)
  average eigenvalue GAMMA=   0.6925
  2.5107  1.2591  0.8445  0.8445  0.4831  0.4831  0.1240  0.3208  0.2796  0.2462
  0.2224

 Free energy of the ion-electron system (eV)
  ---------------------------------------------------
  alpha Z        PSCENC =       975.10247152
  Ewald energy   TEWEN  =     90983.27332829
  -Hartree energ DENC   =   -119676.56432083
  -exchange      EXHF   =         0.00000000
  -V(xc)+E(xc)   XCENC  =       178.33102312
  PAW double counting   =     30133.28848843   -29219.47060971
  entropy T*S    EENTRO =        -0.02763143
  eigenvalues    EBANDS =      -863.73453701
  atomic energy  EATOM  =     27259.89416086
  Solvation  Ediel_sol  =         0.00000000
  ---------------------------------------------------
  free energy    TOTEN  =      -229.90762674 eV

  energy without entropy =     -229.87999531  energy(sigma->0) =     -229.89841626


--------------------------------------------------------------------------------------------------------




--------------------------------------- Iteration      1(  17)  ---------------------------------------


    POTLOK:  cpu time    0.1757: real time    0.1769
    SETDIJ:  cpu time    0.0114: real time    0.0115
    EDDIAG:  cpu time    2.0607: real time    2.0739
  RMM-DIIS:  cpu time    6.9979: real time    7.0455
    ORTHCH:  cpu time    0.2656: real time    0.2672
       DOS:  cpu time    0.0013: real time    0.0013
    CHARGE:  cpu time    0.7291: real time    0.7338
    MIXING:  cpu time    0.0087: real time    0.0087
    --------------------------------------------
      LOOP:  cpu time   10.2503: real time   10.3188

 eigenvalue-minimisations  :  1823
 total energy-change (2. order) : 0.1064407E-02  (-0.2404614E-03)
 number of electron     376.0000049 magnetization 
 augmentation part      112.9628915 magnetization 

 Broyden mixing:
  rms(total) = 0.17191E-01    rms(broyden)= 0.17188E-01
  rms(prec ) = 0.20851E-01
  weight for this iteration     100.00

 eigenvalues of (default mixing * dielectric matrix)
  average eigenvalue GAMMA=   0.7144
  2.4937  1.1491  1.1002  1.1002  0.6950  0.4873  0.1240  0.3921  0.3157  0.2579
  0.2218  0.2358

 Free energy of the ion-electron system (eV)
  ---------------------------------------------------
  alpha Z        PSCENC =       975.10247152
  Ewald energy   TEWEN  =     90983.27332829
  -Hartree energ DENC   =   -119676.73995126
  -exchange      EXHF   =         0.00000000
  -V(xc)+E(xc)   XCENC  =       178.33506717
  PAW double counting   =     30136.11864926   -29222.30366015
  entropy T*S    EENTRO =        -0.02784157
  eigenvalues    EBANDS =      -863.55878646
  atomic energy  EATOM  =     27259.89416086
  Solvation  Ediel_sol  =         0.00000000
  ---------------------------------------------------
  free energy    TOTEN  =      -229.90656233 eV

  energy without entropy =     -229.87872076  energy(sigma->0) =     -229.89728181


--------------------------------------------------------------------------------------------------------




--------------------------------------- Iteration      1(  18)  ---------------------------------------


    POTLOK:  cpu time    0.1761: real time    0.1773
    SETDIJ:  cpu time    0.0115: real time    0.0116
    EDDIAG:  cpu time    2.1768: real time    2.1908
  RMM-DIIS:  cpu time    4.9002: real time    4.9326
    ORTHCH:  cpu time    0.2464: real time    0.2479
       DOS:  cpu time    0.0014: real time    0.0014
    CHARGE:  cpu time    0.4200: real time    0.4226
    MIXING:  cpu time    0.0056: real time    0.0057
    --------------------------------------------
      LOOP:  cpu time    7.9380: real time    7.9899

 eigenvalue-minimisations  :  1811
 total energy-change (2. order) :-0.1218163E-03  (-0.9600403E-04)
 number of electron     376.0000049 magnetization 
 augmentation part      112.9594606 magnetization 

 Broyden mixing:
  rms(total) = 0.13422E-01    rms(broyden)= 0.13419E-01
  rms(prec ) = 0.16184E-01
  weight for this iteration     100.00

 eigenvalues of (default mixing * dielectric matrix)
  average eigenvalue GAMMA=   0.7365
  2.4626  1.4831  1.4831  0.9340  0.8273  0.4584  0.4584  0.1240  0.3376  0.3011
  0.2529  0.2212  0.2314

 Free energy of the ion-electron system (eV)
  ---------------------------------------------------
  alpha Z        PSCENC =       975.10247152
  Ewald energy   TEWEN  =     90983.27332829
  -Hartree energ DENC   =   -119677.59713238
  -exchange      EXHF   =         0.00000000
  -V(xc)+E(xc)   XCENC  =       178.33923100
  PAW double counting   =     30132.91527264   -29219.01566834
  entropy T*S    EENTRO =        -0.02673846
  eigenvalues    EBANDS =      -862.79160929
  atomic energy  EATOM  =     27259.89416086
  Solvation  Ediel_sol  =         0.00000000
  ---------------------------------------------------
  free energy    TOTEN  =      -229.90668415 eV

  energy without entropy =     -229.87994569  energy(sigma->0) =     -229.89777133


--------------------------------------------------------------------------------------------------------




--------------------------------------- Iteration      1(  19)  ---------------------------------------


    POTLOK:  cpu time    0.1307: real time    0.1316
    SETDIJ:  cpu time    0.0117: real time    0.0118
    EDDIAG:  cpu time    1.4625: real time    1.4716
  RMM-DIIS:  cpu time    4.1616: real time    4.1890
    ORTHCH:  cpu time    0.2436: real time    0.2451
       DOS:  cpu time    0.0010: real time    0.0011
    CHARGE:  cpu time    0.4751: real time    0.4784
    MIXING:  cpu time    0.0082: real time    0.0082
    --------------------------------------------
      LOOP:  cpu time    6.4945: real time    6.5367

 eigenvalue-minimisations  :  1458
 total energy-change (2. order) :-0.1153882E-03  (-0.4865232E-04)
 number of electron     376.0000049 magnetization 
 augmentation part      112.9585152 magnetization 

 Broyden mixing:
  rms(total) = 0.75486E-02    rms(broyden)= 0.75472E-02
  rms(prec ) = 0.10177E-01
  weight for this iteration     100.00

 eigenvalues of (default mixing * dielectric matrix)
  average eigenvalue GAMMA=   0.7375
  2.5408  1.8144  1.2913  0.9200  0.9200  0.5023  0.5023  0.1240  0.3936  0.3265
  0.2863  0.2543  0.2294  0.2203

 Free energy of the ion-electron system (eV)
  ---------------------------------------------------
  alpha Z        PSCENC =       975.10247152
  Ewald energy   TEWEN  =     90983.27332829
  -Hartree energ DENC   =   -119678.73515642
  -exchange      EXHF   =         0.00000000
  -V(xc)+E(xc)   XCENC  =       178.34599962
  PAW double counting   =     30130.58611136   -29216.61388348
  entropy T*S    EENTRO =        -0.02753071
  eigenvalues    EBANDS =      -861.73230059
  atomic energy  EATOM  =     27259.89416086
  Solvation  Ediel_sol  =         0.00000000
  ---------------------------------------------------
  free energy    TOTEN  =      -229.90679954 eV

  energy without entropy =     -229.87926883  energy(sigma->0) =     -229.89762263


--------------------------------------------------------------------------------------------------------




--------------------------------------- Iteration      1(  20)  ---------------------------------------


    POTLOK:  cpu time    0.1348: real time    0.1357
    SETDIJ:  cpu time    0.0094: real time    0.0094
    EDDIAG:  cpu time    1.3997: real time    1.4090
  RMM-DIIS:  cpu time    3.2838: real time    3.3063
    ORTHCH:  cpu time    0.2136: real time    0.2148
       DOS:  cpu time    0.0010: real time    0.0010
    CHARGE:  cpu time    0.4593: real time    0.4621
    MIXING:  cpu time    0.0065: real time    0.0065
    --------------------------------------------
      LOOP:  cpu time    5.5080: real time    5.5449

 eigenvalue-minimisations  :  1022
 total energy-change (2. order) :-0.1143077E-03  (-0.1635195E-04)
 number of electron     376.0000049 magnetization 
 augmentation part      112.9581086 magnetization 

 Broyden mixing:
  rms(total) = 0.49109E-02    rms(broyden)= 0.49104E-02
  rms(prec ) = 0.64420E-02
  weight for this iteration     100.00

 eigenvalues of (default mixing * dielectric matrix)
  average eigenvalue GAMMA=   0.7429
  2.6007  2.0264  1.2292  0.9640  0.9640  0.6264  0.5128  0.1240  0.4386  0.3697
  0.3110  0.2764  0.2510  0.2289  0.2201

 Free energy of the ion-electron system (eV)
  ---------------------------------------------------
  alpha Z        PSCENC =       975.10247152
  Ewald energy   TEWEN  =     90983.27332829
  -Hartree energ DENC   =   -119679.11095221
  -exchange      EXHF   =         0.00000000
  -V(xc)+E(xc)   XCENC  =       178.34881678
  PAW double counting   =     30131.92062264   -29217.94251447
  entropy T*S    EENTRO =        -0.02731417
  eigenvalues    EBANDS =      -861.36553309
  atomic energy  EATOM  =     27259.89416086
  Solvation  Ediel_sol  =         0.00000000
  ---------------------------------------------------
  free energy    TOTEN  =      -229.90691385 eV

  energy without entropy =     -229.87959968  energy(sigma->0) =     -229.89780912


--------------------------------------------------------------------------------------------------------




--------------------------------------- Iteration      1(  21)  ---------------------------------------


    POTLOK:  cpu time    0.1665: real time    0.1677
    SETDIJ:  cpu time    0.0107: real time    0.0107
    EDDIAG:  cpu time    1.4481: real time    1.4580
  RMM-DIIS:  cpu time    3.1030: real time    3.1245
    ORTHCH:  cpu time    0.2258: real time    0.2272
       DOS:  cpu time    0.0011: real time    0.0011
    CHARGE:  cpu time    0.4839: real time    0.4870
    MIXING:  cpu time    0.0070: real time    0.0070
    --------------------------------------------
      LOOP:  cpu time    5.4459: real time    5.4832

 eigenvalue-minimisations  :   996
 total energy-change (2. order) :-0.1469453E-03  (-0.6138477E-05)
 number of electron     376.0000049 magnetization 
 augmentation part      112.9587782 magnetization 

 Broyden mixing:
  rms(total) = 0.29323E-02    rms(broyden)= 0.29310E-02
  rms(prec ) = 0.43275E-02
  weight for this iteration     100.00

 eigenvalues of (default mixing * dielectric matrix)
  average eigenvalue GAMMA=   0.7409
  2.6179  2.1558  1.2220  1.0133  1.0133  0.7273  0.4907  0.4907  0.1240  0.4169
  0.3291  0.2977  0.2610  0.2466  0.2201  0.2287

 Free energy of the ion-electron system (eV)
  ---------------------------------------------------
  alpha Z        PSCENC =       975.10247152
  Ewald energy   TEWEN  =     90983.27332829
  -Hartree energ DENC   =   -119679.52749319
  -exchange      EXHF   =         0.00000000
  -V(xc)+E(xc)   XCENC  =       178.35230188
  PAW double counting   =     30131.73235578   -29217.73936625
  entropy T*S    EENTRO =        -0.02757960
  eigenvalues    EBANDS =      -860.96724010
  atomic energy  EATOM  =     27259.89416086
  Solvation  Ediel_sol  =         0.00000000
  ---------------------------------------------------
  free energy    TOTEN  =      -229.90706079 eV

  energy without entropy =     -229.87948119  energy(sigma->0) =     -229.89786759


--------------------------------------------------------------------------------------------------------




--------------------------------------- Iteration      1(  22)  ---------------------------------------


    POTLOK:  cpu time    0.1366: real time    0.1376
    SETDIJ:  cpu time    0.0097: real time    0.0097
    EDDIAG:  cpu time    1.5317: real time    1.5417
  RMM-DIIS:  cpu time    3.1053: real time    3.1259
    ORTHCH:  cpu time    0.2391: real time    0.2406
       DOS:  cpu time    0.0012: real time    0.0012
    CHARGE:  cpu time    0.5056: real time    0.5089
    MIXING:  cpu time    0.0080: real time    0.0080
    --------------------------------------------
      LOOP:  cpu time    5.5371: real time    5.5735

 eigenvalue-minimisations  :   973
 total energy-change (2. order) :-0.1241983E-03  (-0.3063520E-05)
 number of electron     376.0000049 magnetization 
 augmentation part      112.9589321 magnetization 

 Broyden mixing:
  rms(total) = 0.24444E-02    rms(broyden)= 0.24433E-02
  rms(prec ) = 0.37739E-02
  weight for this iteration     100.00

 eigenvalues of (default mixing * dielectric matrix)
  average eigenvalue GAMMA=   0.7587
  2.6216  2.3287  1.2466  1.1591  1.1591  0.7952  0.5580  0.5580  0.4356  0.1240
  0.3702  0.3153  0.2849  0.2541  0.2409  0.2197  0.2277

 Free energy of the ion-electron system (eV)
  ---------------------------------------------------
  alpha Z        PSCENC =       975.10247152
  Ewald energy   TEWEN  =     90983.27332829
  -Hartree energ DENC   =   -119679.87977343
  -exchange      EXHF   =         0.00000000
  -V(xc)+E(xc)   XCENC  =       178.35463598
  PAW double counting   =     30130.91994753   -29216.91202505
  entropy T*S    EENTRO =        -0.02764554
  eigenvalues    EBANDS =      -860.63228516
  atomic energy  EATOM  =     27259.89416086
  Solvation  Ediel_sol  =         0.00000000
  ---------------------------------------------------
  free energy    TOTEN  =      -229.90718499 eV

  energy without entropy =     -229.87953945  energy(sigma->0) =     -229.89796981


--------------------------------------------------------------------------------------------------------




--------------------------------------- Iteration      1(  23)  ---------------------------------------


    POTLOK:  cpu time    0.1128: real time    0.1135
    SETDIJ:  cpu time    0.0105: real time    0.0106
    EDDIAG:  cpu time    1.5045: real time    1.5141
  RMM-DIIS:  cpu time    3.1161: real time    3.1370
    ORTHCH:  cpu time    0.2130: real time    0.2142
       DOS:  cpu time    0.0011: real time    0.0012
    CHARGE:  cpu time    0.4618: real time    0.4649
    MIXING:  cpu time    0.0072: real time    0.0072
    --------------------------------------------
      LOOP:  cpu time    5.4271: real time    5.4626

 eigenvalue-minimisations  :   961
 total energy-change (2. order) :-0.1928383E-03  (-0.3112270E-05)
 number of electron     376.0000049 magnetization 
 augmentation part      112.9584261 magnetization 

 Broyden mixing:
  rms(total) = 0.17361E-02    rms(broyden)= 0.17357E-02
  rms(prec ) = 0.26963E-02
  weight for this iteration     100.00

 eigenvalues of (default mixing * dielectric matrix)
  average eigenvalue GAMMA=   0.7799
  2.6255  2.6255  1.4051  1.2462  1.2462  0.7895  0.7156  0.4900  0.4900  0.1240
  0.4034  0.3544  0.3042  0.2849  0.2517  0.2199  0.2357  0.2272

 Free energy of the ion-electron system (eV)
  ---------------------------------------------------
  alpha Z        PSCENC =       975.10247152
  Ewald energy   TEWEN  =     90983.27332829
  -Hartree energ DENC   =   -119680.34650819
  -exchange      EXHF   =         0.00000000
  -V(xc)+E(xc)   XCENC  =       178.35649992
  PAW double counting   =     30129.64035665   -29215.61487371
  entropy T*S    EENTRO =        -0.02755377
  eigenvalues    EBANDS =      -860.18525941
  atomic energy  EATOM  =     27259.89416086
  Solvation  Ediel_sol  =         0.00000000
  ---------------------------------------------------
  free energy    TOTEN  =      -229.90737783 eV

  energy without entropy =     -229.87982406  energy(sigma->0) =     -229.89819324


--------------------------------------------------------------------------------------------------------




--------------------------------------- Iteration      1(  24)  ---------------------------------------


    POTLOK:  cpu time    0.1306: real time    0.1315
    SETDIJ:  cpu time    0.0119: real time    0.0120
    EDDIAG:  cpu time    1.9120: real time    1.9248
  RMM-DIIS:  cpu time    4.1435: real time    4.1729
    ORTHCH:  cpu time    0.2765: real time    0.2782
       DOS:  cpu time    0.0013: real time    0.0013
    CHARGE:  cpu time    0.7949: real time    0.8001
    MIXING:  cpu time    0.0119: real time    0.0120
    --------------------------------------------
      LOOP:  cpu time    7.2826: real time    7.3327

 eigenvalue-minimisations  :   859
 total energy-change (2. order) :-0.2079707E-03  (-0.2860252E-05)
 number of electron     376.0000049 magnetization 
 augmentation part      112.9580882 magnetization 

 Broyden mixing:
  rms(total) = 0.11966E-02    rms(broyden)= 0.11964E-02
  rms(prec ) = 0.17878E-02
  weight for this iteration     100.00

 eigenvalues of (default mixing * dielectric matrix)
  average eigenvalue GAMMA=   0.7949
  2.9285  2.5636  1.6267  1.2281  1.2281  0.8731  0.7452  0.5787  0.5211  0.1240
  0.4477  0.3879  0.3359  0.3042  0.2772  0.2520  0.2199  0.2344  0.2266

 Free energy of the ion-electron system (eV)
  ---------------------------------------------------
  alpha Z        PSCENC =       975.10247152
  Ewald energy   TEWEN  =     90983.27332829
  -Hartree energ DENC   =   -119680.84995071
  -exchange      EXHF   =         0.00000000
  -V(xc)+E(xc)   XCENC  =       178.35808675
  PAW double counting   =     30128.38448691   -29214.34498309
  entropy T*S    EENTRO =        -0.02740451
  eigenvalues    EBANDS =      -859.69778183
  atomic energy  EATOM  =     27259.89416086
  Solvation  Ediel_sol  =         0.00000000
  ---------------------------------------------------
  free energy    TOTEN  =      -229.90758580 eV

  energy without entropy =     -229.88018129  energy(sigma->0) =     -229.89845096


--------------------------------------------------------------------------------------------------------




--------------------------------------- Iteration      1(  25)  ---------------------------------------


    POTLOK:  cpu time    0.1800: real time    0.1813
    SETDIJ:  cpu time    0.0118: real time    0.0119
    EDDIAG:  cpu time    2.0936: real time    2.1072
  RMM-DIIS:  cpu time    3.7901: real time    3.8171
    ORTHCH:  cpu time    0.2812: real time    0.2830
[...]
     83      -2.3213      2.00000
     84      -2.3038      2.00000
     85      -2.2318      2.00000
     86      -2.2218      2.00000
     87      -2.2093      2.00000
     88      -2.1909      2.00000
     89      -2.1699      2.00000
     90      -2.1580      2.00000
     91      -2.1236      2.00000
     92      -2.1084      2.00000
     93      -2.0660      2.00000
     94      -2.0048      2.00000
     95      -1.9808      2.00000
     96      -1.9704      2.00000
     97      -1.9388      2.00000
     98      -1.8988      2.00000
     99      -1.8803      2.00000
    100      -1.8593      2.00000
    101      -1.8074      2.00000
    102      -1.7902      2.00000
    103      -1.7548      2.00000
    104      -1.7309      2.00000
    105      -1.7043      2.00000
    106      -1.6840      2.00000
    107      -1.6666      2.00000
    108      -1.6484      2.00000
    109      -1.5965      2.00000
    110      -1.5784      2.00000
    111      -1.5448      2.00000
    112      -1.5136      2.00000
    113      -1.4646      2.00000
    114      -1.4306      2.00000
    115      -1.3282      2.00000
    116      -1.3019      2.00000
    117      -1.2240      2.00000
    118      -1.2023      2.00000
    119      -1.1444      2.00000
    120      -1.1295      2.00000
    121      -1.0932      2.00000
    122      -1.0530      2.00000
    123      -1.0426      2.00000
    124      -1.0345      2.00000
    125      -0.9991      2.00000
    126      -0.9873      2.00000
    127      -0.9609      2.00000
    128      -0.9584      2.00000
    129      -0.9314      2.00000
    130      -0.9117      2.00000
    131      -0.8832      2.00000
    132      -0.8386      2.00000
    133      -0.7962      2.00000
    134      -0.7665      2.00000
    135      -0.7311      2.00000
    136      -0.7031      2.00000
    137      -0.6941      2.00000
    138      -0.6720      2.00000
    139      -0.6338      2.00000
    140      -0.5693      2.00000
    141      -0.4932      2.00000
    142      -0.4880      2.00000
    143      -0.3956      2.00000
    144      -0.3273      2.00000
    145      -0.2865      2.00000
    146      -0.2210      2.00000
    147      -0.1934      2.00000
    148      -0.1828      2.00000
    149      -0.1285      2.00000
    150      -0.0989      2.00000
    151      -0.0771      2.00000
    152       0.0188      2.00000
    153       0.0318      2.00000
    154       0.0540      2.00000
    155       0.0720      2.00000
    156       0.0884      2.00000
    157       0.1002      2.00000
    158       0.1296      2.00000
    159       0.1618      2.00000
    160       0.1769      2.00000
    161       0.2351      2.00000
    162       0.2665      2.00000
    163       0.2902      2.00000
    164       0.3201      2.00000
    165       0.3412      2.00000
    166       0.3999      2.00002
    167       0.4968      2.00041
    168       0.5373      2.00113
    169       0.5650      2.00215
    170       0.5965      2.00425
    171       0.6047      2.00504
    172       0.6591      2.01377
    173       0.7006      2.02602
    174       0.7506      2.04723
    175       0.7615      2.05225
    176       0.7798      2.06027
    177       0.8179      2.07071
    178       0.8431      2.06746
    179       0.8821      2.03265
    180       0.8989      2.00196
    181       0.9160      1.95885
    182       0.9789      1.67840
    183       1.0112      1.46112
    184       1.0658      1.02041
    185       1.0680      1.00209
    186       1.0851      0.85796
    187       1.1049      0.69521
    188       1.1183      0.59084
    189       1.1332      0.48083
    190       1.1414      0.42406
    191       1.2792     -0.05986
    192       1.3104     -0.07085
    193       1.3315     -0.06864
    194       1.3483     -0.06350
    195       1.3854     -0.04742
    196       1.4678     -0.01610
    197       1.5469     -0.00368
    198       1.6963     -0.00008
    199       1.7940     -0.00000
    200       1.9250     -0.00000
    201       2.2458     -0.00000
    202       2.3149     -0.00000
    203       2.7582     -0.00000
    204       2.8986     -0.00000
    205       2.9364     -0.00000
    206       2.9567     -0.00000
    207       2.9809     -0.00000
    208       3.2085     -0.00000
    209       3.3283     -0.00000
    210       3.4938     -0.00000
    211       3.5404     -0.00000
    212       3.5865     -0.00000
    213       3.6883     -0.00000
    214       3.7911     -0.00000
    215       3.8844     -0.00000
    216       4.1486     -0.00000
    217       4.1655     -0.00000
    218       4.3734     -0.00000
    219       4.3799     -0.00000
    220       4.6091     -0.00000
    221       4.6181     -0.00000
    222       4.7702     -0.00000
    223       5.0740     -0.00000
    224       5.5192     -0.00000
    225       5.8123     -0.00000
    226       6.4841     -0.00000
    227       6.5067     -0.00000
    228       6.6454      0.00000


--------------------------------------------------------------------------------------------------------


 soft charge-density along one line, spin component           1
         0         1         2         3         4         5         6         7         8         9
 total charge-density along one line
 
 pseudopotential strength for first ion, spin component:           1
 10.090   0.015   0.003   0.007  -0.000  -0.002  -0.006   0.000
  0.015  -0.002  -0.000  -0.000  -0.000  -0.000  -0.000   0.000
  0.003  -0.000  -4.248  -0.004   0.001  -0.008  -0.002   0.000
  0.007  -0.000  -0.004  -4.259   0.003  -0.002  -0.013   0.000
 -0.000  -0.000   0.001   0.003  -4.247   0.000   0.000  -0.008
 -0.002  -0.000  -0.008  -0.002   0.000  -0.770  -0.000   0.000
 -0.006  -0.000  -0.002  -0.013   0.000  -0.000  -0.770   0.000
  0.000   0.000   0.000   0.000  -0.008   0.000   0.000  -0.770
 total augmentation occupancy for first ion, spin component:           1
  1.617  -0.787  -0.005  -0.023  -0.057   0.025   0.068  -0.028
 -0.787   1.047  -0.156  -0.446   0.115  -0.064  -0.192   0.038
 -0.005  -0.156   0.831   0.170   0.010   0.107   0.048  -0.005
 -0.023  -0.446   0.170   1.267  -0.014   0.048   0.233  -0.011
 -0.057   0.115   0.010  -0.014   0.791  -0.005  -0.012   0.095
  0.025  -0.064   0.107   0.048  -0.005   0.017   0.018  -0.003
  0.068  -0.192   0.048   0.233  -0.012   0.018   0.064  -0.007
 -0.028   0.038  -0.005  -0.011   0.095  -0.003  -0.007   0.013


------------------------ aborting loop because EDIFF is reached ----------------------------------------


    CHARGE:  cpu time    0.7498: real time    0.7554
    FORLOC:  cpu time    0.0512: real time    0.0515
    FORNL :  cpu time    3.4640: real time    3.4918
    STRESS:  cpu time   10.5859: real time   10.6650
    FORCOR:  cpu time    0.1953: real time    0.1965
    FORHAR:  cpu time    0.0924: real time    0.0930
    MIXING:  cpu time    0.0063: real time    0.0063
    OFIELD:  cpu time    0.0000: real time    0.0000

  FORCE on cell =-STRESS in cart. coord.  units (eV):
  Direction    XX          YY          ZZ          XY          YZ          ZX
  --------------------------------------------------------------------------------------
  Alpha Z   975.10247   975.10247   975.10247
  Ewald  110808.94986110810.22659************  -197.57563   230.01759   -75.48745
  Hartree117553.88406117529.01925************  -130.83131    94.41617   -43.50578
  E(xc)   -1665.54462 -1665.25890 -1673.11430    -0.47187     0.62716    -0.22673
  Local  ************************239036.30033   317.54253  -301.89208   113.67384
  n-local   123.09733   122.28099    89.79627    -1.64638     2.22002     0.29549
  augment  1894.71310  1892.72959  1934.07341     3.03713    -4.54438     0.56895
  Kinetic  5521.26926  5512.12446  5601.85267    10.73210   -21.31870     6.82400
  Fock        0.00000     0.00000     0.00000     0.00000     0.00000     0.00000
  -------------------------------------------------------------------------------------
  Total     -36.60864   -39.34758    -6.25116     0.78656    -0.47421     2.14232
  in kB     -43.60150   -46.86362    -7.44523     0.93681    -0.56480     2.55154
  external pressure =      -32.64 kB  Pullay stress =        0.00 kB


 VOLUME and BASIS-vectors are now :
 -----------------------------------------------------------------------------
  energy-cutoff  :      450.00
  volume of cell :     1345.22
      direct lattice vectors                 reciprocal lattice vectors
     7.296955120 -4.212899000  0.000000000     0.137043463  0.000000000  0.000000000
     0.000000000  8.425798000  0.000000000     0.068521732  0.118683121  0.000000000
     0.000000000  0.000000000 21.879635000     0.000000000  0.000000000  0.045704602

  length of vectors
     8.425798004  8.425798000 21.879635000     0.137043463  0.137043463  0.045704602


 FORCES acting on ions
    electron-ion (+dipol)            ewald-force                    non-local-force                 convergence-correction
 -----------------------------------------------------------------------------------------------
   -.538E+01 0.444E+01 -.901E+03   0.463E+01 -.744E+01 0.894E+03   0.577E-01 0.331E+01 0.103E+02   0.358E-02 -.718E-02 -.375E-01
   -.764E+02 0.545E+02 -.160E+04   0.768E+02 -.512E+02 0.162E+04   0.707E-02 -.295E+01 -.237E+02   0.953E-02 -.142E-01 -.369E-01
   0.584E+02 -.940E+02 -.155E+04   -.676E+02 0.112E+03 0.160E+04   0.101E+02 -.184E+02 -.550E+02   0.208E-02 0.248E-02 -.343E-01
   -.671E-01 0.781E-02 0.234E+04   0.128E+00 0.150E-01 -.233E+04   0.280E-02 -.377E-01 -.119E+01   -.181E-01 -.404E-01 -.520E-01
   0.482E+00 -.677E+00 0.234E+04   -.495E+00 0.623E+00 -.234E+04   0.940E-02 -.131E-01 -.110E+01   -.616E-01 0.158E-03 -.396E-01
   -.114E+01 -.470E+00 0.234E+04   0.104E+01 0.513E+00 -.234E+04   0.293E-01 -.200E-01 -.112E+01   0.362E-01 -.349E-01 -.144E-01
   0.969E+00 0.806E+00 0.234E+04   -.959E+00 -.835E+00 -.234E+04   -.931E-02 0.224E-01 -.114E+01   0.245E-01 0.394E-01 -.273E-01
   0.606E+00 0.932E+00 0.234E+04   -.659E+00 -.916E+00 -.234E+04   0.232E-01 -.769E-02 -.127E+01   0.522E-02 0.367E-01 -.503E-01
   -.387E+00 0.346E+00 0.234E+04   0.341E+00 -.461E+00 -.234E+04   0.126E-01 0.160E-01 -.118E+01   0.580E-01 0.760E-01 -.165E-01
   0.233E+00 -.390E+00 0.234E+04   -.579E-01 0.295E+00 -.234E+04   -.899E-01 0.101E+00 -.108E+01   -.421E-01 -.368E-01 -.132E-01
   -.115E+01 0.164E+00 0.234E+04   0.108E+01 -.522E-01 -.234E+04   0.121E-01 -.192E-01 -.125E+01   0.388E-01 -.411E-01 -.149E-01
   0.494E+00 -.737E+00 0.234E+04   -.410E+00 0.815E+00 -.234E+04   -.157E-01 -.184E-01 -.107E+01   -.409E-01 0.110E-02 -.186E-01
   0.455E+01 -.119E+02 0.859E+03   -.466E+01 0.120E+02 -.859E+03   0.123E-01 0.830E-01 -.591E+00   -.259E-01 -.534E-01 -.410E-01
   -.659E+01 -.190E+01 0.862E+03   0.654E+01 0.195E+01 -.862E+03   0.137E+00 0.176E-01 -.384E+00   0.986E-03 -.331E-01 0.210E-01
   -.669E+01 0.652E+00 0.853E+03   0.685E+01 -.687E+00 -.853E+03   0.845E-01 -.464E-01 -.652E-01   -.468E-01 -.374E-01 -.825E-01
   0.671E+01 0.229E+01 0.852E+03   -.680E+01 -.240E+01 -.852E+03   -.613E-01 0.418E-01 -.575E-01   -.117E-01 0.287E-02 -.657E-01
   -.837E+01 -.108E+01 0.858E+03   0.830E+01 0.115E+01 -.858E+03   0.193E+00 0.818E-02 -.325E+00   0.351E-01 -.163E-01 0.137E-01
   0.619E+00 -.364E+01 0.850E+03   -.541E+00 0.360E+01 -.850E+03   -.700E-01 0.126E+00 -.212E-01   -.275E-01 0.582E-02 -.235E-01
   0.418E+01 0.109E+02 0.863E+03   -.421E+01 -.109E+02 -.863E+03   -.613E-01 -.303E+00 -.495E+00   0.132E-01 0.504E-01 -.436E-01
   -.382E+01 0.330E+01 0.863E+03   0.385E+01 -.333E+01 -.862E+03   0.453E-01 -.355E-01 -.432E+00   0.499E-01 0.493E-01 -.486E-01
   0.955E+01 0.304E+01 0.857E+03   -.957E+01 -.293E+01 -.857E+03   -.183E+00 -.860E-01 -.268E+00   0.127E-01 0.316E-01 -.678E-01
   -.332E+01 -.472E+01 -.647E+03   0.318E+01 0.461E+01 0.647E+03   0.310E+00 0.171E+00 -.169E+00   -.138E-01 0.373E-01 0.550E-01
   0.555E+01 -.646E+01 -.624E+03   -.563E+01 0.649E+01 0.623E+03   -.803E-01 0.448E-01 0.813E+00   0.385E-01 0.462E-01 0.296E-01
   0.904E+01 -.116E+02 -.634E+03   -.909E+01 0.119E+02 0.634E+03   -.173E+00 0.754E-01 0.574E+00   -.727E-01 -.493E-02 0.184E-01
   -.106E+02 0.777E+01 -.659E+03   0.102E+02 -.696E+01 0.660E+03   0.433E+00 -.551E+00 -.161E+01   -.170E-01 -.219E-01 0.269E-01
   0.426E+01 0.615E+01 -.619E+03   -.364E+01 -.612E+01 0.619E+03   -.567E+00 -.154E+00 0.105E+01   0.408E-01 -.565E-01 -.645E-02
   -.992E+01 -.337E+01 -.595E+03   0.984E+01 0.319E+01 0.595E+03   0.183E+00 0.135E+00 0.148E+01   0.282E-01 -.139E-01 -.223E-01
   -.140E+01 0.269E+01 -.642E+03   0.138E+01 -.271E+01 0.641E+03   0.169E+00 -.170E+00 -.135E+00   -.370E-01 0.292E-01 0.382E-02
   0.238E+01 0.313E+01 -.624E+03   -.242E+01 -.319E+01 0.624E+03   -.869E-01 -.554E-01 0.838E+00   0.449E-01 0.116E-01 0.354E-01
   0.275E+01 0.813E+01 -.664E+03   -.276E+01 -.825E+01 0.664E+03   0.439E-02 -.105E+00 -.446E+00   -.168E-01 -.226E-01 0.590E-02
   -.274E+02 -.149E+02 -.213E+04   0.278E+02 0.150E+02 0.213E+04   -.236E+00 -.640E-01 0.155E+01   0.264E-01 0.355E-01 0.296E-01
   0.145E+02 0.289E+02 -.213E+04   -.152E+02 -.294E+02 0.213E+04   0.775E+00 0.535E+00 0.148E+01   -.281E-01 0.832E-02 0.563E-02
   0.434E+02 -.799E+01 -.216E+04   -.434E+02 0.788E+01 0.215E+04   -.297E+00 0.229E+00 0.766E+00   0.109E-01 0.108E-01 0.229E-01
   -.276E+01 -.138E+00 -.213E+04   0.291E+01 -.372E+00 0.213E+04   -.259E+00 0.493E+00 0.154E+01   -.241E-01 0.606E-02 0.302E-01
   0.215E+02 0.181E+02 -.216E+04   -.214E+02 -.183E+02 0.216E+04   -.350E+00 0.320E+00 0.471E+00   0.405E-01 -.460E-01 -.775E-02
   0.670E+02 0.792E+02 -.196E+04   -.699E+02 -.774E+02 0.196E+04   0.279E+01 -.208E+01 -.423E+01   0.454E-02 -.317E-01 -.361E-02
   -.662E+02 -.488E+02 -.208E+04   0.677E+02 0.514E+02 0.208E+04   -.140E+01 -.277E+01 0.213E+01   0.144E-01 -.152E-01 0.181E-01
   -.529E+02 0.868E+02 -.203E+04   0.533E+02 -.875E+02 0.203E+04   -.444E+00 0.670E+00 -.719E+00   -.259E-01 0.675E-02 0.164E-01
   0.164E+02 -.871E+02 -.214E+04   -.165E+02 0.882E+02 0.214E+04   -.811E-01 -.828E+00 0.116E+01   -.132E-01 0.311E-01 0.219E-01
 -----------------------------------------------------------------------------------------------
   -.109E+02 0.224E+02 0.754E+02   -.568E-13 0.199E-12 -.500E-11   0.109E+02 -.223E+02 -.749E+02   0.155E-01 -.914E-02 -.414E+00
 
 
 POSITION                                       TOTAL-FORCE (eV/Angst)
 -----------------------------------------------------------------------------------
      5.13126      0.68599     10.32920        -0.686829      0.301256      3.010692
      6.65192     -0.60180     10.15681         0.453752      0.377104      0.274579
      4.94045      1.06397     11.44853         0.835158     -0.754302     -2.438157
      7.20031     -1.38846      1.62732         0.044465     -0.059229      0.117690
      2.33567      1.42014      1.62732        -0.067021     -0.071280      0.127327
      4.76799      0.01584      1.62732        -0.040586     -0.016330      0.125464
      7.20031      1.42015      1.62732         0.024234      0.028476      0.149197
      2.33567      4.22875      1.62732        -0.026036      0.041010      0.120875
      4.76799      2.82445      1.62732         0.023013     -0.027104      0.230017
      2.33567      7.03734      1.62732         0.042028     -0.034437     -0.016301
      4.76799      5.63304      1.62732        -0.028453      0.047623      0.119229
      7.20031      4.22874      1.62732         0.025455      0.056706      0.063639
      1.52490      0.01584      3.92052        -0.126766      0.173135     -0.300785
      3.95722     -1.38846      3.92052         0.093488      0.034840     -0.238646
      6.38953     -2.79276      3.92052         0.197025     -0.122723     -0.029224
      1.52490      2.82445      3.92052        -0.158637     -0.067451      0.129828
      3.95722      1.42015      3.92052         0.155647      0.052526     -0.033891
      6.38953      0.01585      3.92052        -0.021366      0.087620      0.254696
      1.52490      5.63305      3.92052        -0.083069     -0.204542     -0.251147
      3.95722      4.22874      3.92052         0.122686     -0.028580     -0.184582
      6.38953      2.82445      3.92052        -0.189674      0.049756     -0.157375
      0.68332      4.19452      6.24978         0.153328      0.090068     -0.480315
      3.14111      5.62220      6.16047        -0.119377      0.114829      0.289612
      5.59238     -1.41369      6.19956        -0.299611      0.339037      0.247965
      0.71587      1.41893      6.28605         0.037067      0.230857     -0.752852
      3.15834      0.01605      6.15484         0.090093     -0.178494      0.767717
      0.70942      7.01189      6.11653         0.128685     -0.056710      0.813878
      5.56191      4.22395      6.22729         0.108288     -0.166145     -0.399471
      3.15379      2.81450      6.17804        -0.083861     -0.106256      0.359855
      5.57791      1.42443      6.28807        -0.020040     -0.246622     -0.650040
      2.34175      4.19237      8.44421         0.247759      0.092824      0.159281
      4.73592      5.59946      8.46442         0.035321      0.035377     -0.024716
      2.36090      1.38139      8.56382        -0.262263      0.129168     -0.515235
      7.24122      4.15967      8.42003        -0.135132     -0.015105      0.602454
      2.35739      6.99269      8.54033        -0.196260      0.008376     -0.514991
      4.64538      0.05060      8.63690        -0.123488     -0.295157     -0.881396
      7.25909      1.45351      8.51775         0.070456     -0.102381     -0.095643
      7.24222     -1.51845      8.56468        -0.086318     -0.002173      0.392565
      4.78822      2.83089      8.57409        -0.133164      0.264432     -0.391792
 -----------------------------------------------------------------------------------
    total drift:                                0.054964      0.152765      0.048842
  FORCES: max atom, RMS     3.102701    0.769713
  Number: max atom                 1
  FORCE total and by dimension    4.806854    3.010692


--------------------------------------------------------------------------------------------------------



  FREE ENERGIE OF THE ION-ELECTRON SYSTEM (eV)
  ---------------------------------------------------
  free  energy   TOTEN  =      -230.30563951 eV

  energy  without entropy=     -230.28050465  energy(sigma->0) =     -230.29726123
 
 d Force = 0.7990408E-01[-0.722E-01, 0.232E+00]  d Energy = 0.7022401E-01 0.968E-02
 d Force = 0.7976785E+01[ 0.719E+01, 0.876E+01]  d Ewald  = 0.7962169E+01 0.146E-01


--------------------------------------------------------------------------------------------------------


    POTLOK:  cpu time    0.1863: real time    0.2742


--------------------------------------------------------------------------------------------------------


 stress matrix after NEB project (eV)
    -36.60864      0.78656      2.14232
      0.78656    -39.34758     -0.47421
      2.14232     -0.47421     -6.25116
  FORCES: max atom, RMS     3.102701    0.769713
  FORCE total and by dimension    4.806854    3.010692
  Stress total and by dimension   54.206717   39.347582
 Quasi-Newton relaxation of ions (Broydens 2nd method)
  g(Force)  = 0.446E+00   g(Stress)= 0.000E+00

 retain information from N=  2 steps
 eigenvalues of (default step * inverse Hessian matrix)
  average eigenvalue of G=   0.5643
 eigenvalue spectrum of G is  0.5643  0.5643
  RESET_HESSIAN           0


--------------------------------------------------------------------------------------------------------


    WAVPRE:  cpu time    0.0712: real time    0.2578
    FEWALD:  cpu time    0.0013: real time    0.0013

 real space projection operators:
  total allocation   :      13549.59 KBytes
  max/ min on nodes  :       6781.52       6768.08

    ORTHCH:  cpu time    1.3979: real time    1.4227
     LOOP+:  cpu time  115.9475: real time  117.2167
