 running on    8 total cores
 distrk:  each k-point on    8 cores,    1 groups
 distr:  one band on    2 cores,    4 groups
 using from now: INCAR     
 vasp.5.4.4 16052018 (build Apr 24 2014 20:13:14) complex standard
 Contain Constrained Minimization Technique (TS), Periodic NBO, VASPsol, libbeef, VASP2WANNIER90, Constrained Cell Relaxation
 POSCAR found type information on POSCAR  C  O  Pt
 POSCAR found :  3 types and      39 ions
 scaLAPACK will be used
 LDA part: xc-table for Pade appr. of Perdew
 POSCAR found type information on POSCAR  C  O  Pt
 POSCAR found :  3 types and      39 ions
 POSCAR, INCAR and KPOINTS ok, starting setup
 FFT: planning ...
 WAVECAR not read
 entering main loop
       N       E                     dE             d eps       ncg     rms          rms(c)
DAV:   1     0.242309665290E+04    0.24231E+04   -0.15954E+05  1824   0.129E+03
DAV:   2    -0.630760223296E+02   -0.24862E+04   -0.23054E+04  2120   0.286E+02
DAV:   3    -0.240658001711E+03   -0.17758E+03   -0.16114E+03  2168   0.692E+01
DAV:   4    -0.248434944536E+03   -0.77769E+01   -0.74847E+01  2336   0.138E+01
DAV:   5    -0.248668355174E+03   -0.23341E+00   -0.23170E+00  2368   0.246E+00    0.277E+01
RMM:   6    -0.245898897110E+03    0.27695E+01   -0.57011E+01  1828   0.150E+01    0.293E+01
RMM:   7    -0.240518043317E+03    0.53809E+01   -0.33193E+01  1829   0.910E+00    0.195E+01
RMM:   8    -0.244427120268E+03   -0.39091E+01   -0.91143E+00  1827   0.477E+00    0.233E+01
RMM:   9    -0.231782248602E+03    0.12645E+02   -0.40682E+00  1831   0.325E+00    0.921E+00
RMM:  10    -0.230519032040E+03    0.12632E+01   -0.15218E+00  1831   0.200E+00    0.520E+00
RMM:  11    -0.230094717088E+03    0.42431E+00   -0.46083E-01  1831   0.108E+00    0.302E+00
RMM:  12    -0.229978636637E+03    0.11608E+00   -0.19991E-01  1837   0.701E-01    0.211E+00
RMM:  13    -0.229963327327E+03    0.15309E-01   -0.13269E-01  1831   0.598E-01    0.194E+00
RMM:  14    -0.229920987448E+03    0.42340E-01   -0.88181E-02  1831   0.509E-01    0.920E-01
RMM:  15    -0.229910896771E+03    0.10091E-01   -0.32005E-02  1830   0.313E-01    0.584E-01
RMM:  16    -0.229907626740E+03    0.32700E-02   -0.74580E-03  1831   0.145E-01    0.332E-01
RMM:  17    -0.229906562333E+03    0.10644E-02   -0.24046E-03  1823   0.850E-02    0.172E-01
RMM:  18    -0.229906684149E+03   -0.12182E-03   -0.96004E-04  1811   0.535E-02    0.134E-01
RMM:  19    -0.229906799538E+03   -0.11539E-03   -0.48652E-04  1458   0.389E-02    0.755E-02
RMM:  20    -0.229906913845E+03   -0.11431E-03   -0.16352E-04  1022   0.239E-02    0.491E-02
RMM:  21    -0.229907060791E+03   -0.14695E-03   -0.61385E-05   996   0.142E-02    0.293E-02
RMM:  22    -0.229907184989E+03   -0.12420E-03   -0.30635E-05   973   0.967E-03    0.244E-02
RMM:  23    -0.229907377827E+03   -0.19284E-03   -0.31123E-05   961   0.870E-03    0.174E-02
RMM:  24    -0.229907585798E+03   -0.20797E-03   -0.28603E-05   859   0.800E-03    0.120E-02
RMM:  25    -0.229907745077E+03   -0.15928E-03   -0.18227E-05   696   0.643E-03    0.100E-02
RMM:  26    -0.229907889958E+03   -0.14488E-03   -0.16143E-05   681   0.607E-03    0.845E-03
RMM:  27    -0.229908026448E+03   -0.13649E-03   -0.13357E-05   582   0.556E-03    0.693E-03
RMM:  28    -0.229908119835E+03   -0.93387E-04   -0.86816E-06   442   0.497E-03
   1 F= -.22990812E+03 E0= -.22989897E+03  d E =-.229908E+03
 BRION: g(F)=  0.485E+00 g(S)=  0.000E+00
 bond charge predicted
       N       E                     dE             d eps       ncg     rms          rms(c)
DAV:   1    -0.230168945165E+03   -0.26092E+00   -0.47566E+01  1832   0.122E+01    0.984E-01
RMM:   2    -0.230254774952E+03   -0.85830E-01   -0.93059E-01  1834   0.198E+00    0.111E+00
RMM:   3    -0.230253046965E+03    0.17280E-02   -0.68686E-02  1848   0.459E-01    0.117E+00
RMM:   4    -0.230249931668E+03    0.31153E-02   -0.13293E-02  1855   0.192E-01    0.922E-01
RMM:   5    -0.230240305870E+03    0.96258E-02   -0.58873E-03  1835   0.126E-01    0.528E-01
RMM:   6    -0.230237583194E+03    0.27227E-02   -0.99784E-03  1830   0.165E-01    0.343E-01
RMM:   7    -0.230236949779E+03    0.63341E-03   -0.64218E-03  1830   0.137E-01    0.276E-01
RMM:   8    -0.230235735957E+03    0.12138E-02   -0.20813E-03  1820   0.784E-02    0.123E-01
RMM:   9    -0.230235547830E+03    0.18813E-03   -0.48606E-04  1492   0.381E-02    0.807E-02
RMM:  10    -0.230235422890E+03    0.12494E-03   -0.15033E-04   983   0.226E-02    0.334E-02
RMM:  11    -0.230235415502E+03    0.73885E-05   -0.84532E-05   959   0.172E-02
   2 F= -.23023542E+03 E0= -.23022698E+03  d E =-.327296E+00
 BRION: g(F)=  0.395E+00 g(S)=  0.000E+00 retain N=  1 mean eig= 0.67
 eig:   0.667
 bond charge predicted
       N       E                     dE             d eps       ncg     rms          rms(c)
DAV:   1    -0.230279997396E+03   -0.44575E-01   -0.13365E+01  1832   0.658E+00    0.737E-01
RMM:   2    -0.230319549947E+03   -0.39553E-01   -0.46737E-01  1836   0.117E+00    0.694E-01
RMM:   3    -0.230313754629E+03    0.57953E-02   -0.19854E-02  1843   0.237E-01    0.589E-01
RMM:   4    -0.230319688091E+03   -0.59335E-02   -0.82191E-03  1844   0.148E-01    0.876E-01
RMM:   5    -0.230312436766E+03    0.72513E-02   -0.98034E-03  1830   0.160E-01    0.675E-01
RMM:   6    -0.230307242719E+03    0.51940E-02   -0.63600E-03  1829   0.132E-01    0.325E-01
RMM:   7    -0.230305964206E+03    0.12785E-02   -0.26542E-03  1824   0.854E-02    0.168E-01
RMM:   8    -0.230305733352E+03    0.23085E-03   -0.61986E-04  1651   0.424E-02    0.110E-01
RMM:   9    -0.230305582442E+03    0.15091E-03   -0.20625E-04  1019   0.267E-02    0.383E-02
RMM:  10    -0.230305639514E+03   -0.57073E-04   -0.86525E-05   963   0.177E-02
   3 F= -.23030564E+03 E0= -.23029726E+03  d E =-.702240E-01
 BRION: g(F)=  0.446E+00 g(S)=  0.000E+00 retain N=  2 mean eig= 0.56
 eig:   0.564  0.564
 bond charge predicted
       N       E                     dE             d eps       ncg     rms          rms(c)
[mpiexec@node11] Sending Ctrl-C to processes as requested
[mpiexec@node11] Press Ctrl-C again to force abort
Ctrl-C caught... cleaning up processes
APPLICATION TERMINATED WITH THE EXIT STRING: Hangup (signal 1)
