metal                                   
           1
     7.296955   -4.212899    0.000000
     0.000000    8.425798    0.000000
     0.000000    0.000000   21.879635
   C    O    Pt
   1   2  36
Direct configuration=     1
   0.70379158  0.43530409  0.47154159
   0.90933056  0.38250042  0.46412892
   0.67565504  0.46215997  0.52143012
   0.98675500  0.32859100  0.07437600
   0.32008800  0.32859100  0.07437600
   0.65342200  0.32859100  0.07437600
   0.98675500  0.66192500  0.07437600
   0.32008800  0.66192500  0.07437600
   0.65342200  0.66192500  0.07437600
   0.32008800  0.99525800  0.07437600
   0.65342200  0.99525800  0.07437600
   0.98675500  0.99525800  0.07437600
   0.20897700  0.10636900  0.17918600
   0.54231100  0.10636900  0.17918600
   0.87564400  0.10636900  0.17918600
   0.20897700  0.43970300  0.17918600
   0.54231100  0.43970300  0.17918600
   0.87564400  0.43970300  0.17918600
   0.20897700  0.77303600  0.17918600
   0.54231100  0.77303600  0.17918600
   0.87564400  0.77303600  0.17918600
   0.09288208  0.54377483  0.28661806
   0.43137671  0.88214794  0.28096530
   0.76835432  0.21442739  0.28293053
   0.09717825  0.21567123  0.28889524
   0.43201566  0.21881692  0.27975789
   0.09631162  0.88080122  0.27801828
   0.76186461  0.88327207  0.28540932
   0.43281686  0.55101465  0.28167217
   0.76471719  0.55280528  0.28852816
   0.31935426  0.65680312  0.38565932
   0.64915163  0.98889860  0.38685777
   0.32455263  0.32573632  0.39224809
   0.99290593  0.99102574  0.38362132
   0.32370583  0.99163193  0.39125794
   0.63825741  0.32816280  0.39739630
   0.99407917  0.66961920  0.38943968
   0.99302653  0.31600288  0.39049437
   0.65702197  0.66281858  0.39245769
Direct configuration=     2
   0.70343425  0.43493631  0.47315846
   0.91079539  0.38360671  0.46412661
   0.67694525  0.46357114  0.52196733
   0.98675500  0.32859100  0.07437600
   0.32008800  0.32859100  0.07437600
   0.65342200  0.32859100  0.07437600
   0.98675500  0.66192500  0.07437600
   0.32008800  0.66192500  0.07437600
   0.65342200  0.66192500  0.07437600
   0.32008800  0.99525800  0.07437600
   0.65342200  0.99525800  0.07437600
   0.98675500  0.99525800  0.07437600
   0.20897700  0.10636900  0.17918600
   0.54231100  0.10636900  0.17918600
   0.87564400  0.10636900  0.17918600
   0.20897700  0.43970300  0.17918600
   0.54231100  0.43970300  0.17918600
   0.87564400  0.43970300  0.17918600
   0.20897700  0.77303600  0.17918600
   0.54231100  0.77303600  0.17918600
   0.87564400  0.77303600  0.17918600
   0.09338412  0.54436362  0.28593656
   0.43071479  0.88241228  0.28138435
   0.76696401  0.21513224  0.28320839
   0.09795944  0.21700574  0.28775608
   0.43262416  0.21850510  0.28083450
   0.09697082  0.88078643  0.27907347
   0.76205453  0.88262681  0.28485675
   0.43237545  0.55038828  0.28214973
   0.76446406  0.55167810  0.28776180
   0.32046095  0.65765653  0.38584927
   0.64900337  0.98900388  0.38687000
   0.32395481  0.32573976  0.39169544
   0.99256048  0.99009329  0.38447462
   0.32337420  0.99158867  0.39063134
   0.63663807  0.32466558  0.39509357
   0.99464399  0.66993054  0.38935608
   0.99263910  0.31607582  0.39117969
   0.65644843  0.66377110  0.39208868
Direct configuration=     3
   0.70320523  0.43301841  0.47209178
   0.91160147  0.38437772  0.46421287
   0.67705703  0.46480433  0.52325065
   0.98675500  0.32859100  0.07437600
   0.32008800  0.32859100  0.07437600
   0.65342200  0.32859100  0.07437600
   0.98675500  0.66192500  0.07437600
   0.32008800  0.66192500  0.07437600
   0.65342200  0.66192500  0.07437600
   0.32008800  0.99525800  0.07437600
   0.65342200  0.99525800  0.07437600
   0.98675500  0.99525800  0.07437600
   0.20897700  0.10636900  0.17918600
   0.54231100  0.10636900  0.17918600
   0.87564400  0.10636900  0.17918600
   0.20897700  0.43970300  0.17918600
   0.54231100  0.43970300  0.17918600
   0.87564400  0.43970300  0.17918600
   0.20897700  0.77303600  0.17918600
   0.54231100  0.77303600  0.17918600
   0.87564400  0.77303600  0.17918600
   0.09364421  0.54464030  0.28564382
   0.43046791  0.88249422  0.28156188
   0.76639869  0.21541807  0.28334826
   0.09810567  0.21745543  0.28730144
   0.43283051  0.21832044  0.28130429
   0.09722152  0.88080406  0.27955364
   0.76222400  0.88242404  0.28461582
   0.43220637  0.55013690  0.28236469
   0.76441563  0.55126337  0.28739379
   0.32092140  0.65802434  0.38593903
   0.64902699  0.98907472  0.38686287
   0.32354528  0.32572021  0.39140588
   0.99236217  0.98986347  0.38483405
   0.32306537  0.99144754  0.39033225
   0.63661929  0.32431473  0.39474617
   0.99481123  0.66991271  0.38930058
   0.99249897  0.31603458  0.39144539
   0.65619459  0.66407595  0.39187515
