       N       E                     dE             d eps       ncg     rms          rms(c)
DAV:   1     0.241603658905E+04    0.24160E+04   -0.15948E+05  1824   0.129E+03
DAV:   2    -0.638735877322E+02   -0.24799E+04   -0.23010E+04  2112   0.286E+02
DAV:   3    -0.240966186048E+03   -0.17709E+03   -0.16014E+03  2144   0.689E+01
DAV:   4    -0.248835936048E+03   -0.78698E+01   -0.75934E+01  2408   0.138E+01
DAV:   5    -0.249047186703E+03   -0.21125E+00   -0.20873E+00  2368   0.230E+00    0.275E+01
RMM:   6    -0.247047569634E+03    0.19996E+01   -0.54543E+01  1830   0.148E+01    0.303E+01
RMM:   7    -0.237467783456E+03    0.95798E+01   -0.33678E+01  1830   0.906E+00    0.168E+01
RMM:   8    -0.235482027358E+03    0.19858E+01   -0.69597E+00  1831   0.461E+00    0.182E+01
RMM:   9    -0.233822584418E+03    0.16594E+01   -0.21599E+00  1831   0.229E+00    0.146E+01
RMM:  10    -0.230925111909E+03    0.28975E+01   -0.14440E+00  1831   0.186E+00    0.516E+00
RMM:  11    -0.230409107654E+03    0.51600E+00   -0.46537E-01  1831   0.109E+00    0.307E+00
RMM:  12    -0.230292293461E+03    0.11681E+00   -0.18276E-01  1833   0.656E-01    0.294E+00
RMM:  13    -0.230228902238E+03    0.63391E-01   -0.15842E-01  1832   0.673E-01    0.197E+00
RMM:  14    -0.230191107831E+03    0.37794E-01   -0.12564E-01  1831   0.617E-01    0.124E+00
RMM:  15    -0.230174733662E+03    0.16374E-01   -0.39438E-02  1831   0.330E-01    0.700E-01
RMM:  16    -0.230169304939E+03    0.54287E-02   -0.86090E-03  1834   0.153E-01    0.347E-01
RMM:  17    -0.230168482461E+03    0.82248E-03   -0.24024E-03  1821   0.836E-02    0.243E-01
RMM:  18    -0.230168594590E+03   -0.11213E-03   -0.19912E-03  1820   0.745E-02    0.168E-01
RMM:  19    -0.230168627212E+03   -0.32622E-04   -0.70303E-04  1668   0.454E-02
   1 F= -.23016863E+03 E0= -.23016753E+03  d E =-.230169E+03
       N       E                     dE             d eps       ncg     rms          rms(c)
DAV:   1    -0.230327068485E+03   -0.15847E+00   -0.22643E+01  1844   0.904E+00    0.653E-01
RMM:   2    -0.230390225536E+03   -0.63157E-01   -0.49091E-01  1834   0.141E+00    0.135E+00
RMM:   3    -0.230376844248E+03    0.13381E-01   -0.30998E-02  1870   0.309E-01    0.832E-01
RMM:   4    -0.230368936572E+03    0.79077E-02   -0.79007E-03  1852   0.149E-01    0.500E-01
RMM:   5    -0.230366097830E+03    0.28387E-02   -0.33251E-03  1837   0.947E-02    0.367E-01
RMM:   6    -0.230365567794E+03    0.53004E-03   -0.35407E-03  1827   0.101E-01    0.239E-01
RMM:   7    -0.230365557788E+03    0.10006E-04   -0.32578E-03  1829   0.982E-02    0.192E-01
RMM:   8    -0.230365067289E+03    0.49050E-03   -0.95044E-04  1779   0.530E-02    0.735E-02
RMM:   9    -0.230365060017E+03    0.72719E-05   -0.14808E-04   990   0.225E-02
   2 F= -.23036506E+03 E0= -.23036271E+03  d E =-.196433E+00
       N       E                     dE             d eps       ncg     rms          rms(c)
DAV:   1    -0.230423079423E+03   -0.58012E-01   -0.93115E+00  1832   0.591E+00    0.518E-01
RMM:   2    -0.230461286351E+03   -0.38207E-01   -0.31377E-01  1846   0.979E-01    0.100E+00
RMM:   3    -0.230451700145E+03    0.95862E-02   -0.14406E-02  1851   0.206E-01    0.640E-01
RMM:   4    -0.230446997527E+03    0.47026E-02   -0.44604E-03  1840   0.114E-01    0.405E-01
RMM:   5    -0.230445176307E+03    0.18212E-02   -0.29161E-03  1823   0.847E-02    0.325E-01
RMM:   6    -0.230444758221E+03    0.41809E-03   -0.49774E-03  1826   0.118E-01    0.249E-01
RMM:   7    -0.230443907769E+03    0.85045E-03   -0.21113E-03  1820   0.772E-02    0.139E-01
RMM:   8    -0.230443633696E+03    0.27407E-03   -0.51558E-04  1526   0.392E-02    0.646E-02
RMM:   9    -0.230443591569E+03    0.42128E-04   -0.11586E-04   984   0.202E-02
   3 F= -.23044359E+03 E0= -.23044063E+03  d E =-.785316E-01
       N       E                     dE             d eps       ncg     rms          rms(c)
