 vasp.5.4.4 16052018 (build Apr 24 2014 20:13:14) complex standard
 Contain Constrained Minimization Technique (TS), Periodic NBO, VASPsol, libbeef, VASP2WANNIER90, Constrained Cell Relaxation
 executed on Center for Computational Chemistry by phu@node06 date 2025.09.27 23:37:34
 running on    8 total cores
 distrk:  each k-point on    8 cores,    1 groups
 distr:  one band on NCORES_PER_BAND=   2 cores,    4 groups


--------------------------------------------------------------------------------------------------------


 INCAR:
 POTCAR:   PAW_PBE C 08Apr2002                    
 POTCAR:   PAW_PBE O 08Apr2002                    
 POTCAR:    PAW_PBE Pt 04Feb2005                  
 POTCAR:   PAW_PBE C 08Apr2002                    
   VRHFIN =C: s2p2                                                              
   LEXCH  = PE                                                                  
   EATOM  =   147.1560 eV,   10.8157 Ry                                         
                                                                                
   TITEL  = PAW_PBE C 08Apr2002                                                 
   LULTRA =        F    use ultrasoft PP ?                                      
   IUNSCR =        0    unscreen: 0-lin 1-nonlin 2-no                           
   RPACOR =     .000    partial core radius                                     
   POMASS =   12.011; ZVAL   =    4.000    mass and valenz                      
   RCORE  =    1.500    outmost cutoff radius                                   
   RWIGS  =    1.630; RWIGS  =     .863    wigner-seitz radius (au A)           
   ENMAX  =  400.000; ENMIN  =  300.000 eV                                      
   ICORE  =        2    local potential                                         
   LCOR   =        T    correct aug charges                                     
   LPAW   =        T    paw PP                                                  
   EAUG   =  644.873                                                            
   DEXC   =     .000                                                            
   RMAX   =    2.266    core radius for proj-oper                               
   RAUG   =    1.300    factor for augmentation sphere                          
   RDEP   =    1.501    radius for radial grids                                 
   RDEPT  =    1.300    core radius for aug-charge                              
   QCUT   =   -5.516; QGAM   =   11.032    optimization parameters              
                                                                                
   Description                                                                  
     l     E      TYP  RCUT    TYP  RCUT                                        
     0   .000     23  1.200                                                     
     0   .000     23  1.200                                                     
     1   .000     23  1.500                                                     
     1  2.500     23  1.500                                                     
     2   .000      7  1.500                                                     
  local pseudopotential read in
  atomic valenz-charges read in
  non local Contribution for L=           0  read in
    real space projection operators read in
  non local Contribution for L=           0  read in
    real space projection operators read in
  non local Contribution for L=           1  read in
    real space projection operators read in
  non local Contribution for L=           1  read in
    real space projection operators read in
    PAW grid and wavefunctions read in
 
   number of l-projection  operators is LMAX  =           4
   number of lm-projection operators is LMMAX =           8
 
 POTCAR:   PAW_PBE O 08Apr2002                    
   VRHFIN =O: s2p4                                                              
   LEXCH  = PE                                                                  
   EATOM  =   432.3788 eV,   31.7789 Ry                                         
                                                                                
   TITEL  = PAW_PBE O 08Apr2002                                                 
   LULTRA =        F    use ultrasoft PP ?                                      
   IUNSCR =        0    unscreen: 0-lin 1-nonlin 2-no                           
   RPACOR =     .000    partial core radius                                     
   POMASS =   16.000; ZVAL   =    6.000    mass and valenz                      
   RCORE  =    1.520    outmost cutoff radius                                   
   RWIGS  =    1.550; RWIGS  =     .820    wigner-seitz radius (au A)           
   ENMAX  =  400.000; ENMIN  =  300.000 eV                                      
   ICORE  =        2    local potential                                         
   LCOR   =        T    correct aug charges                                     
   LPAW   =        T    paw PP                                                  
   EAUG   =  605.392                                                            
   DEXC   =     .000                                                            
   RMAX   =    2.264    core radius for proj-oper                               
   RAUG   =    1.300    factor for augmentation sphere                          
   RDEP   =    1.550    radius for radial grids                                 
   QCUT   =   -5.520; QGAM   =   11.041    optimization parameters              
                                                                                
   Description                                                                  
     l     E      TYP  RCUT    TYP  RCUT                                        
     0   .000     23  1.200                                                     
     0  -.700     23  1.200                                                     
     1   .000     23  1.520                                                     
     1   .600     23  1.520                                                     
     2   .000      7  1.500                                                     
  local pseudopotential read in
  atomic valenz-charges read in
  non local Contribution for L=           0  read in
    real space projection operators read in
  non local Contribution for L=           0  read in
    real space projection operators read in
  non local Contribution for L=           1  read in
    real space projection operators read in
  non local Contribution for L=           1  read in
    real space projection operators read in
    PAW grid and wavefunctions read in
 
   number of l-projection  operators is LMAX  =           4
   number of lm-projection operators is LMMAX =           8
 
 POTCAR:    PAW_PBE Pt 04Feb2005                  
   VRHFIN =Pt: s1d9                                                             
   LEXCH  = PE                                                                  
   EATOM  =   729.1182 eV,   53.5887 Ry                                         
                                                                                
   TITEL  = PAW_PBE Pt 04Feb2005                                                
   LULTRA =        F    use ultrasoft PP ?                                      
   IUNSCR =        1    unscreen: 0-lin 1-nonlin 2-no                           
   RPACOR =    2.330    partial core radius                                     
   POMASS =  195.080; ZVAL   =   10.000    mass and valenz                      
   RCORE  =    2.600    outmost cutoff radius                                   
   RWIGS  =    2.750; RWIGS  =    1.455    wigner-seitz radius (au A)           
   ENMAX  =  230.283; ENMIN  =  172.712 eV                                      
   ICORE  =        3    local potential                                         
   LCOR   =        T    correct aug charges                                     
   LPAW   =        T    paw PP                                                  
   EAUG   =  358.966                                                            
   DEXC   =     .000                                                            
   RMAX   =    3.038    core radius for proj-oper                               
   RAUG   =    1.300    factor for augmentation sphere                          
   RDEP   =    2.761    radius for radial grids                                 
   QCUT   =   -4.114; QGAM   =    8.228    optimization parameters              
                                                                                
   Description                                                                  
     l     E      TYP  RCUT    TYP  RCUT                                        
     2   .000     23  2.500                                                     
     2   .000     23  2.500                                                     
     0   .000     23  2.500                                                     
     0   .000     23  2.500                                                     
     1  -.200     23  2.600                                                     
     1  1.500     23  2.600                                                     
     3   .000     23  2.500                                                     
  local pseudopotential read in
  partial core-charges read in
  atomic valenz-charges read in
  non local Contribution for L=           2  read in
    real space projection operators read in
  non local Contribution for L=           2  read in
    real space projection operators read in
  non local Contribution for L=           0  read in
    real space projection operators read in
  non local Contribution for L=           0  read in
    real space projection operators read in
  non local Contribution for L=           1  read in
    real space projection operators read in
  non local Contribution for L=           1  read in
    real space projection operators read in
    PAW grid and wavefunctions read in
 
   number of l-projection  operators is LMAX  =           6
   number of lm-projection operators is LMMAX =          18
 
 Optimization of the real space projectors (new method)

 maximal supplied QI-value         = 25.13
 optimisation between [QCUT,QGAM] = [ 10.81, 21.61] = [ 32.71,130.83] Ry 
 Optimized for a Real-space Cutoff    1.23 Angstroem

   l    n(q)    QCUT    max X(q) W(low)/X(q) W(high)/X(q)  e(spline) 
   0      8    10.807     5.582    0.53E-04    0.84E-04    0.44E-07
   0      8    10.807    69.432    0.35E-03    0.71E-03    0.24E-06
   1      7    10.807     2.780    0.44E-04    0.88E-04    0.89E-07
   1      7    10.807     4.549    0.14E-03    0.28E-03    0.13E-06
 Optimization of the real space projectors (new method)

 maximal supplied QI-value         = 24.76
 optimisation between [QCUT,QGAM] = [ 10.64, 21.54] = [ 31.73,129.89] Ry 
 Optimized for a Real-space Cutoff    1.23 Angstroem

   l    n(q)    QCUT    max X(q) W(low)/X(q) W(high)/X(q)  e(spline) 
   0      8    10.645     4.192    0.69E-04    0.93E-04    0.58E-07
   0      8    10.645     8.473    0.40E-03    0.65E-03    0.17E-06
   1      7    10.645     2.474    0.80E-04    0.12E-03    0.30E-07
   1      7    10.645     3.912    0.24E-03    0.53E-03    0.16E-06
 Optimization of the real space projectors (new method)

 maximal supplied QI-value         = 14.36
 optimisation between [QCUT,QGAM] = [ 10.77, 21.69] = [ 32.49,131.70] Ry 
 Optimized for a Real-space Cutoff    1.46 Angstroem

   l    n(q)    QCUT    max X(q) W(low)/X(q) W(high)/X(q)  e(spline) 
   2      9    10.771     3.903    0.38E-04    0.12E-03    0.82E-07
   2      9    10.771    18.372    0.13E-03    0.32E-03    0.28E-06
   0     10    10.771    13.697    0.11E-04    0.86E-05    0.85E-08
   0     10    10.771    65.529    0.40E-04    0.12E-03    0.14E-06
   1      9    10.771     7.604    0.48E-04    0.31E-04    0.38E-07
   1      9    10.771    12.136    0.35E-03    0.16E-03    0.23E-06
 PAW_PBE C 08Apr2002                    :
 energy of atom  1       EATOM= -147.1560
 kinetic energy error for atom=    0.0116 (will be added to EATOM!!)
 PAW_PBE O 08Apr2002                    :
 energy of atom  2       EATOM= -432.3788
 kinetic energy error for atom=    0.0389 (will be added to EATOM!!)
  PAW_PBE Pt 04Feb2005                  :
 energy of atom  3       EATOM= -729.1182
 kinetic energy error for atom=    0.0051 (will be added to EATOM!!)
 
 
 POSCAR: C    O    Pt                            
  positions in direct lattice
  No initial velocities read in
 exchange correlation table for  LEXCH =        8
   RHO(1)=    0.500       N(1)  =     2000
   RHO(2)=  100.500       N(2)  =     4000

 VTST: version 3.2, (02/03/18)

 CHAIN: initializing optimizer
 
 OPT: Using VASP QUASI-newton optimizer
 CHAIN: Read ICHAIN            0
 
 POSCAR: C    O    Pt                            
  positions in direct lattice
  No initial velocities read in
 


--------------------------------------------------------------------------------------------------------


 ion  position               nearest neighbor table
   1  0.701  0.433  0.476-   3 1.16  36 1.92   2 1.99
   2  0.907  0.384  0.470-   1 1.99  38 2.11  36 2.60
   3  0.672  0.460  0.526-   1 1.16
   4  0.987  0.329  0.074-  15 2.81  16 2.81  12 2.81   5 2.81  11 2.81   6 2.81  18 2.81   8 2.81
                             7 2.81
   5  0.320  0.329  0.074-  13 2.81  10 2.81   4 2.81  12 2.81  16 2.81  17 2.81   8 2.81   9 2.81
                             6 2.81
   6  0.653  0.329  0.074-  14 2.81  18 2.81  11 2.81   4 2.81  17 2.81   7 2.81  10 2.81   9 2.81
                             5 2.81
   7  0.987  0.662  0.074-  18 2.81  21 2.81  19 2.81  12 2.81   8 2.81  10 2.81   9 2.81   6 2.81
                             4 2.81
   8  0.320  0.662  0.074-  16 2.81  19 2.81  10 2.81   7 2.81  20 2.81   4 2.81  11 2.81   5 2.81
                             9 2.81
   9  0.653  0.662  0.074-  17 2.81  20 2.81  21 2.81  11 2.81  12 2.81   7 2.81   6 2.81   5 2.81
                             8 2.81
  10  0.320  0.995  0.074-  13 2.81  19 2.81   5 2.81   8 2.81  12 2.81   7 2.81  14 2.81   6 2.81
                            11 2.81
  11  0.653  0.995  0.074-  14 2.81  20 2.81  15 2.81   9 2.81   6 2.81  12 2.81   4 2.81   8 2.81
                            10 2.81
  12  0.987  0.995  0.074-  15 2.81  21 2.81  13 2.81   7 2.81   4 2.81  10 2.81   5 2.81  11 2.81
                             9 2.81
  13  0.209  0.106  0.179-  25 2.79  10 2.81   5 2.81  12 2.81  19 2.81  15 2.81  21 2.81  16 2.81
                            17 2.81  14 2.81  27 2.82  26 2.85
  14  0.542  0.106  0.179-   6 2.81  11 2.81  20 2.81  15 2.81  10 2.81  18 2.81  19 2.81  17 2.81
                            13 2.81  26 2.81  23 2.83  24 2.85
  15  0.876  0.106  0.179-  25 2.78  12 2.81   4 2.81  11 2.81  21 2.81  13 2.81  14 2.81  20 2.81
                            16 2.81  18 2.81  28 2.82  24 2.85
  16  0.209  0.440  0.179-  25 2.75   8 2.81   4 2.81  19 2.81  18 2.81   5 2.81  15 2.81  20 2.81
                            13 2.81  17 2.81  29 2.81  22 2.82
  17  0.542  0.440  0.179-  29 2.77  30 2.77   9 2.81  20 2.81  21 2.81  18 2.81   6 2.81   5 2.81
                            14 2.81  16 2.81  13 2.81  26 2.82
  18  0.876  0.440  0.179-  30 2.78  22 2.80   7 2.81   6 2.81  21 2.81  19 2.81  16 2.81  17 2.81
                             4 2.81  14 2.81  15 2.81  24 2.85
  19  0.209  0.773  0.179-  22 2.79  10 2.81   8 2.81   7 2.81  16 2.81  13 2.81  21 2.81  18 2.81
                            14 2.81  20 2.81  23 2.83  27 2.85
  20  0.542  0.773  0.179-  28 2.79  29 2.80   9 2.81  11 2.81  17 2.81  14 2.81  15 2.81  21 2.81
                             8 2.81  16 2.81  19 2.81  23 2.85
  21  0.876  0.773  0.179-  30 2.79  28 2.79   7 2.81  12 2.81   9 2.81  18 2.81  15 2.81  19 2.81
                            13 2.81  17 2.81  20 2.81  27 2.82
  22  0.097  0.554  0.284-  31 2.70  37 2.73  23 2.79  19 2.79  25 2.80  30 2.80  18 2.80  27 2.82
                            16 2.82  24 2.82  38 2.86  29 2.87
  23  0.429  0.885  0.286-  31 2.68  32 2.78  22 2.79  26 2.79  35 2.81  27 2.81  24 2.82  19 2.83
                            14 2.83  28 2.84  20 2.85  29 2.86
  24  0.764  0.218  0.286-  26 2.77  32 2.78  30 2.80  38 2.80  25 2.81  23 2.82  22 2.82  28 2.85
                            14 2.85  18 2.85  15 2.85  36 2.93
  25  0.099  0.223  0.282-  38 2.73  16 2.75  15 2.78  29 2.79  13 2.79  22 2.80  24 2.81  27 2.82
                            26 2.85  28 2.86  33 2.88  34 2.92
  26  0.436  0.220  0.285-  30 2.76  24 2.77  29 2.77  33 2.79  23 2.79  14 2.81  17 2.82  27 2.84
                            13 2.85  25 2.85  36 2.85  35 2.90
  27  0.096  0.887  0.285-  37 2.69  28 2.78  34 2.80  23 2.81  22 2.82  25 2.82  13 2.82  21 2.82
                            30 2.83  26 2.84  19 2.85  35 2.87
  28  0.763  0.880  0.284-  27 2.78  29 2.78  30 2.78  21 2.79  20 2.79  32 2.81  15 2.82  39 2.84
                            23 2.84  24 2.85  25 2.86  34 2.89
  29  0.435  0.548  0.283-  31 2.74  30 2.76  17 2.77  26 2.77  28 2.78  25 2.79  20 2.80  16 2.81
                            33 2.86  23 2.86  22 2.87  39 2.87
  30  0.763  0.549  0.283-  29 2.76  26 2.76  17 2.77  28 2.78  18 2.78  21 2.79  24 2.80  22 2.80
                            27 2.83  37 2.84  39 2.88  36 2.97
  31  0.320  0.661  0.383-  23 2.68  22 2.70  29 2.74  37 2.75  35 2.77  32 2.80  38 2.81  39 2.84
                            33 2.86
  32  0.653  0.991  0.388-  39 2.77  24 2.78  35 2.78  23 2.78  31 2.80  28 2.81  34 2.82  38 2.83
                            36 2.88
  33  0.325  0.324  0.390-  36 2.66  38 2.75  26 2.79  34 2.80  35 2.81  39 2.83  29 2.86  31 2.86
                            25 2.88
  34  0.989  0.995  0.392-  38 2.70  37 2.76  39 2.79  33 2.80  27 2.80  35 2.82  32 2.82  28 2.89
                            25 2.92
  35  0.322  0.990  0.393-  37 2.71  36 2.76  31 2.77  32 2.78  33 2.81  23 2.81  34 2.82  27 2.87
                            26 2.90
  36  0.641  0.326  0.396-   1 1.92   2 2.60  33 2.66  35 2.76  39 2.79  26 2.85  32 2.88  24 2.93
                            30 2.97  37 2.98  38 3.03
  37  0.999  0.672  0.385-  27 2.69  35 2.71  22 2.73  31 2.75  34 2.76  30 2.84  39 2.85  38 2.97
                            36 2.98
  38  0.996  0.318  0.388-   2 2.11  34 2.70  25 2.73  33 2.75  24 2.80  31 2.81  32 2.83  22 2.86
                            37 2.97  36 3.03
  39  0.657  0.664  0.391-  32 2.77  36 2.79  34 2.79  33 2.83  28 2.84  31 2.84  37 2.85  29 2.87
                            30 2.88
 

IMPORTANT INFORMATION: All symmetrisations will be switched off!
NOSYMM: (Re-)initialisation of all symmetry stuff for point group C_1.

 
 
 KPOINTS: mesh auto                               

Automatic generation of k-mesh.
Space group operators:
 irot       det(A)        alpha          n_x          n_y          n_z        tau_x        tau_y        tau_z
    1     1.000000     0.000000     1.000000     0.000000     0.000000     0.000000     0.000000     0.000000
 
 Subroutine IBZKPT returns following result:
 ===========================================
 
 Found      4 irreducible k-points:
 
 Following reciprocal coordinates:
            Coordinates               Weight
  0.000000  0.000000  0.000000      1.000000
  0.500000  0.000000  0.000000      1.000000
 -0.000000  0.500000  0.000000      1.000000
  0.500000  0.500000  0.000000      1.000000
 
 Following cartesian coordinates:
            Coordinates               Weight
  0.000000  0.000000  0.000000      1.000000
  0.068522  0.000000  0.000000      1.000000
  0.034261  0.059342  0.000000      1.000000
  0.102783  0.059342  0.000000      1.000000
 


--------------------------------------------------------------------------------------------------------




 Dimension of arrays:
   k-points           NKPTS =      4   k-points in BZ     NKDIM =      4   number of bands    NBANDS=    228
   number of dos      NEDOS =    301   number of ions     NIONS =     39
   non local maximal  LDIM  =      6   non local SUM 2l+1 LMDIM =     18
   total plane-waves  NPLWV = 276480
   max r-space proj   IRMAX =   2756   max aug-charges    IRDMAX=  12646
   dimension x,y,z NGX =    48 NGY =   48 NGZ =  120
   dimension x,y,z NGXF=    96 NGYF=   96 NGZF=  240
   support grid    NGXF=    96 NGYF=   96 NGZF=  240
   ions per type =               1   2  36
   NGX,Y,Z   is equivalent  to a cutoff of   9.47,  9.47,  9.12 a.u.
   NGXF,Y,Z  is equivalent  to a cutoff of  18.94, 18.94, 18.24 a.u.

 SYSTEM =  metal                                   
 POSCAR =  C    O    Pt                            

 Startparameter for this run:
   NWRITE =      2    write-flag & timer
   PREC   = normal    normal or accurate (medium, high low for compatibility)
   ISTART =      0    job   : 0-new  1-cont  2-samecut
   ICHARG =      2    charge: 1-file 2-atom 10-const
   ISPIN  =      1    spin polarized calculation?
   LNONCOLLINEAR =      F non collinear calculations
   LSORBIT =      F    spin-orbit coupling
   INIWAV =      1    electr: 0-lowe 1-rand  2-diag
   LASPH  =      F    aspherical Exc in radial PAW
   METAGGA=      F    non-selfconsistent MetaGGA calc.

 Electronic Relaxation 1
   ENCUT  =  450.0 eV  33.07 Ry    5.75 a.u.  14.57 14.57 37.84*2*pi/ulx,y,z
   ENINI  =  450.0     initial cutoff
   ENAUG  =  644.9 eV  augmentation charge cutoff
   NELM   =     60;   NELMIN=  8; NELMDL= -5     # of ELM steps 
   EDIFF  = 0.1E-03   stopping-criterion for ELM
   LREAL  =      T    real-space projection
   NLSPLINE    = F    spline interpolate recip. space projectors
   LCOMPAT=      F    compatible to vasp.4.4
   GGA_COMPAT  = T    GGA compatible to vasp.4.4-vasp.4.6
   LMAXPAW     = -100 max onsite density
   LMAXMIX     =    2 max onsite mixed and CHGCAR
   VOSKOWN=      0    Vosko Wilk Nusair interpolation
   ROPT   =   -0.00050  -0.00050  -0.00050
 Ionic relaxation
   EDIFFG = -.5E-01   stopping-criterion for IOM
   NSW    =   5000    number of steps for IOM
   NBLOCK =      1;   KBLOCK =   5000    inner block; outer block 
   IBRION =      1    ionic relax: 0-MD 1-quasi-New 2-CG
   NFREE  =      0    steps in history (QN), initial steepest desc. (CG)
   ISIF   =      2    stress and relaxation
   IWAVPR =     11    prediction:  0-non 1-charg 2-wave 3-comb
   ISYM   =      0    0-nonsym 1-usesym 2-fastsym
   LCORR  =      T    Harris-Foulkes like correction to forces

   POTIM  = 0.2000    time-step for ionic-motion
   TEIN   =    0.0    initial temperature
   TEBEG  =    0.0;   TEEND  =   0.0 temperature during run
   SMASS  =  -3.00    Nose mass-parameter (am)
   estimated Nose-frequenzy (Omega)   =  0.10E-29 period in steps =****** mass=  -0.162E-26a.u.
   SCALEE = 1.0000    scale energy and forces
   NPACO  =    256;   APACO  = 16.0  distance and # of slots for P.C.
   PSTRESS=    0.0 pullay stress

  Mass of Ions in am
   POMASS =  12.01 16.00195.08
  Ionic Valenz
   ZVAL   =   4.00  6.00 10.00
  Atomic Wigner-Seitz radii
   RWIGS  =  -1.00 -1.00 -1.00
  virtual crystal weights 
   VCA    =   1.00  1.00  1.00
   NELECT =     376.0000    total number of electrons
   NUPDOWN=      -1.0000    fix difference up-down

 DOS related values:
   EMIN   =  10.00;   EMAX   =-10.00  energy-range for DOS
   EFERMI =   0.00
   ISMEAR =     1;   SIGMA  =   0.20  broadening in eV -4-tet -1-fermi 0-gaus

 Electronic relaxation 2 (details)
   IALGO  =     68    algorithm
   LDIAG  =      T    sub-space diagonalisation (order eigenvalues)
   LSUBROT=      F    optimize rotation matrix (better conditioning)
   TURBO    =      0    0=normal 1=particle mesh
   IRESTART =      0    0=no restart 2=restart with 2 vectors
   NREBOOT  =      0    no. of reboots
   NMIN     =      0    reboot dimension
   EREF     =   0.00    reference energy to select bands
   IMIX   =      4    mixing-type and parameters
     AMIX     =   0.40;   BMIX     =  1.00
     AMIX_MAG =   1.60;   BMIX_MAG =  1.00
     AMIN     =   0.10
     WC   =   100.;   INIMIX=   1;  MIXPRE=   1;  MAXMIX= -45

 Intra band minimization:
   WEIMIN = 0.0010     energy-eigenvalue tresh-hold
   EBREAK =  0.11E-06  absolut break condition
   DEPER  =   0.30     relativ break condition  

   TIME   =   0.40     timestep for ELM

  volume/ion in A,a.u.               =      34.49       232.77
  Fermi-wavevector in a.u.,A,eV,Ry     =   1.070385  2.022734 15.588510  1.145723
  Thomas-Fermi vector in A             =   2.206093
 
 Write flags
   LWAVE        =      F    write WAVECAR
   LDOWNSAMPLE  =      F    k-point downsampling of WAVECAR
   LCHARG       =      F    write CHGCAR
   LVTOT        =      F    write LOCPOT, total local potential
   LVHAR        =      F    write LOCPOT, Hartree potential only
   LELF         =      F    write electronic localiz. function (ELF)
   LORBIT       =      0    0 simple, 1 ext, 2 COOP (PROOUT), +10 PAW based schemes


 Dipole corrections
   LMONO  =      F    monopole corrections only (constant potential shift)
   LDIPOL =      F    correct potential (dipole corrections)
   IDIPOL =      0    1-x, 2-y, 3-z, 4-all directions 
   EPSILON=  1.0000000 bulk dielectric constant

 Exchange correlation treatment:
   GGA     =    --    GGA type
   LEXCH   =     8    internal setting for exchange type
   VOSKOWN=      0    Vosko Wilk Nusair interpolation
   LHFCALC =     F    Hartree Fock is set to
   LHFONE  =     F    Hartree Fock one center treatment
   AEXX    =    0.0000 exact exchange contribution

 Linear response parameters
   LEPSILON=     F    determine dielectric tensor
   LRPA    =     F    only Hartree local field effects (RPA)
   LNABLA  =     F    use nabla operator in PAW spheres
   LVEL    =     F    velocity operator in full k-point grid
   LINTERFAST=   F  fast interpolation
   KINTER  =     0    interpolate to denser k-point grid
   CSHIFT  =0.1000    complex shift for real part using Kramers Kronig
   OMEGAMAX=  -1.0    maximum frequency
   DEG_THRESHOLD= 0.2000000E-02 threshold for treating states as degnerate
   RTIME   =   -0.100 relaxation time in fs
  (WPLASMAI=    0.000 imaginary part of plasma frequency in eV, 0.658/RTIME)
   DFIELD  = 0.0000000 0.0000000 0.0000000 field for delta impulse in time
 
 Orbital magnetization related:
   ORBITALMAG=     F  switch on orbital magnetization
   LCHIMAG   =     F  perturbation theory with respect to B field
   DQ        =  0.001000  dq finite difference perturbation B field
   LLRAUG    =     F  two centre corrections for induced B field



--------------------------------------------------------------------------------------------------------


 quasi-Newton-method for relaxation of ions
   using selective dynamics as specified on POSCAR
 charge density and potential will be updated during run
 non-spin polarized calculation
 RMM-DIIS sequential band-by-band and
  variant of blocked Davidson during initial phase
 perform sub-space diagonalisation
    before iterative eigenvector-optimisation
 modified Broyden-mixing scheme, WC =      100.0
 initial mixing is a Kerker type mixing with AMIX =  0.4000 and BMIX =      1.0000
 Hartree-type preconditioning will be used
 using additional bands           40
 real space projection scheme for non local part
 use partial core corrections
 calculate Harris-corrections to forces 
   (improved forces if not selfconsistent)
 use gradient corrections 
 use of overlap-Matrix (Vanderbilt PP)
 Methfessel and Paxton  Order N= 1 SIGMA  =   0.20


--------------------------------------------------------------------------------------------------------


  energy-cutoff  :      450.00
  volume of cell :     1345.22
      direct lattice vectors                 reciprocal lattice vectors
     7.296955120 -4.212899000  0.000000000     0.137043463  0.000000000  0.000000000
     0.000000000  8.425798000  0.000000000     0.068521732  0.118683121  0.000000000
     0.000000000  0.000000000 21.879635000     0.000000000  0.000000000  0.045704602

  length of vectors
     8.425798004  8.425798000 21.879635000     0.137043463  0.137043463  0.045704602


 
 k-points in units of 2pi/SCALE and weight: mesh auto                               
   0.00000000  0.00000000  0.00000000       0.250
   0.06852173  0.00000000  0.00000000       0.250
   0.03426087  0.05934156  0.00000000       0.250
   0.10278260  0.05934156  0.00000000       0.250
 
 k-points in reciprocal lattice and weights: mesh auto                               
   0.00000000  0.00000000  0.00000000       0.250
   0.50000000  0.00000000  0.00000000       0.250
  -0.00000000  0.50000000  0.00000000       0.250
   0.50000000  0.50000000  0.00000000       0.250
 
 position of ions in fractional coordinates (direct lattice) 
   0.70063647  0.43307973  0.47605498
   0.90697696  0.38355368  0.46964747
   0.67249992  0.45993561  0.52594351
   0.98675500  0.32859100  0.07437600
   0.32008800  0.32859100  0.07437600
   0.65342200  0.32859100  0.07437600
   0.98675500  0.66192500  0.07437600
   0.32008800  0.66192500  0.07437600
   0.65342200  0.66192500  0.07437600
   0.32008800  0.99525800  0.07437600
   0.65342200  0.99525800  0.07437600
   0.98675500  0.99525800  0.07437600
   0.20897700  0.10636900  0.17918600
   0.54231100  0.10636900  0.17918600
   0.87564400  0.10636900  0.17918600
   0.20897700  0.43970300  0.17918600
   0.54231100  0.43970300  0.17918600
   0.87564400  0.43970300  0.17918600
   0.20897700  0.77303600  0.17918600
   0.54231100  0.77303600  0.17918600
   0.87564400  0.77303600  0.17918600
   0.09745956  0.55351804  0.28386707
   0.42851863  0.88462161  0.28553545
   0.76383402  0.21790362  0.28630187
   0.09948942  0.22283014  0.28211919
   0.43635565  0.21998242  0.28494513
   0.09583588  0.88684691  0.28529232
   0.76284699  0.87975248  0.28357588
   0.43514061  0.54839838  0.28306356
   0.76272844  0.54946178  0.28252504
   0.31969710  0.66101344  0.38274435
   0.65275305  0.99115512  0.38845210
   0.32485511  0.32412994  0.38999118
   0.98946649  0.99455421  0.39173617
   0.32224284  0.98995722  0.39275995
   0.64095916  0.32584081  0.39608943
   0.99886061  0.67211592  0.38540948
   0.99624774  0.31834736  0.38805643
   0.65733039  0.66432363  0.39149275
 
 position of ions in cartesian coordinates  (Angst):
   5.11251285  0.69733163 10.41590923
   6.61817014 -0.58925651 10.27571526
   4.90720174  1.04215029 11.50745209
   7.20030695 -1.38845776  1.62731973
   2.33566777  1.42014298  1.62731973
   4.76799101  0.01584050  1.62731973
   7.20030695  1.42014719  1.62731973
   2.33566777  4.22874793  1.62731973
   4.76799101  2.82444545  1.62731973
   2.33566777  7.03734445  1.62731973
   4.76799101  5.63304198  1.62731973
   7.20030695  4.22874371  1.62731973
   1.52489579  0.01584471  3.92052428
   3.95721903 -1.38845776  3.92052428
   6.38953497 -2.79275602  3.92052428
   1.52489579  2.82444966  3.92052428
   3.95721903  1.42014719  3.92052428
   6.38953497  0.01584893  3.92052428
   1.52489579  5.63304619  3.92052428
   3.95721903  4.22874371  3.92052428
   6.38953497  2.82444545  3.92052428
   0.71115800  4.25324394  6.21090785
   3.12688118  5.64833728  6.24741134
   5.57366259 -1.38194372  6.26418033
   0.72596985  1.45838283  6.17266499
   3.18406762  0.01520518  6.23449536
   0.69931015  7.06864604  6.24209182
   5.56646022  4.19881935  6.20453671
   3.17520150  2.78749055  6.19332741
   5.56559522  1.41635604  6.18154472
   2.33281538  4.22271411  8.37430669
   4.76310974  5.60129014  8.49919023
   2.37045313  1.36247168  8.53286465
   7.22009256  4.21139048  8.57104444
   2.35139153  6.98360304  8.59344431
   4.67705026  0.04517261  8.66629221
   7.28864102  1.45501412  8.43261879
   7.26957503 -1.51476054  8.49053300
   4.79651036  2.82819013  8.56571855
 


--------------------------------------------------------------------------------------------------------


 k-point  1 :   0.0000 0.0000 0.0000  plane waves:   29241
 k-point  2 :   0.5000 0.0000 0.0000  plane waves:   29108
 k-point  3 :  -0.0000 0.5000 0.0000  plane waves:   29108
 k-point  4 :   0.5000 0.5000 0.0000  plane waves:   29108

 maximum and minimum number of plane-waves per node :     14624    14548

 maximum number of plane-waves:     29241
 maximum index in each direction: 
   IXMAX=   14   IYMAX=   14   IZMAX=   37
   IXMIN=  -15   IYMIN=  -15   IZMIN=  -37


 real space projection operators:
  total allocation   :      13546.39 KBytes
  max/ min on nodes  :       6782.89       6763.50


 parallel 3D FFT for wavefunctions:
    minimum data exchange during FFTs selected (reduces bandwidth)
 parallel 3D FFT for charge:
    minimum data exchange during FFTs selected (reduces bandwidth)


 total amount of memory used by VASP MPI-rank0   131949. kBytes
=======================================================================

   base      :      30000. kBytes
   nonlr-proj:      10141. kBytes
   fftplans  :      13556. kBytes
   grid      :      23353. kBytes
   one-center:        311. kBytes
   wavefun   :      54588. kBytes
 
     INWAV:  cpu time    0.0000: real time    0.0002
 Broyden mixing: mesh for mixing (old mesh)
   NGX = 29   NGY = 29   NGZ = 75
  (NGX  = 96   NGY  = 96   NGZ  =240)
  gives a total of  63075 points

 initial charge density was supplied:
 charge density of overlapping atoms calculated
 number of electron     376.0000000 magnetization 
 keeping initial charge density in first step


--------------------------------------------------------------------------------------------------------


 Maximum index for non-local projection operator         1323
 Maximum index for augmentation-charges         1558 (set IRDMAX)


--------------------------------------------------------------------------------------------------------


 First call to EWALD:  gamma=   0.161
 Maximum number of real-space cells 4x 4x 2
 Maximum number of reciprocal cells 2x 2x 5

    FEWALD:  cpu time    0.0023: real time    0.0023


--------------------------------------- Iteration      1(   1)  ---------------------------------------


    POTLOK:  cpu time    0.1347: real time    0.1733
    SETDIJ:  cpu time    0.0108: real time    0.0108
     EDDAV:  cpu time    7.7617: real time    7.8177
       DOS:  cpu time    0.0010: real time    0.0010
    --------------------------------------------
      LOOP:  cpu time    7.9082: real time    8.0029

 eigenvalue-minimisations  :  1824
 total energy-change (2. order) : 0.2416037E+04  (-0.1594767E+05)
 number of electron     376.0000000 magnetization 
 augmentation part      376.0000000 magnetization 

 Free energy of the ion-electron system (eV)
  ---------------------------------------------------
  alpha Z        PSCENC =       975.10247152
  Ewald energy   TEWEN  =     90590.67152725
  -Hartree energ DENC   =   -119685.67092156
  -exchange      EXHF   =         0.00000000
  -V(xc)+E(xc)   XCENC  =       189.07385288
  PAW double counting   =     24789.08602224   -23775.73976456
  entropy T*S    EENTRO =         0.01953959
  eigenvalues    EBANDS =      2073.59970083
  atomic energy  EATOM  =     27259.89416086
  Solvation  Ediel_sol  =         0.00000000
  ---------------------------------------------------
  free energy    TOTEN  =      2416.03658905 eV

  energy without entropy =     2416.01704946  energy(sigma->0) =     2416.03007585


--------------------------------------------------------------------------------------------------------




--------------------------------------- Iteration      1(   2)  ---------------------------------------


     EDDAV:  cpu time    9.1779: real time    9.2446
       DOS:  cpu time    0.0010: real time    0.0010
    --------------------------------------------
      LOOP:  cpu time    9.1789: real time    9.2456

 eigenvalue-minimisations  :  2112
 total energy-change (2. order) :-0.2479910E+04  (-0.2300951E+04)
 number of electron     376.0000000 magnetization 
 augmentation part      376.0000000 magnetization 

 Free energy of the ion-electron system (eV)
  ---------------------------------------------------
  alpha Z        PSCENC =       975.10247152
  Ewald energy   TEWEN  =     90590.67152725
  -Hartree energ DENC   =   -119685.67092156
  -exchange      EXHF   =         0.00000000
  -V(xc)+E(xc)   XCENC  =       189.07385288
  PAW double counting   =     24789.08602224   -23775.73976456
  entropy T*S    EENTRO =        -0.00444297
  eigenvalues    EBANDS =      -406.28649340
  atomic energy  EATOM  =     27259.89416086
  Solvation  Ediel_sol  =         0.00000000
  ---------------------------------------------------
  free energy    TOTEN  =       -63.87358773 eV

  energy without entropy =      -63.86914476  energy(sigma->0) =      -63.87210674


--------------------------------------------------------------------------------------------------------




--------------------------------------- Iteration      1(   3)  ---------------------------------------


     EDDAV:  cpu time    9.2405: real time    9.3085
       DOS:  cpu time    0.0011: real time    0.0011
    --------------------------------------------
      LOOP:  cpu time    9.2416: real time    9.3096

 eigenvalue-minimisations  :  2144
 total energy-change (2. order) :-0.1770926E+03  (-0.1601437E+03)
 number of electron     376.0000000 magnetization 
 augmentation part      376.0000000 magnetization 

 Free energy of the ion-electron system (eV)
  ---------------------------------------------------
  alpha Z        PSCENC =       975.10247152
  Ewald energy   TEWEN  =     90590.67152725
  -Hartree energ DENC   =   -119685.67092156
  -exchange      EXHF   =         0.00000000
  -V(xc)+E(xc)   XCENC  =       189.07385288
  PAW double counting   =     24789.08602224   -23775.73976456
  entropy T*S    EENTRO =        -0.00370591
  eigenvalues    EBANDS =      -583.37982877
  atomic energy  EATOM  =     27259.89416086
  Solvation  Ediel_sol  =         0.00000000
  ---------------------------------------------------
  free energy    TOTEN  =      -240.96618605 eV

  energy without entropy =     -240.96248014  energy(sigma->0) =     -240.96495075


--------------------------------------------------------------------------------------------------------




--------------------------------------- Iteration      1(   4)  ---------------------------------------


     EDDAV:  cpu time    9.8685: real time    9.9393
       DOS:  cpu time    0.0010: real time    0.0011
    --------------------------------------------
      LOOP:  cpu time    9.8695: real time    9.9403

 eigenvalue-minimisations  :  2408
 total energy-change (2. order) :-0.7869750E+01  (-0.7593385E+01)
 number of electron     376.0000000 magnetization 
 augmentation part      376.0000000 magnetization 

 Free energy of the ion-electron system (eV)
  ---------------------------------------------------
  alpha Z        PSCENC =       975.10247152
  Ewald energy   TEWEN  =     90590.67152725
  -Hartree energ DENC   =   -119685.67092156
  -exchange      EXHF   =         0.00000000
  -V(xc)+E(xc)   XCENC  =       189.07385288
  PAW double counting   =     24789.08602224   -23775.73976456
  entropy T*S    EENTRO =        -0.00018666
  eigenvalues    EBANDS =      -591.25309802
  atomic energy  EATOM  =     27259.89416086
  Solvation  Ediel_sol  =         0.00000000
  ---------------------------------------------------
  free energy    TOTEN  =      -248.83593605 eV

  energy without entropy =     -248.83574939  energy(sigma->0) =     -248.83587383


--------------------------------------------------------------------------------------------------------




--------------------------------------- Iteration      1(   5)  ---------------------------------------


     EDDAV:  cpu time    9.8806: real time    9.9516
       DOS:  cpu time    0.0010: real time    0.0010
    CHARGE:  cpu time    0.4029: real time    0.4056
    MIXING:  cpu time    0.0070: real time    0.0070
    --------------------------------------------
      LOOP:  cpu time   10.2915: real time   10.3653

 eigenvalue-minimisations  :  2368
 total energy-change (2. order) :-0.2112507E+00  (-0.2087284E+00)
 number of electron     376.0000067 magnetization 
 augmentation part      105.7687728 magnetization 

 Broyden mixing:
  rms(total) = 0.27512E+01    rms(broyden)= 0.27508E+01
  rms(prec ) = 0.30715E+01
  weight for this iteration     100.00

 Free energy of the ion-electron system (eV)
  ---------------------------------------------------
  alpha Z        PSCENC =       975.10247152
  Ewald energy   TEWEN  =     90590.67152725
  -Hartree energ DENC   =   -119685.67092156
  -exchange      EXHF   =         0.00000000
  -V(xc)+E(xc)   XCENC  =       189.07385288
  PAW double counting   =     24789.08602224   -23775.73976456
  entropy T*S    EENTRO =        -0.00086155
  eigenvalues    EBANDS =      -591.46367378
  atomic energy  EATOM  =     27259.89416086
  Solvation  Ediel_sol  =         0.00000000
  ---------------------------------------------------
  free energy    TOTEN  =      -249.04718670 eV

  energy without entropy =     -249.04632515  energy(sigma->0) =     -249.04689952


--------------------------------------------------------------------------------------------------------




--------------------------------------- Iteration      1(   6)  ---------------------------------------


    POTLOK:  cpu time    0.1317: real time    0.1325
    SETDIJ:  cpu time    0.0098: real time    0.0098
    EDDIAG:  cpu time    1.3160: real time    1.3252
  RMM-DIIS:  cpu time    4.5898: real time    4.6256
    ORTHCH:  cpu time    0.2241: real time    0.2257
       DOS:  cpu time    0.0011: real time    0.0011
    CHARGE:  cpu time    0.4269: real time    0.4300
    MIXING:  cpu time    0.0057: real time    0.0057
    --------------------------------------------
      LOOP:  cpu time    6.7051: real time    6.7557

 eigenvalue-minimisations  :  1830
 total energy-change (2. order) : 0.1999617E+01  (-0.5454305E+01)
 number of electron     376.0000068 magnetization 
 augmentation part      113.0716605 magnetization 

 Broyden mixing:
  rms(total) = 0.30297E+01    rms(broyden)= 0.30287E+01
  rms(prec ) = 0.39403E+01
  weight for this iteration     100.00

 eigenvalues of (default mixing * dielectric matrix)
  average eigenvalue GAMMA=   0.4779
  0.4779

 Free energy of the ion-electron system (eV)
  ---------------------------------------------------
  alpha Z        PSCENC =       975.10247152
  Ewald energy   TEWEN  =     90590.67152725
  -Hartree energ DENC   =   -119214.42858588
  -exchange      EXHF   =         0.00000000
  -V(xc)+E(xc)   XCENC  =       181.98531098
  PAW double counting   =     26681.76031345   -25721.89103955
  entropy T*S    EENTRO =        -0.22605339
  eigenvalues    EBANDS =      -999.91567488
  atomic energy  EATOM  =     27259.89416086
  Solvation  Ediel_sol  =         0.00000000
  ---------------------------------------------------
  free energy    TOTEN  =      -247.04756963 eV

  energy without entropy =     -246.82151624  energy(sigma->0) =     -246.97221850


--------------------------------------------------------------------------------------------------------




--------------------------------------- Iteration      1(   7)  ---------------------------------------


    POTLOK:  cpu time    0.1260: real time    0.1269
    SETDIJ:  cpu time    0.0101: real time    0.0102
    EDDIAG:  cpu time    1.3255: real time    1.3356
  RMM-DIIS:  cpu time    4.5405: real time    4.5760
    ORTHCH:  cpu time    0.2214: real time    0.2228
       DOS:  cpu time    0.0011: real time    0.0011
    CHARGE:  cpu time    0.4093: real time    0.4122
    MIXING:  cpu time    0.0046: real time    0.0047
    --------------------------------------------
      LOOP:  cpu time    6.6386: real time    6.6894

 eigenvalue-minimisations  :  1830
 total energy-change (2. order) : 0.9579786E+01  (-0.3367841E+01)
 number of electron     376.0000074 magnetization 
 augmentation part      111.4336459 magnetization 

 Broyden mixing:
  rms(total) = 0.16804E+01    rms(broyden)= 0.16793E+01
  rms(prec ) = 0.22420E+01
  weight for this iteration     100.00

 eigenvalues of (default mixing * dielectric matrix)
  average eigenvalue GAMMA=   0.6824
  1.0894  0.2754

 Free energy of the ion-electron system (eV)
  ---------------------------------------------------
  alpha Z        PSCENC =       975.10247152
  Ewald energy   TEWEN  =     90590.67152725
  -Hartree energ DENC   =   -119413.30653426
  -exchange      EXHF   =         0.00000000
  -V(xc)+E(xc)   XCENC  =       179.50338854
  PAW double counting   =     27332.33175552   -26379.62916213
  entropy T*S    EENTRO =        -0.16935105
  eigenvalues    EBANDS =      -781.86603971
  atomic energy  EATOM  =     27259.89416086
  Solvation  Ediel_sol  =         0.00000000
  ---------------------------------------------------
  free energy    TOTEN  =      -237.46778346 eV

  energy without entropy =     -237.29843240  energy(sigma->0) =     -237.41133311


--------------------------------------------------------------------------------------------------------




--------------------------------------- Iteration      1(   8)  ---------------------------------------


    POTLOK:  cpu time    0.1309: real time    0.1318
    SETDIJ:  cpu time    0.0099: real time    0.0099
    EDDIAG:  cpu time    1.2777: real time    1.2869
  RMM-DIIS:  cpu time    4.5027: real time    4.5380
    ORTHCH:  cpu time    0.2173: real time    0.2188
       DOS:  cpu time    0.0011: real time    0.0011
    CHARGE:  cpu time    0.4005: real time    0.4032
    MIXING:  cpu time    0.0043: real time    0.0044
    --------------------------------------------
      LOOP:  cpu time    6.5444: real time    6.5941

 eigenvalue-minimisations  :  1831
 total energy-change (2. order) : 0.1985756E+01  (-0.6959702E+00)
 number of electron     376.0000075 magnetization 
 augmentation part      112.6178538 magnetization 

 Broyden mixing:
  rms(total) = 0.18247E+01    rms(broyden)= 0.18246E+01
  rms(prec ) = 0.29963E+01
  weight for this iteration     100.00

 eigenvalues of (default mixing * dielectric matrix)
  average eigenvalue GAMMA=   0.5712
  1.2166  0.2771  0.2198

 Free energy of the ion-electron system (eV)
  ---------------------------------------------------
  alpha Z        PSCENC =       975.10247152
  Ewald energy   TEWEN  =     90590.67152725
  -Hartree energ DENC   =   -119301.36973990
  -exchange      EXHF   =         0.00000000
  -V(xc)+E(xc)   XCENC  =       178.13830919
  PAW double counting   =     28360.38429679   -27424.04643146
  entropy T*S    EENTRO =        -0.03137683
  eigenvalues    EBANDS =      -874.22524478
  atomic energy  EATOM  =     27259.89416086
  Solvation  Ediel_sol  =         0.00000000
  ---------------------------------------------------
  free energy    TOTEN  =      -235.48202736 eV

  energy without entropy =     -235.45065053  energy(sigma->0) =     -235.47156841


--------------------------------------------------------------------------------------------------------




--------------------------------------- Iteration      1(   9)  ---------------------------------------


    POTLOK:  cpu time    0.1278: real time    0.1286
    SETDIJ:  cpu time    0.0105: real time    0.0105
    EDDIAG:  cpu time    1.1141: real time    1.1217
  RMM-DIIS:  cpu time    4.4221: real time    4.4558
    ORTHCH:  cpu time    0.2158: real time    0.2172
       DOS:  cpu time    0.0011: real time    0.0011
    CHARGE:  cpu time    0.3931: real time    0.3957
    MIXING:  cpu time    0.0042: real time    0.0042
    --------------------------------------------
      LOOP:  cpu time    6.2886: real time    6.3348

 eigenvalue-minimisations  :  1831
 total energy-change (2. order) : 0.1659443E+01  (-0.2159943E+00)
 number of electron     376.0000072 magnetization 
 augmentation part      112.6917253 magnetization 

 Broyden mixing:
  rms(total) = 0.14627E+01    rms(broyden)= 0.14627E+01
  rms(prec ) = 0.26281E+01
  weight for this iteration     100.00

 eigenvalues of (default mixing * dielectric matrix)
  average eigenvalue GAMMA=   0.4939
  1.2896  0.2968  0.2968  0.0923

 Free energy of the ion-electron system (eV)
  ---------------------------------------------------
  alpha Z        PSCENC =       975.10247152
  Ewald energy   TEWEN  =     90590.67152725
  -Hartree energ DENC   =   -119299.91715737
  -exchange      EXHF   =         0.00000000
  -V(xc)+E(xc)   XCENC  =       177.99049145
  PAW double counting   =     28613.29095799   -27680.70204083
  entropy T*S    EENTRO =        -0.11423639
  eigenvalues    EBANDS =      -870.03875890
  atomic energy  EATOM  =     27259.89416086
  Solvation  Ediel_sol  =         0.00000000
  ---------------------------------------------------
  free energy    TOTEN  =      -233.82258442 eV

  energy without entropy =     -233.70834803  energy(sigma->0) =     -233.78450562


--------------------------------------------------------------------------------------------------------




--------------------------------------- Iteration      1(  10)  ---------------------------------------


    POTLOK:  cpu time    0.1291: real time    0.1300
    SETDIJ:  cpu time    0.0098: real time    0.0099
    EDDIAG:  cpu time    1.3125: real time    1.3223
  RMM-DIIS:  cpu time    4.5728: real time    4.6082
    ORTHCH:  cpu time    0.2120: real time    0.2134
       DOS:  cpu time    0.0011: real time    0.0011
    CHARGE:  cpu time    0.3949: real time    0.3976
    MIXING:  cpu time    0.0045: real time    0.0045
    --------------------------------------------
      LOOP:  cpu time    6.6367: real time    6.6870

 eigenvalue-minimisations  :  1831
 total energy-change (2. order) : 0.2897473E+01  (-0.1444037E+00)
 number of electron     376.0000073 magnetization 
 augmentation part      112.7405455 magnetization 

 Broyden mixing:
  rms(total) = 0.51558E+00    rms(broyden)= 0.51512E+00
  rms(prec ) = 0.66436E+00
  weight for this iteration     100.00

 eigenvalues of (default mixing * dielectric matrix)
  average eigenvalue GAMMA=   0.5113
  1.3789  0.4982  0.3810  0.2123  0.0860

 Free energy of the ion-electron system (eV)
  ---------------------------------------------------
  alpha Z        PSCENC =       975.10247152
  Ewald energy   TEWEN  =     90590.67152725
  -Hartree energ DENC   =   -119317.82926062
  -exchange      EXHF   =         0.00000000
  -V(xc)+E(xc)   XCENC  =       177.92826954
  PAW double counting   =     28864.99042656   -27936.05562315
  entropy T*S    EENTRO =        -0.02440676
  eigenvalues    EBANDS =      -845.60267711
  atomic energy  EATOM  =     27259.89416086
  Solvation  Ediel_sol  =         0.00000000
  ---------------------------------------------------
  free energy    TOTEN  =      -230.92511191 eV

  energy without entropy =     -230.90070515  energy(sigma->0) =     -230.91697632


--------------------------------------------------------------------------------------------------------




--------------------------------------- Iteration      1(  11)  ---------------------------------------


    POTLOK:  cpu time    0.1296: real time    0.1304
    SETDIJ:  cpu time    0.0100: real time    0.0101
    EDDIAG:  cpu time    1.3114: real time    1.3206
  RMM-DIIS:  cpu time    4.5679: real time    4.6030
    ORTHCH:  cpu time    0.2172: real time    0.2186
       DOS:  cpu time    0.0011: real time    0.0011
    CHARGE:  cpu time    0.3924: real time    0.3952
    MIXING:  cpu time    0.0048: real time    0.0048
    --------------------------------------------
      LOOP:  cpu time    6.6343: real time    6.6838

 eigenvalue-minimisations  :  1831
 total energy-change (2. order) : 0.5160043E+00  (-0.4653736E-01)
 number of electron     376.0000073 magnetization 
 augmentation part      112.8565923 magnetization 

 Broyden mixing:
  rms(total) = 0.30738E+00    rms(broyden)= 0.30731E+00
  rms(prec ) = 0.39241E+00
  weight for this iteration     100.00

 eigenvalues of (default mixing * dielectric matrix)
  average eigenvalue GAMMA=   0.5712
  1.4884  0.6924  0.5598  0.3731  0.2264  0.0869

 Free energy of the ion-electron system (eV)
  ---------------------------------------------------
  alpha Z        PSCENC =       975.10247152
  Ewald energy   TEWEN  =     90590.67152725
  -Hartree energ DENC   =   -119301.20727460
  -exchange      EXHF   =         0.00000000
  -V(xc)+E(xc)   XCENC  =       177.85849947
  PAW double counting   =     29171.63266669   -28246.80901288
  entropy T*S    EENTRO =         0.00105594
  eigenvalues    EBANDS =      -857.55320193
  atomic energy  EATOM  =     27259.89416086
  Solvation  Ediel_sol  =         0.00000000
  ---------------------------------------------------
  free energy    TOTEN  =      -230.40910765 eV

  energy without entropy =     -230.41016360  energy(sigma->0) =     -230.40945964


--------------------------------------------------------------------------------------------------------




--------------------------------------- Iteration      1(  12)  ---------------------------------------


    POTLOK:  cpu time    0.1314: real time    0.1323
    SETDIJ:  cpu time    0.0099: real time    0.0099
    EDDIAG:  cpu time    1.3038: real time    1.3127
  RMM-DIIS:  cpu time    4.4990: real time    4.5339
    ORTHCH:  cpu time    0.2135: real time    0.2149
       DOS:  cpu time    0.0011: real time    0.0011
    CHARGE:  cpu time    0.3718: real time    0.3744
    MIXING:  cpu time    0.0050: real time    0.0050
    --------------------------------------------
      LOOP:  cpu time    6.5356: real time    6.5843

 eigenvalue-minimisations  :  1833
 total energy-change (2. order) : 0.1168142E+00  (-0.1827641E-01)
 number of electron     376.0000072 magnetization 
 augmentation part      112.9730256 magnetization 

 Broyden mixing:
  rms(total) = 0.29370E+00    rms(broyden)= 0.29354E+00
  rms(prec ) = 0.34980E+00
  weight for this iteration     100.00

 eigenvalues of (default mixing * dielectric matrix)
  average eigenvalue GAMMA=   0.6425
  1.6800  0.9993  0.8029  0.4261  0.2763  0.2262  0.0868

 Free energy of the ion-electron system (eV)
  ---------------------------------------------------
  alpha Z        PSCENC =       975.10247152
  Ewald energy   TEWEN  =     90590.67152725
  -Hartree energ DENC   =   -119291.65387389
  -exchange      EXHF   =         0.00000000
  -V(xc)+E(xc)   XCENC  =       177.80357517
  PAW double counting   =     29452.06742357   -28530.84065154
  entropy T*S    EENTRO =        -0.01931179
  eigenvalues    EBANDS =      -863.31761462
  atomic energy  EATOM  =     27259.89416086
  Solvation  Ediel_sol  =         0.00000000
  ---------------------------------------------------
  free energy    TOTEN  =      -230.29229346 eV

  energy without entropy =     -230.27298167  energy(sigma->0) =     -230.28585620


--------------------------------------------------------------------------------------------------------




--------------------------------------- Iteration      1(  13)  ---------------------------------------


    POTLOK:  cpu time    0.1307: real time    0.1316
    SETDIJ:  cpu time    0.0098: real time    0.0098
    EDDIAG:  cpu time    1.3004: real time    1.3099
  RMM-DIIS:  cpu time    4.3712: real time    4.4055
    ORTHCH:  cpu time    0.2138: real time    0.2152
       DOS:  cpu time    0.0011: real time    0.0011
    CHARGE:  cpu time    0.3934: real time    0.3960
    MIXING:  cpu time    0.0054: real time    0.0054
    --------------------------------------------
      LOOP:  cpu time    6.4257: real time    6.4746

 eigenvalue-minimisations  :  1832
 total energy-change (2. order) : 0.6339122E-01  (-0.1584240E-01)
 number of electron     376.0000072 magnetization 
 augmentation part      112.9753693 magnetization 

 Broyden mixing:
  rms(total) = 0.19695E+00    rms(broyden)= 0.19694E+00
  rms(prec ) = 0.23488E+00
  weight for this iteration     100.00

 eigenvalues of (default mixing * dielectric matrix)
  average eigenvalue GAMMA=   0.7075
  2.1130  1.2727  0.9012  0.4545  0.0868  0.3510  0.2260  0.2552

 Free energy of the ion-electron system (eV)
  ---------------------------------------------------
  alpha Z        PSCENC =       975.10247152
  Ewald energy   TEWEN  =     90590.67152725
  -Hartree energ DENC   =   -119287.44895325
  -exchange      EXHF   =         0.00000000
  -V(xc)+E(xc)   XCENC  =       177.68896000
  PAW double counting   =     29695.08302898   -28776.79930577
  entropy T*S    EENTRO =        -0.00629019
  eigenvalues    EBANDS =      -864.41450165
  atomic energy  EATOM  =     27259.89416086
  Solvation  Ediel_sol  =         0.00000000
  ---------------------------------------------------
  free energy    TOTEN  =      -230.22890224 eV

  energy without entropy =     -230.22261205  energy(sigma->0) =     -230.22680551


--------------------------------------------------------------------------------------------------------




--------------------------------------- Iteration      1(  14)  ---------------------------------------


    POTLOK:  cpu time    0.1364: real time    0.1373
    SETDIJ:  cpu time    0.0096: real time    0.0096
    EDDIAG:  cpu time    1.3850: real time    1.3950
  RMM-DIIS:  cpu time    4.1392: real time    4.1697
    ORTHCH:  cpu time    0.2082: real time    0.2096
       DOS:  cpu time    0.0011: real time    0.0011
    CHARGE:  cpu time    0.3678: real time    0.3703
    MIXING:  cpu time    0.0049: real time    0.0050
    --------------------------------------------
      LOOP:  cpu time    6.2521: real time    6.2976

 eigenvalue-minimisations  :  1831
 total energy-change (2. order) : 0.3779441E-01  (-0.1256431E-01)
 number of electron     376.0000072 magnetization 
 augmentation part      112.9526422 magnetization 

 Broyden mixing:
  rms(total) = 0.12407E+00    rms(broyden)= 0.12397E+00
  rms(prec ) = 0.15732E+00
  weight for this iteration     100.00

 eigenvalues of (default mixing * dielectric matrix)
  average eigenvalue GAMMA=   0.7189
  2.4259  1.3056  0.8755  0.5007  0.5007  0.0868  0.3095  0.2278  0.2377

 Free energy of the ion-electron system (eV)
  ---------------------------------------------------
  alpha Z        PSCENC =       975.10247152
  Ewald energy   TEWEN  =     90590.67152725
  -Hartree energ DENC   =   -119286.78237422
  -exchange      EXHF   =         0.00000000
  -V(xc)+E(xc)   XCENC  =       177.57421562
  PAW double counting   =     29919.69279287   -29004.03427789
  entropy T*S    EENTRO =        -0.00202619
  eigenvalues    EBANDS =      -862.30759766
  atomic energy  EATOM  =     27259.89416086
  Solvation  Ediel_sol  =         0.00000000
  ---------------------------------------------------
  free energy    TOTEN  =      -230.19110783 eV

  energy without entropy =     -230.18908165  energy(sigma->0) =     -230.19043244


--------------------------------------------------------------------------------------------------------




--------------------------------------- Iteration      1(  15)  ---------------------------------------


    POTLOK:  cpu time    0.1187: real time    0.1195
    SETDIJ:  cpu time    0.0093: real time    0.0093
    EDDIAG:  cpu time    1.1794: real time    1.1875
  RMM-DIIS:  cpu time    4.6367: real time    4.6713
    ORTHCH:  cpu time    0.2331: real time    0.2347
       DOS:  cpu time    0.0012: real time    0.0012
    CHARGE:  cpu time    0.4499: real time    0.4531
    MIXING:  cpu time    0.0067: real time    0.0068
    --------------------------------------------
      LOOP:  cpu time    6.6350: real time    6.6834

 eigenvalue-minimisations  :  1831
 total energy-change (2. order) : 0.1637417E-01  (-0.3943832E-02)
 number of electron     376.0000072 magnetization 
 augmentation part      112.9640860 magnetization 

 Broyden mixing:
  rms(total) = 0.69991E-01    rms(broyden)= 0.69983E-01
  rms(prec ) = 0.91098E-01
  weight for this iteration     100.00

 eigenvalues of (default mixing * dielectric matrix)
  average eigenvalue GAMMA=   0.7093
  2.5481  1.2822  0.7963  0.7963  0.4659  0.0868  0.3706  0.2867  0.2258  0.2340

 Free energy of the ion-electron system (eV)
  ---------------------------------------------------
  alpha Z        PSCENC =       975.10247152
  Ewald energy   TEWEN  =     90590.67152725
  -Hartree energ DENC   =   -119286.24577780
  -exchange      EXHF   =         0.00000000
  -V(xc)+E(xc)   XCENC  =       177.56342850
  PAW double counting   =     29996.89326222   -29082.11907286
  entropy T*S    EENTRO =        -0.00253588
  eigenvalues    EBANDS =      -861.93219749
  atomic energy  EATOM  =     27259.89416086
  Solvation  Ediel_sol  =         0.00000000
  ---------------------------------------------------
  free energy    TOTEN  =      -230.17473366 eV

  energy without entropy =     -230.17219779  energy(sigma->0) =     -230.17388837


--------------------------------------------------------------------------------------------------------




--------------------------------------- Iteration      1(  16)  ---------------------------------------


    POTLOK:  cpu time    0.1400: real time    0.1409
    SETDIJ:  cpu time    0.0103: real time    0.0103
    EDDIAG:  cpu time    1.4504: real time    1.4611
  RMM-DIIS:  cpu time    4.8057: real time    4.8422
    ORTHCH:  cpu time    0.2223: real time    0.2236
       DOS:  cpu time    0.0011: real time    0.0011
    CHARGE:  cpu time    0.4150: real time    0.4181
    MIXING:  cpu time    0.0057: real time    0.0058
    --------------------------------------------
      LOOP:  cpu time    7.0504: real time    7.1030

 eigenvalue-minimisations  :  1834
 total energy-change (2. order) : 0.5428723E-02  (-0.8608959E-03)
 number of electron     376.0000072 magnetization 
 augmentation part      112.9778215 magnetization 

 Broyden mixing:
  rms(total) = 0.34733E-01    rms(broyden)= 0.34698E-01
  rms(prec ) = 0.45129E-01
  weight for this iteration     100.00

 eigenvalues of (default mixing * dielectric matrix)
  average eigenvalue GAMMA=   0.7085
  2.5250  1.2319  0.9224  0.9224  0.5147  0.5147  0.0868  0.3294  0.2895  0.2286
  0.2286

 Free energy of the ion-electron system (eV)
  ---------------------------------------------------
  alpha Z        PSCENC =       975.10247152
  Ewald energy   TEWEN  =     90590.67152725
  -Hartree energ DENC   =   -119286.42328161
  -exchange      EXHF   =         0.00000000
  -V(xc)+E(xc)   XCENC  =       177.57337679
  PAW double counting   =     30020.28614491   -29105.76479667
  entropy T*S    EENTRO =        -0.00576383
  eigenvalues    EBANDS =      -861.50314416
  atomic energy  EATOM  =     27259.89416086
  Solvation  Ediel_sol  =         0.00000000
  ---------------------------------------------------
  free energy    TOTEN  =      -230.16930494 eV

  energy without entropy =     -230.16354111  energy(sigma->0) =     -230.16738366


--------------------------------------------------------------------------------------------------------




--------------------------------------- Iteration      1(  17)  ---------------------------------------


    POTLOK:  cpu time    0.1320: real time    0.1330
    SETDIJ:  cpu time    0.0094: real time    0.0095
    EDDIAG:  cpu time    1.3795: real time    1.3904
  RMM-DIIS:  cpu time    5.2227: real time    5.2601
    ORTHCH:  cpu time    0.2340: real time    0.2356
       DOS:  cpu time    0.0011: real time    0.0011
    CHARGE:  cpu time    0.4492: real time    0.4523
    MIXING:  cpu time    0.0061: real time    0.0061
    --------------------------------------------
      LOOP:  cpu time    7.4340: real time    7.4880

 eigenvalue-minimisations  :  1821
 total energy-change (2. order) : 0.8224776E-03  (-0.2402374E-03)
 number of electron     376.0000072 magnetization 
 augmentation part      112.9731043 magnetization 

 Broyden mixing:
  rms(total) = 0.24317E-01    rms(broyden)= 0.24314E-01
  rms(prec ) = 0.30103E-01
  weight for this iteration     100.00

 eigenvalues of (default mixing * dielectric matrix)
  average eigenvalue GAMMA=   0.7428
  2.4299  1.4271  1.4271  0.9594  0.6937  0.5031  0.0868  0.3601  0.2998  0.2700
  0.2281  0.2281

 Free energy of the ion-electron system (eV)
  ---------------------------------------------------
  alpha Z        PSCENC =       975.10247152
  Ewald energy   TEWEN  =     90590.67152725
  -Hartree energ DENC   =   -119287.45898174
  -exchange      EXHF   =         0.00000000
  -V(xc)+E(xc)   XCENC  =       177.57614589
  PAW double counting   =     30016.43401914   -29101.82906312
  entropy T*S    EENTRO =        -0.00468030
  eigenvalues    EBANDS =      -860.55408197
  atomic energy  EATOM  =     27259.89416086
  Solvation  Ediel_sol  =         0.00000000
  ---------------------------------------------------
  free energy    TOTEN  =      -230.16848246 eV

  energy without entropy =     -230.16380216  energy(sigma->0) =     -230.16692236


--------------------------------------------------------------------------------------------------------




--------------------------------------- Iteration      1(  18)  ---------------------------------------


    POTLOK:  cpu time    0.1399: real time    0.1408
    SETDIJ:  cpu time    0.0098: real time    0.0098
    EDDIAG:  cpu time    1.3377: real time    1.3476
  RMM-DIIS:  cpu time    5.1978: real time    5.2340
    ORTHCH:  cpu time    0.2334: real time    0.2348
       DOS:  cpu time    0.0010: real time    0.0011
    CHARGE:  cpu time    0.4399: real time    0.4430
    MIXING:  cpu time    0.0074: real time    0.0075
    --------------------------------------------
      LOOP:  cpu time    7.3668: real time    7.4187

 eigenvalue-minimisations  :  1820
 total energy-change (2. order) :-0.1121288E-03  (-0.1991207E-03)
 number of electron     376.0000072 magnetization 
 augmentation part      112.9668682 magnetization 

 Broyden mixing:
  rms(total) = 0.16759E-01    rms(broyden)= 0.16757E-01
  rms(prec ) = 0.20904E-01
  weight for this iteration     100.00

 eigenvalues of (default mixing * dielectric matrix)
  average eigenvalue GAMMA=   0.7361
  2.4062  1.5711  1.5711  0.8883  0.8069  0.0868  0.4649  0.4468  0.3334  0.2954
  0.2271  0.2297  0.2417

 Free energy of the ion-electron system (eV)
  ---------------------------------------------------
  alpha Z        PSCENC =       975.10247152
  Ewald energy   TEWEN  =     90590.67152725
  -Hartree energ DENC   =   -119289.16292459
  -exchange      EXHF   =         0.00000000
  -V(xc)+E(xc)   XCENC  =       177.57928157
  PAW double counting   =     30008.61479067   -29093.85415408
  entropy T*S    EENTRO =        -0.00330489
  eigenvalues    EBANDS =      -859.01044290
  atomic energy  EATOM  =     27259.89416086
  Solvation  Ediel_sol  =         0.00000000
  ---------------------------------------------------
  free energy    TOTEN  =      -230.16859459 eV

  energy without entropy =     -230.16528970  energy(sigma->0) =     -230.16749296


--------------------------------------------------------------------------------------------------------




--------------------------------------- Iteration      1(  19)  ---------------------------------------


    POTLOK:  cpu time    0.1455: real time    0.1464
    SETDIJ:  cpu time    0.0094: real time    0.0095
    EDDIAG:  cpu time    1.4248: real time    1.4345
  RMM-DIIS:  cpu time    3.8830: real time    3.9115
    ORTHCH:  cpu time    0.2163: real time    0.2177
       DOS:  cpu time    0.0011: real time    0.0011
    --------------------------------------------
      LOOP:  cpu time    5.6800: real time    5.7205

 eigenvalue-minimisations  :  1668
 total energy-change (2. order) :-0.3262204E-04  (-0.7030330E-04)
 number of electron     376.0000072 magnetization 
 augmentation part      112.9668682 magnetization 

 Free energy of the ion-electron system (eV)
  ---------------------------------------------------
  alpha Z        PSCENC =       975.10247152
  Ewald energy   TEWEN  =     90590.67152725
  -Hartree energ DENC   =   -119289.82375164
  -exchange      EXHF   =         0.00000000
  -V(xc)+E(xc)   XCENC  =       177.58109067
  PAW double counting   =     30008.08828341   -29093.28817249
  entropy T*S    EENTRO =        -0.00328265
  eigenvalues    EBANDS =      -858.39095415
  atomic energy  EATOM  =     27259.89416086
  Solvation  Ediel_sol  =         0.00000000
  ---------------------------------------------------
  free energy    TOTEN  =      -230.16862721 eV

  energy without entropy =     -230.16534456  energy(sigma->0) =     -230.16753300


--------------------------------------------------------------------------------------------------------




 average (electrostatic) potential at core
  the test charge radii are     0.6991  0.7215  1.2059
  (the norm of the test charge is              1.0000)
       1 -56.2555       2 -74.2624       3 -76.1045       4 -72.3771       5 -72.3788
       6 -72.3630       7 -72.3683       8 -72.3973       9 -72.3812      10 -72.3576
      11 -72.3902      12 -72.3624      13 -72.9410      14 -73.0424      15 -72.9880
      16 -73.0645      17 -73.0638      18 -73.0360      19 -73.0329      20 -73.0224
      21 -73.0082      22 -73.0699      23 -73.0379      24 -72.9317      25 -73.0349
      26 -73.0001      27 -73.0472      28 -72.9657      29 -73.0089      30 -72.9738
      31 -72.5801      32 -72.4213      33 -72.4863      34 -72.3804      35 -72.3731
      36 -73.3565      37 -72.5954      38 -73.0380      39 -72.3500
 
 
 
 E-fermi :   1.0392     XC(G=0):  -6.6275     alpha+bet : -6.8913


 k-point     1 :       0.0000    0.0000    0.0000
  band No.  band energies     occupation 
      1     -22.0075      2.00000
      2     -16.1246      2.00000
      3      -8.6806      2.00000
      4      -8.1250      2.00000
      5      -6.8401      2.00000
      6      -5.9246      2.00000
      7      -5.8130      2.00000
      8      -5.7256      2.00000
      9      -5.6913      2.00000
     10      -5.6808      2.00000
     11      -5.6732      2.00000
     12      -5.6466      2.00000
     13      -5.6177      2.00000
     14      -5.5528      2.00000
     15      -5.3512      2.00000
     16      -5.2362      2.00000
     17      -5.1217      2.00000
     18      -5.0992      2.00000
     19      -5.0936      2.00000
     20      -5.0459      2.00000
     21      -5.0283      2.00000
     22      -5.0021      2.00000
     23      -4.6354      2.00000
     24      -4.5953      2.00000
     25      -4.5918      2.00000
     26      -4.5523      2.00000
     27      -4.5466      2.00000
     28      -4.5025      2.00000
     29      -4.4161      2.00000
     30      -4.3760      2.00000
     31      -4.3708      2.00000
     32      -4.3592      2.00000
     33      -4.3454      2.00000
     34      -4.2651      2.00000
     35      -4.1488      2.00000
     36      -4.1366      2.00000
     37      -4.1307      2.00000
     38      -4.1137      2.00000
     39      -4.1099      2.00000
     40      -4.1025      2.00000
     41      -4.0879      2.00000
     42      -4.0619      2.00000
     43      -4.0461      2.00000
     44      -4.0228      2.00000
     45      -4.0080      2.00000
     46      -3.9816      2.00000
     47      -3.5751      2.00000
     48      -3.5217      2.00000
     49      -3.4861      2.00000
     50      -3.4679      2.00000
     51      -3.4529      2.00000
     52      -3.4467      2.00000
     53      -3.4198      2.00000
     54      -3.4040      2.00000
     55      -3.3603      2.00000
     56      -3.3294      2.00000
     57      -3.2624      2.00000
     58      -3.2389      2.00000
     59      -3.2042      2.00000
     60      -3.1619      2.00000
     61      -2.8539      2.00000
     62      -2.7487      2.00000
     63      -2.7211      2.00000
     64      -2.6619      2.00000
     65      -2.6526      2.00000
     66      -2.6447      2.00000
     67      -2.5666      2.00000
     68      -2.5513      2.00000
     69      -2.5031      2.00000
     70      -2.4854      2.00000
     71      -2.4693      2.00000
     72      -2.4525      2.00000
     73      -2.4264      2.00000
     74      -2.4094      2.00000
     75      -2.3990      2.00000
     76      -2.3965      2.00000
     77      -2.3817      2.00000
     78      -2.3670      2.00000
     79      -2.3502      2.00000
     80      -2.3332      2.00000
     81      -2.3203      2.00000
     82      -2.2969      2.00000
     83      -2.2724      2.00000
     84      -2.2484      2.00000
     85      -2.2124      2.00000
     86      -2.1959      2.00000
     87      -2.1819      2.00000
     88      -2.1471      2.00000
     89      -2.1370      2.00000
     90      -2.1137      2.00000
     91      -2.0262      2.00000
     92      -1.9981      2.00000
     93      -1.9682      2.00000
     94      -1.9430      2.00000
     95      -1.9080      2.00000
     96      -1.9064      2.00000
     97      -1.8849      2.00000
     98      -1.8464      2.00000
     99      -1.7983      2.00000
    100      -1.7629      2.00000
    101      -1.7240      2.00000
    102      -1.6819      2.00000
    103      -1.6783      2.00000
    104      -1.6282      2.00000
    105      -1.5987      2.00000
    106      -1.5956      2.00000
    107      -1.5895      2.00000
    108      -1.5490      2.00000
    109      -1.5436      2.00000
    110      -1.5415      2.00000
    111      -1.5312      2.00000
    112      -1.5228      2.00000
    113      -1.4628      2.00000
    114      -1.3066      2.00000
    115      -1.2706      2.00000
    116      -1.1845      2.00000
    117      -1.1429      2.00000
    118      -1.0762      2.00000
    119      -1.0447      2.00000
    120      -1.0008      2.00000
    121      -0.9926      2.00000
    122      -0.9818      2.00000
    123      -0.9408      2.00000
    124      -0.9134      2.00000
    125      -0.8846      2.00000
    126      -0.8595      2.00000
    127      -0.8449      2.00000
    128      -0.8178      2.00000
    129      -0.7439      2.00000
    130      -0.7315      2.00000
    131      -0.7267      2.00000
    132      -0.6921      2.00000
    133      -0.6665      2.00000
    134      -0.6497      2.00000
    135      -0.5756      2.00000
    136      -0.4721      2.00000
    137      -0.4398      2.00000
    138      -0.4251      2.00000
    139      -0.4109      2.00000
    140      -0.4024      2.00000
    141      -0.2632      2.00000
    142      -0.2427      2.00000
    143      -0.2229      2.00000
    144      -0.2176      2.00000
    145      -0.1947      2.00000
    146      -0.1475      2.00000
    147      -0.1335      2.00000
    148      -0.0765      2.00000
    149      -0.0578      2.00000
    150      -0.0215      2.00000
    151       0.0121      2.00000
    152       0.0386      2.00000
    153       0.0537      2.00000
    154       0.0886      2.00000
    155       0.1014      2.00000
    156       0.1446      2.00000
    157       0.1726      2.00000
    158       0.2215      2.00000
    159       0.2362      2.00000
    160       0.2559      2.00000
    161       0.2738      2.00000
    162       0.2862      2.00000
    163       0.2923      2.00000
    164       0.2965      2.00000
    165       0.3222      2.00000
    166       0.3328      2.00001
    167       0.3846      2.00004
    168       0.4068      2.00007
    169       0.4159      2.00010
    170       0.4301      2.00014
    171       0.4727      2.00046
    172       0.5227      2.00159
    173       0.5416      2.00245
    174       0.5755      2.00502
    175       0.5803      2.00552
    176       0.6013      2.00828
    177       0.6130      2.01024
    178       0.6289      2.01350
    179       0.6488      2.01861
    180       0.6613      2.02249
    181       0.6774      2.02819
    182       0.7205      2.04673
    183       0.7500      2.05997
    184       0.7507      2.06027
    185       0.7635      2.06508
    186       0.7656      2.06575
    187       0.7708      2.06732
    188       0.7767      2.06883
    189       0.7837      2.07013
    190       0.7984      2.07078
    191       0.8098      2.06885
    192       0.8196      2.06506
    193       0.8313      2.05752
    194       0.8466      2.04166
    195       0.8900      1.94969
    196       1.0301      1.07664
    197       1.0422      0.97405
    198       1.1187      0.38220
    199       1.1234      0.35248
    200       1.1481      0.21280
    201       1.1712      0.10950
    202       1.1945      0.03228
    203       1.2116     -0.00865
    204       1.3206     -0.06302
    205       1.4435     -0.01490
    206       1.8708     -0.00000
    207       1.9421     -0.00000
    208       1.9898     -0.00000
    209       2.0338     -0.00000
    210       2.1295     -0.00000
    211       2.4611     -0.00000
    212       3.5095     -0.00000
    213       3.9858     -0.00000
    214       4.2910     -0.00000
    215       4.3246     -0.00000
    216       4.3575     -0.00000
    217       4.5145     -0.00000
    218       4.8389     -0.00000
    219       5.3883     -0.00000
    220       5.6696     -0.00000
    221       5.8281     -0.00000
    222       5.8482     -0.00000
    223       5.8617     -0.00000
    224       5.8882     -0.00000
    225       5.9251     -0.00000
    226       6.0869     -0.00000
    227       6.5362      0.00000
    228       6.8609      0.00000

 k-point     2 :       0.5000    0.0000    0.0000
  band No.  band energies     occupation 
      1     -22.0074      2.00000
      2     -16.1242      2.00000
      3      -8.6592      2.00000
      4      -7.2889      2.00000
      5      -7.2404      2.00000
      6      -6.0829      2.00000
      7      -6.0364      2.00000
      8      -5.8701      2.00000
      9      -5.8564      2.00000
     10      -5.6862      2.00000
     11      -5.4455      2.00000
     12      -5.3930      2.00000
     13      -5.3039      2.00000
     14      -5.2423      2.00000
     15      -4.9933      2.00000
     16      -4.9365      2.00000
     17      -4.9102      2.00000
     18      -4.8695      2.00000
     19      -4.8542      2.00000
     20      -4.8441      2.00000
     21      -4.8333      2.00000
     22      -4.8162      2.00000
     23      -4.8086      2.00000
     24      -4.7825      2.00000
     25      -4.7574      2.00000
     26      -4.7091      2.00000
     27      -4.6808      2.00000
     28      -4.6690      2.00000
     29      -4.6505      2.00000
     30      -4.5432      2.00000
     31      -4.3951      2.00000
     32      -4.3652      2.00000
     33      -4.3284      2.00000
     34      -4.3253      2.00000
     35      -4.2934      2.00000
     36      -4.1095      2.00000
     37      -4.0659      2.00000
     38      -4.0536      2.00000
     39      -4.0145      2.00000
     40      -3.9776      2.00000
     41      -3.9597      2.00000
     42      -3.9302      2.00000
     43      -3.8884      2.00000
     44      -3.7886      2.00000
     45      -3.7600      2.00000
     46      -3.7137      2.00000
     47      -3.6907      2.00000
     48      -3.6722      2.00000
     49      -3.6405      2.00000
     50      -3.6118      2.00000
     51      -3.4781      2.00000
     52      -3.4766      2.00000
     53      -3.4452      2.00000
     54      -3.4053      2.00000
     55      -3.3529      2.00000
     56      -3.3412      2.00000
     57      -3.2121      2.00000
     58      -3.1890      2.00000
     59      -3.1753      2.00000
     60      -3.1523      2.00000
     61      -3.1213      2.00000
     62      -3.0546      2.00000
     63      -3.0290      2.00000
     64      -3.0048      2.00000
     65      -2.9703      2.00000
     66      -2.9321      2.00000
     67      -2.8938      2.00000
     68      -2.8794      2.00000
     69      -2.8260      2.00000
     70      -2.7907      2.00000
[...]
     83      -2.2850      2.00000
     84      -2.2709      2.00000
     85      -2.2521      2.00000
     86      -2.2166      2.00000
     87      -2.1848      2.00000
     88      -2.1718      2.00000
     89      -2.1637      2.00000
     90      -2.1543      2.00000
     91      -2.1038      2.00000
     92      -2.0794      2.00000
     93      -2.0652      2.00000
     94      -2.0134      2.00000
     95      -1.9800      2.00000
     96      -1.9595      2.00000
     97      -1.8891      2.00000
     98      -1.8587      2.00000
     99      -1.8565      2.00000
    100      -1.8406      2.00000
    101      -1.7734      2.00000
    102      -1.7483      2.00000
    103      -1.7341      2.00000
    104      -1.7171      2.00000
    105      -1.7153      2.00000
    106      -1.6923      2.00000
    107      -1.6829      2.00000
    108      -1.6552      2.00000
    109      -1.6185      2.00000
    110      -1.5476      2.00000
    111      -1.5247      2.00000
    112      -1.4668      2.00000
    113      -1.4382      2.00000
    114      -1.3702      2.00000
    115      -1.3110      2.00000
    116      -1.2875      2.00000
    117      -1.2388      2.00000
    118      -1.1937      2.00000
    119      -1.1361      2.00000
    120      -1.1018      2.00000
    121      -1.0650      2.00000
    122      -1.0467      2.00000
    123      -1.0430      2.00000
    124      -1.0185      2.00000
    125      -0.9888      2.00000
    126      -0.9732      2.00000
    127      -0.9529      2.00000
    128      -0.9242      2.00000
    129      -0.9194      2.00000
    130      -0.8951      2.00000
    131      -0.8715      2.00000
    132      -0.8266      2.00000
    133      -0.7831      2.00000
    134      -0.7597      2.00000
    135      -0.7376      2.00000
    136      -0.7031      2.00000
    137      -0.6991      2.00000
    138      -0.6730      2.00000
    139      -0.6028      2.00000
    140      -0.5617      2.00000
    141      -0.5048      2.00000
    142      -0.4685      2.00000
    143      -0.3965      2.00000
    144      -0.3050      2.00000
    145      -0.2659      2.00000
    146      -0.2051      2.00000
    147      -0.1790      2.00000
    148      -0.1394      2.00000
    149      -0.0992      2.00000
    150      -0.0655      2.00000
    151      -0.0404      2.00000
    152       0.0318      2.00000
    153       0.0441      2.00000
    154       0.0613      2.00000
    155       0.0666      2.00000
    156       0.0874      2.00000
    157       0.1108      2.00000
    158       0.1581      2.00000
    159       0.1810      2.00000
    160       0.2090      2.00000
    161       0.2209      2.00000
    162       0.2525      2.00000
    163       0.3114      2.00000
    164       0.3282      2.00000
    165       0.3553      2.00001
    166       0.3712      2.00001
    167       0.5172      2.00067
    168       0.5703      2.00238
    169       0.5894      2.00360
    170       0.6089      2.00537
    171       0.6261      2.00750
    172       0.6513      2.01185
    173       0.6757      2.01776
    174       0.7563      2.04945
    175       0.7715      2.05635
    176       0.7856      2.06220
    177       0.8243      2.07092
    178       0.8380      2.06930
    179       0.8803      2.03664
    180       0.9045      1.99157
    181       0.9109      1.97572
    182       0.9761      1.70070
    183       1.0094      1.48131
    184       1.0504      1.15802
    185       1.0655      1.03095
    186       1.0900      0.82459
    187       1.1050      0.70238
    188       1.1264      0.53705
    189       1.1321      0.49574
    190       1.1480      0.38718
    191       1.2862     -0.06372
    192       1.3066     -0.07046
    193       1.3413     -0.06623
    194       1.3740     -0.05315
    195       1.3959     -0.04304
    196       1.4670     -0.01656
    197       1.5931     -0.00133
    198       1.6866     -0.00011
    199       1.7964     -0.00000
    200       1.9584     -0.00000
    201       2.2370     -0.00000
    202       2.3259     -0.00000
    203       2.7475     -0.00000
    204       2.9373     -0.00000
    205       2.9384     -0.00000
    206       2.9625     -0.00000
    207       2.9986     -0.00000
    208       3.1854     -0.00000
    209       3.3816     -0.00000
    210       3.4954     -0.00000
    211       3.5466     -0.00000
    212       3.5976     -0.00000
    213       3.6866     -0.00000
    214       3.7863     -0.00000
    215       3.9091     -0.00000
    216       4.1381     -0.00000
    217       4.1797     -0.00000
    218       4.3632     -0.00000
    219       4.4252     -0.00000
    220       4.5798     -0.00000
    221       4.6543     -0.00000
    222       4.7963     -0.00000
    223       5.1632     -0.00000
    224       5.4735     -0.00000
    225       5.9799     -0.00000
    226       6.4848     -0.00000
    227       6.5236     -0.00000
    228       6.6150      0.00000


--------------------------------------------------------------------------------------------------------


 soft charge-density along one line, spin component           1
         0         1         2         3         4         5         6         7         8         9
 total charge-density along one line
 
 pseudopotential strength for first ion, spin component:           1
 10.098   0.015   0.004   0.011  -0.000  -0.004  -0.010   0.001
  0.015  -0.002  -0.000  -0.000  -0.000  -0.000  -0.000   0.000
  0.004  -0.000  -4.244  -0.007   0.001  -0.011  -0.002   0.000
  0.011  -0.000  -0.007  -4.261   0.004  -0.002  -0.017   0.001
 -0.000  -0.000   0.001   0.004  -4.242   0.000   0.001  -0.010
 -0.004  -0.000  -0.011  -0.002   0.000  -0.770  -0.000   0.000
 -0.010  -0.000  -0.002  -0.017   0.001  -0.000  -0.770   0.000
  0.001   0.000   0.000   0.001  -0.010   0.000   0.000  -0.770
 total augmentation occupancy for first ion, spin component:           1
  1.632  -0.894   0.019   0.021  -0.062   0.034   0.087  -0.030
 -0.894   1.260  -0.209  -0.567   0.128  -0.085  -0.236   0.046
  0.019  -0.209   0.851   0.190  -0.005   0.116   0.053  -0.007
  0.021  -0.567   0.190   1.334  -0.030   0.054   0.249  -0.015
 -0.062   0.128  -0.005  -0.030   0.804  -0.007  -0.016   0.102
  0.034  -0.085   0.116   0.054  -0.007   0.020   0.021  -0.004
  0.087  -0.236   0.053   0.249  -0.016   0.021   0.071  -0.009
 -0.030   0.046  -0.007  -0.015   0.102  -0.004  -0.009   0.015


------------------------ aborting loop because EDIFF is reached ----------------------------------------


    CHARGE:  cpu time    0.4143: real time    0.4171
    FORLOC:  cpu time    0.0441: real time    0.0444
    FORNL :  cpu time    2.1934: real time    2.2094
    STRESS:  cpu time    6.5366: real time    6.5844
    FORCOR:  cpu time    0.1482: real time    0.1491
    FORHAR:  cpu time    0.0716: real time    0.0721
    MIXING:  cpu time    0.0048: real time    0.0048
    OFIELD:  cpu time    0.0000: real time    0.0000

  FORCE on cell =-STRESS in cart. coord.  units (eV):
  Direction    XX          YY          ZZ          XY          YZ          ZX
  --------------------------------------------------------------------------------------
  Alpha Z   975.10247   975.10247   975.10247
  Ewald  110400.61710110409.64312************  -188.19296   235.07958   -75.10408
  Hartree117166.61900117150.92000************  -123.22215   102.19133   -40.37075
  E(xc)   -1665.27694 -1665.05113 -1672.75827    -0.44882     0.68570    -0.23344
  Local  ************************238237.60292   301.57125  -315.42956   108.82257
  n-local   120.74577   120.15110    83.23392    -0.46114     0.28835     0.62799
  augment  1894.62355  1892.96127  1934.90903     2.10898    -3.62310     0.69722
  Kinetic  5519.90066  5512.69291  5602.86483     9.54764   -19.56645     6.62978
  Fock        0.00000     0.00000     0.00000     0.00000     0.00000     0.00000
  -------------------------------------------------------------------------------------
  Total     -38.97063   -40.75774    -6.53469     0.90279    -0.37415     1.06930
  in kB     -46.41467   -48.54314    -7.78292     1.07524    -0.44562     1.27356
  external pressure =      -34.25 kB  Pullay stress =        0.00 kB


 VOLUME and BASIS-vectors are now :
 -----------------------------------------------------------------------------
  energy-cutoff  :      450.00
  volume of cell :     1345.22
      direct lattice vectors                 reciprocal lattice vectors
     7.296955120 -4.212899000  0.000000000     0.137043463  0.000000000  0.000000000
     0.000000000  8.425798000  0.000000000     0.068521732  0.118683121  0.000000000
     0.000000000  0.000000000 21.879635000     0.000000000  0.000000000  0.045704602

  length of vectors
     8.425798004  8.425798000 21.879635000     0.137043463  0.137043463  0.045704602


 FORCES acting on ions
    electron-ion (+dipol)            ewald-force                    non-local-force                 convergence-correction
 -----------------------------------------------------------------------------------------------
   -.370E+01 0.123E+02 -.874E+03   0.371E+01 -.172E+02 0.861E+03   0.677E-01 0.326E+01 0.106E+02   0.373E-02 0.111E-01 0.677E-01
   -.910E+02 0.594E+02 -.158E+04   0.937E+02 -.586E+02 0.160E+04   -.225E+01 -.667E+00 -.213E+02   -.236E-02 0.139E-01 0.440E-01
   0.640E+02 -.105E+03 -.155E+04   -.750E+02 0.126E+03 0.161E+04   0.110E+02 -.207E+02 -.581E+02   0.190E-01 -.160E-01 0.415E-02
   0.471E+00 0.464E+00 0.233E+04   -.490E+00 -.389E+00 -.233E+04   0.328E-01 -.438E-01 -.117E+01   -.303E-02 -.693E-01 -.348E-01
   0.346E+00 0.447E+00 0.234E+04   -.302E+00 -.556E+00 -.233E+04   -.199E-01 -.192E-02 -.112E+01   -.574E-01 0.685E-01 -.438E-01
   0.180E+00 0.930E+00 0.233E+04   -.267E+00 -.887E+00 -.233E+04   0.217E-01 -.237E-01 -.114E+01   0.450E-01 -.258E-01 -.616E-01
   -.442E+00 -.191E+00 0.234E+04   0.462E+00 0.228E+00 -.233E+04   -.170E-03 0.115E-01 -.115E+01   -.452E-02 0.133E-01 -.591E-01
   -.281E+00 -.622E+00 0.234E+04   0.227E+00 0.600E+00 -.233E+04   0.175E-02 0.505E-01 -.124E+01   0.455E-01 -.289E-01 -.385E-01
   -.101E+00 -.660E+00 0.234E+04   0.102E+00 0.532E+00 -.233E+04   0.155E-01 0.259E-01 -.123E+01   0.127E-01 0.109E+00 -.187E-01
   -.145E+00 -.412E-01 0.233E+04   0.218E+00 -.516E-01 -.233E+04   -.706E-01 0.914E-01 -.105E+01   -.101E-01 -.401E-01 -.681E-01
   0.262E-01 -.213E+00 0.233E+04   -.642E-01 0.353E+00 -.233E+04   -.195E-01 -.336E-01 -.123E+01   0.619E-01 -.828E-01 -.194E-01
   -.872E-02 -.246E+00 0.233E+04   0.114E+00 0.172E+00 -.233E+04   -.142E-01 0.118E-01 -.105E+01   -.900E-01 0.561E-01 -.220E-01
   -.143E+01 0.276E+01 0.851E+03   0.135E+01 -.286E+01 -.851E+03   0.182E+00 -.162E-01 -.399E+00   -.886E-01 0.526E-01 -.139E-01
   -.114E+01 0.244E+01 0.851E+03   0.979E+00 -.237E+01 -.851E+03   0.141E+00 0.668E-01 -.481E-01   0.530E-01 -.932E-01 -.150E-01
   0.419E+01 -.127E+01 0.850E+03   -.412E+01 0.121E+01 -.850E+03   -.471E-01 0.860E-01 -.144E+00   -.244E-01 -.620E-01 -.670E-01
   -.267E+00 -.816E+00 0.859E+03   0.223E+00 0.798E+00 -.859E+03   0.611E-01 0.772E-01 -.320E+00   0.755E-02 -.101E-01 -.343E-01
   0.278E+01 0.413E+01 0.861E+03   -.283E+01 -.418E+01 -.861E+03   0.202E-01 -.109E+00 -.312E+00   0.152E-02 0.106E+00 0.161E-01
   0.198E+01 0.542E+01 0.858E+03   -.197E+01 -.541E+01 -.857E+03   -.817E-01 -.181E-01 -.215E+00   0.234E-01 -.393E-01 -.327E-01
   -.286E+01 -.390E+01 0.854E+03   0.289E+01 0.405E+01 -.854E+03   -.593E-01 0.349E-01 -.184E+00   0.250E-01 -.432E-01 -.186E-01
   0.531E+00 -.614E+01 0.854E+03   -.567E+00 0.621E+01 -.853E+03   -.284E-01 0.274E-01 -.219E+00   0.655E-01 -.124E-01 -.263E-01
   -.409E+01 -.292E+01 0.857E+03   0.420E+01 0.301E+01 -.857E+03   0.511E-01 -.667E-01 -.231E+00   -.633E-01 0.102E+00 -.219E-01
   -.130E+01 0.522E+01 -.615E+03   0.110E+01 -.524E+01 0.615E+03   0.117E+00 -.221E+00 0.150E+00   0.428E-01 -.481E-02 0.939E-01
   -.484E+01 -.132E+01 -.636E+03   0.484E+01 0.154E+01 0.635E+03   0.143E+00 -.172E+00 -.796E-01   0.215E-01 -.633E-01 0.832E-01
   -.395E+00 0.664E+01 -.655E+03   0.111E+00 -.627E+01 0.655E+03   0.262E+00 -.296E+00 -.127E+00   0.114E-01 -.596E-01 0.503E-01
   0.235E+01 0.153E+02 -.625E+03   -.273E+01 -.147E+02 0.625E+03   0.189E+00 -.749E+00 0.318E-01   -.131E-01 0.108E-01 0.426E-02
   0.144E+02 0.777E+01 -.643E+03   -.138E+02 -.792E+01 0.643E+03   -.807E+00 0.256E-02 0.135E-01   -.448E-02 0.255E-01 0.665E-01
   -.945E+01 -.133E+02 -.641E+03   0.935E+01 0.133E+02 0.640E+03   0.298E+00 -.102E+00 0.398E-01   -.370E-01 0.779E-02 0.773E-01
   -.493E+01 -.116E+02 -.637E+03   0.499E+01 0.116E+02 0.637E+03   0.109E+00 0.287E+00 0.481E+00   -.443E-01 -.233E-01 -.125E-01
   0.400E+01 -.716E+01 -.629E+03   -.396E+01 0.699E+01 0.628E+03   -.226E+00 0.300E+00 0.351E+00   0.438E-01 0.386E-01 0.284E-01
   -.207E+01 0.131E+01 -.624E+03   0.201E+01 -.157E+01 0.623E+03   0.203E+00 0.139E+00 0.595E+00   -.238E-01 0.789E-01 0.461E-01
   -.250E+02 0.224E+01 -.212E+04   0.254E+02 -.197E+01 0.211E+04   -.171E+00 -.407E+00 0.180E+01   0.193E-02 0.187E-01 0.200E-01
   0.170E+02 0.342E+02 -.214E+04   -.173E+02 -.348E+02 0.214E+04   0.370E+00 0.658E+00 0.145E+01   -.206E-01 -.247E-01 0.491E-01
   0.433E+02 -.204E+02 -.213E+04   -.435E+02 0.200E+02 0.213E+04   -.136E+00 0.515E+00 0.909E+00   0.135E-01 0.228E-01 0.667E-01
   -.506E+01 0.242E+00 -.218E+04   0.496E+01 -.505E+00 0.218E+04   0.776E-01 0.222E+00 0.810E+00   -.176E-01 -.995E-02 0.590E-01
   0.195E+02 0.160E+02 -.219E+04   -.196E+02 -.162E+02 0.219E+04   -.213E-01 0.441E+00 0.740E+00   -.614E-02 -.450E-01 0.775E-01
   0.587E+02 0.596E+02 -.198E+04   -.615E+02 -.576E+02 0.198E+04   0.282E+01 -.175E+01 -.329E+01   0.122E-02 0.507E-02 0.873E-01
   -.425E+02 -.380E+02 -.206E+04   0.438E+02 0.403E+02 0.205E+04   -.160E+01 -.237E+01 0.248E+01   0.279E-01 0.346E-02 0.602E-01
   -.590E+02 0.696E+02 -.202E+04   0.594E+02 -.705E+02 0.202E+04   -.671E+00 0.125E+01 0.142E+00   0.129E-01 0.564E-02 0.406E-01
   0.165E+02 -.713E+02 -.212E+04   -.163E+02 0.725E+02 0.212E+04   -.222E+00 -.974E+00 0.104E+01   -.863E-02 0.115E-01 0.549E-01
 -----------------------------------------------------------------------------------------------
   -.969E+01 0.212E+02 0.732E+02   -.426E-13 -.284E-13 0.409E-11   0.973E+01 -.211E+02 -.737E+02   0.214E-01 0.694E-02 0.489E+00
 
 
 POSITION                                       TOTAL-FORCE (eV/Angst)
 -----------------------------------------------------------------------------------
      5.10902      0.66130     10.42841         0.080136     -1.639112     -1.847984
      6.62999     -0.58350     10.23863         0.449788      0.171476     -0.666157
      4.91957      1.04489     11.49268         0.056514      0.698464      1.646967
      7.20031     -1.38846      1.62732         0.009225     -0.041048      0.142529
      2.33567      1.42014      1.62732        -0.034810     -0.045048      0.138558
      4.76799      0.01584      1.62732        -0.021320     -0.009276      0.133125
      7.20031      1.42015      1.62732         0.012752      0.059544      0.098720
      2.33567      4.22875      1.62732        -0.008512     -0.002983      0.147464
      4.76799      2.82445      1.62732         0.027784      0.003582      0.111166
      2.33567      7.03734      1.62732        -0.008916     -0.044273      0.073514
      4.76799      5.63304      1.62732         0.002756      0.021081      0.152107
      7.20031      4.22874      1.62732        -0.000417     -0.009165      0.045073
      1.52490      0.01584      3.92052         0.011517     -0.066718      0.019675
      3.95722     -1.38846      3.92052         0.029225      0.034454      0.196326
      6.38953     -2.79276      3.92052         0.004984     -0.032681     -0.008021
      1.52490      2.82445      3.92052         0.022837      0.046697     -0.115567
      3.95722      1.42015      3.92052        -0.033138     -0.047294     -0.056319
      6.38953      0.01585      3.92052        -0.052850     -0.050410      0.068380
      1.52490      5.63305      3.92052        -0.005847      0.133182      0.000728
      3.95722      4.22874      3.92052        -0.001172      0.075179     -0.015984
      6.38953      2.82445      3.92052         0.099107      0.115771     -0.159684
      0.70667      4.24205      6.19454        -0.041346     -0.240285     -0.194243
      3.13594      5.65192      6.22640         0.153642     -0.017843     -0.402998
      5.57164     -1.38137      6.25533        -0.011840      0.008989     -0.166211
      0.71887      1.45317      6.19054        -0.202850     -0.069268      0.456323
      3.17472      0.00748      6.23512        -0.175083     -0.122205     -0.004036
      0.70723      7.06797      6.22963         0.156055     -0.111391     -0.263519
      5.57147      4.20973      6.20741         0.122108      0.232924      0.023185
      3.16859      2.79450      6.19627        -0.143282      0.165656      0.060426
      5.57227      1.41336      6.19182         0.121651     -0.040947      0.212643
      2.34483      4.21226      8.39904         0.235639     -0.128379      0.498570
      4.76453      5.59735      8.49610        -0.002638     -0.037235     -0.098641
      2.35910      1.36818      8.52037        -0.267121      0.168227     -0.307055
      7.21894      4.20782      8.55900        -0.037024     -0.053295     -0.294712
      2.35051      6.99381      8.58361        -0.054857      0.162336     -0.318769
      4.68072      0.04914      8.66370        -0.011058      0.178239     -0.057781
      7.27345      1.45317      8.44674        -0.250541     -0.052384      0.235396
      7.25819     -1.49385      8.53746        -0.226731      0.396950      0.993733
      4.79765      2.83582      8.54903        -0.004367      0.188491     -0.476925
 -----------------------------------------------------------------------------------
    total drift:                                0.065809      0.106614      0.006738
  FORCES: max atom, RMS     2.471468    0.582894
  Number: max atom                 1
  FORCE total and by dimension    3.640173    1.847984


--------------------------------------------------------------------------------------------------------



  FREE ENERGIE OF THE ION-ELECTRON SYSTEM (eV)
  ---------------------------------------------------
  free  energy   TOTEN  =      -230.44359157 eV

  energy  without entropy=     -230.43470578  energy(sigma->0) =     -230.44062964
 
 d Force = 0.7630986E-01[ 0.184E-01, 0.134E+00]  d Energy = 0.7853155E-01-0.222E-02
 d Force =-0.2941006E+02[-0.297E+02,-0.291E+02]  d Ewald  =-0.2940784E+02-0.222E-02


--------------------------------------------------------------------------------------------------------


    POTLOK:  cpu time    0.1462: real time    0.1651


--------------------------------------------------------------------------------------------------------


 stress matrix after NEB project (eV)
    -38.97063      0.90279      1.06930
      0.90279    -40.75774     -0.37415
      1.06930     -0.37415     -6.53469
  FORCES: max atom, RMS     2.471468    0.582894
  FORCE total and by dimension    3.640173    1.847984
  Stress total and by dimension   56.804951   40.757736
 Quasi-Newton relaxation of ions (Broydens 2nd method)
  g(Force)  = 0.256E+00   g(Stress)= 0.000E+00

 retain information from N=  2 steps
 eigenvalues of (default step * inverse Hessian matrix)
  average eigenvalue of G=   0.6256
 eigenvalue spectrum of G is  0.7360  0.5152
  RESET_HESSIAN           0


--------------------------------------------------------------------------------------------------------


    WAVPRE:  cpu time    0.0694: real time    0.2385
    FEWALD:  cpu time    0.0013: real time    0.0013

 real space projection operators:
  total allocation   :      13551.03 KBytes
  max/ min on nodes  :       6784.41       6766.62

    ORTHCH:  cpu time    0.9012: real time    0.9077
     LOOP+:  cpu time   68.4015: real time   69.2136

