<?xml version="1.0" encoding="ISO-8859-1"?>
<modeling>
 <generator>
  <i name="program" type="string"> vasp </i>
  <i name="version" type="string">5.4.4  </i>
  <i name="subversion" type="string">16052018 (build Apr 24 2014 20:13:14) complex standard parallel Constrained Minimization Technique (TS), Periodic NBO, VASPsol, libbeef, VASP2WANNIER90, Constrained Cell Relaxation </i>
  <i name="platform" type="string">Center for Computational Chemistry </i>
  <i name="user" type="string">phu </i>
  <i name="host" type="string">node06 </i>
  <i name="date" type="string">2025 09 27 </i>
  <i name="time" type="string">23:37:34 </i>
 </generator>
 <incar>
  <i type="string" name="SYSTEM"> metal</i>
  <i type="int" name="ISTART">     0</i>
  <i type="string" name="PREC">normal</i>
  <i type="string" name="ALGO">Fast</i>
  <i type="int" name="NSIM">     4</i>
  <i type="int" name="ISPIN">     1</i>
  <i type="int" name="NELMIN">     8</i>
  <i type="int" name="IBRION">     1</i>
  <i name="EDIFFG">     -0.05000000</i>
  <i type="int" name="NSW">  5000</i>
  <i type="int" name="ISIF">     2</i>
  <i type="int" name="ISYM">     0</i>
  <i name="ENCUT">    450.00000000</i>
  <i name="POTIM">      0.20000000</i>
  <i type="string" name="LREAL">A</i>
  <i type="int" name="ISMEAR">     1</i>
  <i name="SIGMA">      0.20000000</i>
  <i type="logical" name="LWAVE"> F  </i>
  <i type="logical" name="LCHARG"> F  </i>
  <v type="int" name="KPOINT_BSE">    -1     0     0     0</v>
  <i type="int" name="VOSKOWN">     0</i>
 </incar>
 <structure name="primitive_cell" >
  <crystal>
   <varray name="basis" >
    <v>       7.29695512      -4.21289900       0.00000000 </v>
    <v>       0.00000000       8.42579800       0.00000000 </v>
    <v>       0.00000000       0.00000000      21.87963500 </v>
   </varray>
   <i name="volume">   1345.21837528 </i>
   <varray name="rec_basis" >
    <v>       0.13704346       0.00000000       0.00000000 </v>
    <v>       0.06852173       0.11868312       0.00000000 </v>
    <v>       0.00000000       0.00000000       0.04570460 </v>
   </varray>
  </crystal>
  <varray name="positions" >
   <v>      -0.29936353       0.43307973       0.47605498 </v>
   <v>      -0.32750008       0.45993561      -0.47405649 </v>
   <v>      -0.35904084       0.32584081       0.39608943 </v>
   <v>      -0.09302304       0.38355368       0.46964747 </v>
   <v>      -0.34266961      -0.33567637       0.39149275 </v>
   <v>      -0.00113939      -0.32788408       0.38540948 </v>
   <v>       0.32485511       0.32412994       0.38999118 </v>
   <v>      -0.00375226       0.31834736       0.38805643 </v>
   <v>       0.32224284      -0.01004278       0.39275995 </v>
   <v>      -0.34724695      -0.00884488       0.38845210 </v>
   <v>      -0.23727156      -0.45053822       0.28252504 </v>
   <v>      -0.01053351      -0.00544579       0.39173617 </v>
   <v>       0.43635565       0.21998242       0.28494513 </v>
   <v>      -0.23616598       0.21790362       0.28630187 </v>
   <v>       0.31969710      -0.33898656       0.38274435 </v>
   <v>       0.43514061      -0.45160162       0.28306356 </v>
   <v>       0.09745956      -0.44648196       0.28386707 </v>
   <v>      -0.23715301      -0.12024752       0.28357588 </v>
   <v>       0.09583588      -0.11315309       0.28529232 </v>
   <v>       0.42851863      -0.11537839       0.28553545 </v>
   <v>       0.09948942       0.22283014       0.28211919 </v>
   <v>      -0.45768900       0.43970300       0.17918600 </v>
   <v>      -0.12435600       0.43970300       0.17918600 </v>
   <v>      -0.45768900       0.10636900       0.17918600 </v>
   <v>      -0.12435600      -0.22696400       0.17918600 </v>
   <v>       0.20897700       0.10636900       0.17918600 </v>
   <v>      -0.45768900      -0.22696400       0.17918600 </v>
   <v>      -0.12435600       0.10636900       0.17918600 </v>
   <v>       0.20897700      -0.22696400       0.17918600 </v>
   <v>       0.20897700       0.43970300       0.17918600 </v>
   <v>      -0.34657800       0.32859100       0.07437600 </v>
   <v>      -0.34657800      -0.33807500       0.07437600 </v>
   <v>      -0.01324500      -0.33807500       0.07437600 </v>
   <v>       0.32008800       0.32859100       0.07437600 </v>
   <v>      -0.01324500       0.32859100       0.07437600 </v>
   <v>       0.32008800      -0.00474200       0.07437600 </v>
   <v>      -0.34657800      -0.00474200       0.07437600 </v>
   <v>      -0.01324500      -0.00474200       0.07437600 </v>
   <v>       0.32008800      -0.33807500       0.07437600 </v>
  </varray>
 </structure>
 <varray name="primitive_index" >
  <v type="int" >        1 </v>
  <v type="int" >        3 </v>
  <v type="int" >       36 </v>
  <v type="int" >        2 </v>
  <v type="int" >       39 </v>
  <v type="int" >       37 </v>
  <v type="int" >       33 </v>
  <v type="int" >       38 </v>
  <v type="int" >       35 </v>
  <v type="int" >       32 </v>
  <v type="int" >       30 </v>
  <v type="int" >       34 </v>
  <v type="int" >       26 </v>
  <v type="int" >       24 </v>
  <v type="int" >       31 </v>
  <v type="int" >       29 </v>
  <v type="int" >       22 </v>
  <v type="int" >       28 </v>
  <v type="int" >       27 </v>
  <v type="int" >       23 </v>
  <v type="int" >       25 </v>
  <v type="int" >       17 </v>
  <v type="int" >       18 </v>
  <v type="int" >       14 </v>
  <v type="int" >       21 </v>
  <v type="int" >       13 </v>
  <v type="int" >       20 </v>
  <v type="int" >       15 </v>
  <v type="int" >       19 </v>
  <v type="int" >       16 </v>
  <v type="int" >        6 </v>
  <v type="int" >        9 </v>
  <v type="int" >        7 </v>
  <v type="int" >        5 </v>
  <v type="int" >        4 </v>
  <v type="int" >       10 </v>
  <v type="int" >       11 </v>
  <v type="int" >       12 </v>
  <v type="int" >        8 </v>
 </varray>
 <kpoints>
  <generation param="Gamma">
   <v type="int" name="divisions">       2        2        1 </v>
   <v name="usershift">      0.00000000       0.00000000       0.00000000 </v>
   <v name="genvec1">      0.50000000       0.00000000       0.00000000 </v>
   <v name="genvec2">     -0.00000000       0.50000000       0.00000000 </v>
   <v name="genvec3">      0.00000000       0.00000000       1.00000000 </v>
   <v name="shift">      0.00000000       0.00000000       0.00000000 </v>
  </generation>
  <varray name="kpointlist" >
   <v>       0.00000000       0.00000000       0.00000000 </v>
   <v>       0.50000000       0.00000000       0.00000000 </v>
   <v>      -0.00000000       0.50000000       0.00000000 </v>
   <v>       0.50000000       0.50000000       0.00000000 </v>
  </varray>
  <varray name="weights" >
   <v>       0.25000000 </v>
   <v>       0.25000000 </v>
   <v>       0.25000000 </v>
   <v>       0.25000000 </v>
  </varray>
 </kpoints>
 <parameters>
  <separator name="general" >
   <i type="string" name="SYSTEM">metal</i>
   <i type="logical" name="LCOMPAT"> F  </i>
  </separator>
  <separator name="electronic" >
   <i type="string" name="PREC">normal</i>
   <i name="ENMAX">    450.00000000</i>
   <i name="ENAUG">    644.87300000</i>
   <i name="EDIFF">      0.00010000</i>
   <i type="int" name="IALGO">    68</i>
   <i type="int" name="IWAVPR">    11</i>
   <i type="int" name="NBANDS">   228</i>
   <i name="NELECT">    376.00000000</i>
   <i type="int" name="TURBO">     0</i>
   <i type="int" name="IRESTART">     0</i>
   <i type="int" name="NREBOOT">     0</i>
   <i type="int" name="NMIN">     0</i>
   <i name="EREF">      0.00000000</i>
   <separator name="electronic smearing" >
    <i type="int" name="ISMEAR">     1</i>
    <i name="SIGMA">      0.20000000</i>
    <i name="KSPACING">      0.50000000</i>
    <i type="logical" name="KGAMMA"> T  </i>
   </separator>
   <separator name="electronic projectors" >
    <i type="logical" name="LREAL"> T  </i>
    <v name="ROPT">     -0.00050000     -0.00050000     -0.00050000</v>
    <i type="int" name="LMAXPAW">  -100</i>
    <i type="int" name="LMAXMIX">     2</i>
    <i type="logical" name="NLSPLINE"> F  </i>
   </separator>
   <separator name="electronic startup" >
    <i type="int" name="ISTART">     0</i>
    <i type="int" name="ICHARG">     2</i>
    <i type="int" name="INIWAV">     1</i>
   </separator>
   <separator name="electronic spin" >
    <i type="int" name="ISPIN">     1</i>
    <i type="logical" name="LNONCOLLINEAR"> F  </i>
    <v name="MAGMOM">      1.00000000      1.00000000      1.00000000      1.00000000      1.00000000      1.00000000      1.00000000      1.00000000      1.00000000      1.00000000      1.00000000      1.00000000      1.00000000      1.00000000      1.00000000      1.00000000      1.00000000      1.00000000      1.00000000      1.00000000
      1.00000000      1.00000000      1.00000000      1.00000000      1.00000000      1.00000000      1.00000000      1.00000000      1.00000000      1.00000000      1.00000000      1.00000000      1.00000000      1.00000000      1.00000000      1.00000000      1.00000000      1.00000000      1.00000000</v>
    <i name="NUPDOWN">     -1.00000000</i>
    <i type="logical" name="LSORBIT"> F  </i>
    <v name="SAXIS">      0.00000000      0.00000000      1.00000000</v>
    <i type="logical" name="LSPIRAL"> F  </i>
    <v name="QSPIRAL">      0.00000000      0.00000000      0.00000000</v>
    <i type="logical" name="LZEROZ"> F  </i>
   </separator>
   <separator name="electronic exchange-correlation" >
    <i type="logical" name="LASPH"> F  </i>
    <i type="logical" name="LMETAGGA"> F  </i>
   </separator>
   <separator name="electronic convergence" >
    <i type="int" name="NELM">    60</i>
    <i type="int" name="NELMDL">    -5</i>
    <i type="int" name="NELMIN">     8</i>
    <i name="ENINI">    450.00000000</i>
    <separator name="electronic convergence detail" >
     <i type="logical" name="LDIAG"> T  </i>
     <i type="logical" name="LSUBROT"> F  </i>
     <i name="WEIMIN">      0.00100000</i>
     <i name="EBREAK">      0.00000011</i>
     <i name="DEPER">      0.30000000</i>
     <i type="int" name="NRMM">     4</i>
     <i name="TIME">      0.40000000</i>
    </separator>
   </separator>
   <separator name="electronic mixer" >
    <i name="AMIX">      0.40000000</i>
    <i name="BMIX">      1.00000000</i>
    <i name="AMIN">      0.10000000</i>
    <i name="AMIX_MAG">      1.60000000</i>
    <i name="BMIX_MAG">      1.00000000</i>
    <separator name="electronic mixer details" >
     <i type="int" name="IMIX">     4</i>
     <i type="logical" name="MIXFIRST"> F  </i>
     <i type="int" name="MAXMIX">   -45</i>
     <i name="WC">    100.00000000</i>
     <i type="int" name="INIMIX">     1</i>
     <i type="int" name="MIXPRE">     1</i>
     <i type="int" name="MREMOVE">     5</i>
    </separator>
   </separator>
   <separator name="electronic dipolcorrection" >
    <i type="logical" name="LDIPOL"> F  </i>
    <i type="logical" name="LMONO"> F  </i>
    <i type="int" name="IDIPOL">     0</i>
    <i name="EPSILON">      1.00000000</i>
    <v name="DIPOL">   -100.00000000   -100.00000000   -100.00000000</v>
    <i name="EFIELD">      0.00000000</i>
   </separator>
  </separator>
  <separator name="grids" >
   <i type="int" name="NGX">    48</i>
   <i type="int" name="NGY">    48</i>
   <i type="int" name="NGZ">   120</i>
   <i type="int" name="NGXF">    96</i>
   <i type="int" name="NGYF">    96</i>
   <i type="int" name="NGZF">   240</i>
   <i type="logical" name="ADDGRID"> F  </i>
  </separator>
  <separator name="ionic" >
   <i type="int" name="NSW">  5000</i>
   <i type="int" name="IBRION">     1</i>
   <i type="int" name="MDALGO">     0</i>
   <i type="int" name="ISIF">     2</i>
   <i name="PSTRESS">      0.00000000</i>
   <i name="EDIFFG">     -0.05000000</i>
   <i type="int" name="NFREE">     0</i>
   <i name="POTIM">      0.20000000</i>
   <i name="SMASS">     -3.00000000</i>
   <i name="SCALEE">      1.00000000</i>
  </separator>
  <separator name="ionic md" >
   <i name="TEBEG">      0.00010000</i>
   <i name="TEEND">      0.00010000</i>
   <i type="int" name="NBLOCK">     1</i>
   <i type="int" name="KBLOCK">  5000</i>
   <i type="int" name="NPACO">   256</i>
   <i name="APACO">     16.00000000</i>
  </separator>
  <separator name="symmetry" >
   <i type="int" name="ISYM">     0</i>
   <i name="SYMPREC">      0.00001000</i>
  </separator>
  <separator name="dos" >
   <i type="int" name="LORBIT">     0</i>
   <v name="RWIGS">     -1.00000000     -1.00000000     -1.00000000</v>
   <i type="int" name="NEDOS">   301</i>
   <i name="EMIN">     10.00000000</i>
   <i name="EMAX">    -10.00000000</i>
   <i name="EFERMI">      0.00000000</i>
  </separator>
  <separator name="writing" >
   <i type="int" name="NWRITE">     2</i>
   <i type="logical" name="LWAVE"> F  </i>
   <i type="logical" name="LDOWNSAMPLE"> F  </i>
   <i type="logical" name="LCHARG"> F  </i>
   <i type="logical" name="LPARD"> F  </i>
   <i type="logical" name="LVTOT"> F  </i>
   <i type="logical" name="LVHAR"> F  </i>
   <i type="logical" name="LELF"> F  </i>
   <i type="logical" name="LOPTICS"> F  </i>
   <v name="STM">      0.00000000      0.00000000      0.00000000      0.00000000      0.00000000      0.00000000      0.00000000</v>
  </separator>
  <separator name="performance" >
   <i type="int" name="NPAR">     4</i>
   <i type="int" name="NSIM">     4</i>
   <i type="int" name="NBLK">    -1</i>
   <i type="logical" name="LPLANE"> T  </i>
   <i type="logical" name="LSCALAPACK"> T  </i>
   <i type="logical" name="LSCAAWARE"> F  </i>
   <i type="logical" name="LSCALU"> F  </i>
   <i type="logical" name="LASYNC"> F  </i>
   <i type="logical" name="LORBITALREAL"> F  </i>
  </separator>
  <separator name="miscellaneous" >
   <i type="int" name="IDIOT">     3</i>
   <i type="int" name="ISPECIAL">     0</i>
   <i type="logical" name="LMUSIC"> F  </i>
   <v name="POMASS">     12.01100000     16.00000000    195.08000000</v>
   <v name="DARWINR">      0.00000000      0.00000000      0.00000000</v>
   <v name="DARWINV">      1.00000000      1.00000000      1.00000000</v>
   <i type="logical" name="LCORR"> T  </i>
  </separator>
  <i type="logical" name="GGA_COMPAT"> T  </i>
  <i type="logical" name="LBERRY"> F  </i>
  <i type="int" name="ICORELEVEL">     0</i>
  <i type="logical" name="LDAU"> F  </i>
  <i type="int" name="I_CONSTRAINED_M">     0</i>
  <separator name="electronic exchange-correlation" >
   <i type="string" name="GGA">--</i>
   <i type="int" name="VOSKOWN">     0</i>
   <i type="logical" name="LHFCALC"> F  </i>
   <i type="string" name="PRECFOCK"></i>
   <i type="logical" name="LSYMGRAD"> F  </i>
   <i type="logical" name="LHFONE"> F  </i>
   <i type="logical" name="LRHFCALC"> F  </i>
   <i type="logical" name="LTHOMAS"> F  </i>
   <i type="logical" name="LMODELHF"> F  </i>
   <i name="ENCUT4O">     -1.00000000</i>
   <i type="int" name="EXXOEP">     0</i>
   <i type="int" name="FOURORBIT">     0</i>
   <i name="AEXX">      0.00000000</i>
   <i name="HFALPHA">      0.00000000</i>
   <i name="MCALPHA">      0.00000000</i>
   <i name="ALDAX">      1.00000000</i>
   <i name="AGGAX">      1.00000000</i>
   <i name="ALDAC">      1.00000000</i>
   <i name="AGGAC">      1.00000000</i>
   <i type="int" name="NKREDX">     1</i>
   <i type="int" name="NKREDY">     1</i>
   <i type="int" name="NKREDZ">     1</i>
   <i type="logical" name="SHIFTRED"> F  </i>
   <i type="logical" name="ODDONLY"> F  </i>
   <i type="logical" name="EVENONLY"> F  </i>
   <i type="int" name="LMAXFOCK">     0</i>
   <i type="int" name="NMAXFOCKAE">     0</i>
   <i type="logical" name="LFOCKAEDFT"> F  </i>
   <i name="HFSCREEN">      0.00000000</i>
   <i name="HFSCREENC">      0.00000000</i>
   <i type="int" name="NBANDSGWLOW">     0</i>
  </separator>
  <separator name="vdW DFT" >
   <i type="logical" name="LUSE_VDW"> F  </i>
   <i name="Zab_VDW">     -0.84910000</i>
   <i name="PARAM1">      0.12340000</i>
   <i name="PARAM2">      1.00000000</i>
   <i name="PARAM3">      0.00000000</i>
  </separator>
  <separator name="model GW" >
   <i type="int" name="MODEL_GW">     0</i>
   <i name="MODEL_EPS0">     20.69566731</i>
   <i name="MODEL_ALPHA">      1.00000000</i>
  </separator>
  <separator name="linear response parameters" >
   <i type="logical" name="LEPSILON"> F  </i>
   <i type="logical" name="LRPA"> F  </i>
   <i type="logical" name="LNABLA"> F  </i>
   <i type="logical" name="LVEL"> F  </i>
   <i type="int" name="KINTER">     0</i>
   <i name="CSHIFT">      0.10000000</i>
   <i name="OMEGAMAX">     -1.00000000</i>
   <i name="DEG_THRESHOLD">      0.00200000</i>
   <i name="RTIME">     -0.10000000</i>
   <i name="WPLASMAI">      0.00000000</i>
   <v name="DFIELD">      0.00000000      0.00000000      0.00000000</v>
   <v name="WPLASMA">      0.00000000      0.00000000      0.00000000      0.00000000      0.00000000      0.00000000      0.00000000      0.00000000      0.00000000</v>
  </separator>
  <separator name="orbital magnetization" >
   <i type="logical" name="NUCIND"> F  </i>
   <v name="MAGPOS">      0.00000000      0.00000000      0.00000000</v>
   <i type="logical" name="LNICSALL"> T  </i>
   <i type="logical" name="ORBITALMAG"> F  </i>
   <i type="logical" name="LMAGBLOCH"> F  </i>
   <i type="logical" name="LCHIMAG"> F  </i>
   <i type="logical" name="LGAUGE"> T  </i>
   <i type="int" name="MAGATOM">     0</i>
   <v name="MAGDIPOL">      0.00000000      0.00000000      0.00000000</v>
   <v name="AVECCONST">      0.00000000      0.00000000      0.00000000</v>
  </separator>
  <separator name="response functions" >
   <i type="logical" name="LADDER"> F  </i>
   <i type="logical" name="LRPAFORCE"> F  </i>
   <i type="logical" name="LFXC"> F  </i>
   <i type="logical" name="LHARTREE"> T  </i>
   <i type="int" name="IBSE">     0</i>
   <v type="int" name="KPOINT">    -1     0     0     0</v>
   <i type="logical" name="LTCTE"> F  </i>
   <i type="logical" name="LTETE"> F  </i>
   <i type="logical" name="LTRIPLET"> F  </i>
   <i type="logical" name="LFXCEPS"> F  </i>
   <i type="logical" name="LFXHEG"> F  </i>
   <i type="int" name="NATURALO">     2</i>
   <i type="logical" name="L2ORDER"> F  </i>
   <i type="logical" name="LMP2LT"> F  </i>
   <i type="logical" name="LUSEW"> F  </i>
   <i name="ENCUTGW">     -2.00000000</i>
   <i name="ENCUTGWSOFT">     -2.00000000</i>
   <i name="ENCUTLF">     -1.00000000</i>
   <i type="int" name="LMAXMP2">    -1</i>
   <i name="SCISSOR">      0.00000000</i>
   <i type="int" name="NOMEGA">     0</i>
   <i type="int" name="NOMEGAR">     0</i>
   <i type="int" name="NBANDSGW">    -1</i>
   <i type="int" name="NBANDSO">    -1</i>
   <i type="int" name="NBANDSV">    -1</i>
   <i type="int" name="NELM">     1</i>
   <i type="int" name="NELMHF">     1</i>
   <i type="int" name="DIM">     3</i>
   <i type="int" name="ANTIRES">     0</i>
   <i name="OMEGAMAX">    -30.00000000</i>
   <i name="OMEGAMIN">    -30.00000000</i>
   <i name="OMEGATL">   -200.00000000</i>
   <i type="int" name="OMEGAGRID">   140</i>
   <i name="CSHIFT">     -0.10000000</i>
   <i type="logical" name="SELFENERGY"> F  </i>
   <i type="logical" name="LSPECTRAL"> F  </i>
   <i type="logical" name="LSPECTRALGW"> F  </i>
   <i type="logical" name="LSINGLES"> F  </i>
   <i type="logical" name="LFERMIGW"> F  </i>
   <i type="logical" name="ODDONLYGW"> F  </i>
   <i type="logical" name="EVENONLYGW"> F  </i>
   <i type="int" name="NKREDLFX">     1</i>
   <i type="int" name="NKREDLFY">     1</i>
   <i type="int" name="NKREDLFZ">     1</i>
   <i type="int" name="MAXMEM">  2800</i>
   <i type="int" name="TELESCOPE">     0</i>
   <i type="int" name="TAUPAR">     1</i>
   <i type="int" name="OMEGAPAR">    -1</i>
   <i name="LAMBDA">      1.00000000</i>
  </separator>
  <separator name="External order field" >
   <i name="OFIELD_KAPPA">      0.00000000</i>
   <v name="OFIELD_K">      0.00000000      0.00000000      0.00000000</v>
   <i name="OFIELD_Q6_NEAR">      0.00000000</i>
   <i name="OFIELD_Q6_FAR">      0.00000000</i>
   <i name="OFIELD_A">      0.00000000</i>
  </separator>
  <separator name="solvation model" >
   <i type="logical" name="LSOL"> F  </i>
  </separator>
 </parameters>
 <atominfo>
  <atoms>      39 </atoms>
  <types>       3 </types>
  <array name="atoms" >
   <dimension dim="1">ion</dimension>
   <field type="string">element</field>
   <field type="int">atomtype</field>
   <set>
    <rc><c>C </c><c>   1</c></rc>
    <rc><c>O </c><c>   2</c></rc>
    <rc><c>O </c><c>   2</c></rc>
    <rc><c>Pt</c><c>   3</c></rc>
    <rc><c>Pt</c><c>   3</c></rc>
    <rc><c>Pt</c><c>   3</c></rc>
    <rc><c>Pt</c><c>   3</c></rc>
    <rc><c>Pt</c><c>   3</c></rc>
    <rc><c>Pt</c><c>   3</c></rc>
    <rc><c>Pt</c><c>   3</c></rc>
    <rc><c>Pt</c><c>   3</c></rc>
    <rc><c>Pt</c><c>   3</c></rc>
    <rc><c>Pt</c><c>   3</c></rc>
    <rc><c>Pt</c><c>   3</c></rc>
    <rc><c>Pt</c><c>   3</c></rc>
    <rc><c>Pt</c><c>   3</c></rc>
    <rc><c>Pt</c><c>   3</c></rc>
    <rc><c>Pt</c><c>   3</c></rc>
    <rc><c>Pt</c><c>   3</c></rc>
    <rc><c>Pt</c><c>   3</c></rc>
    <rc><c>Pt</c><c>   3</c></rc>
    <rc><c>Pt</c><c>   3</c></rc>
    <rc><c>Pt</c><c>   3</c></rc>
    <rc><c>Pt</c><c>   3</c></rc>
    <rc><c>Pt</c><c>   3</c></rc>
    <rc><c>Pt</c><c>   3</c></rc>
    <rc><c>Pt</c><c>   3</c></rc>
    <rc><c>Pt</c><c>   3</c></rc>
    <rc><c>Pt</c><c>   3</c></rc>
    <rc><c>Pt</c><c>   3</c></rc>
    <rc><c>Pt</c><c>   3</c></rc>
    <rc><c>Pt</c><c>   3</c></rc>
    <rc><c>Pt</c><c>   3</c></rc>
    <rc><c>Pt</c><c>   3</c></rc>
    <rc><c>Pt</c><c>   3</c></rc>
    <rc><c>Pt</c><c>   3</c></rc>
    <rc><c>Pt</c><c>   3</c></rc>
    <rc><c>Pt</c><c>   3</c></rc>
    <rc><c>Pt</c><c>   3</c></rc>
   </set>
  </array>
  <array name="atomtypes" >
   <dimension dim="1">type</dimension>
   <field type="int">atomspertype</field>
   <field type="string">element</field>
   <field>mass</field>
   <field>valence</field>
   <field type="string">pseudopotential</field>
   <set>
    <rc><c>   1</c><c>C </c><c>     12.01100000</c><c>      4.00000000</c><c> PAW_PBE C 08Apr2002                    </c></rc>
    <rc><c>   2</c><c>O </c><c>     16.00000000</c><c>      6.00000000</c><c> PAW_PBE O 08Apr2002                    </c></rc>
    <rc><c>  36</c><c>Pt</c><c>    195.08000000</c><c>     10.00000000</c><c>  PAW_PBE Pt 04Feb2005                  </c></rc>
   </set>
  </array>
 </atominfo>
 <structure name="initialpos" >
  <crystal>
   <varray name="basis" >
    <v>       7.29695512      -4.21289900       0.00000000 </v>
    <v>       0.00000000       8.42579800       0.00000000 </v>
    <v>       0.00000000       0.00000000      21.87963500 </v>
   </varray>
   <i name="volume">   1345.21837528 </i>
   <varray name="rec_basis" >
    <v>       0.13704346       0.00000000       0.00000000 </v>
    <v>       0.06852173       0.11868312       0.00000000 </v>
    <v>       0.00000000       0.00000000       0.04570460 </v>
   </varray>
  </crystal>
  <varray name="positions" >
   <v>       0.70063647       0.43307973       0.47605498 </v>
   <v>       0.90697696       0.38355368       0.46964747 </v>
   <v>       0.67249992       0.45993561       0.52594351 </v>
   <v>       0.98675500       0.32859100       0.07437600 </v>
   <v>       0.32008800       0.32859100       0.07437600 </v>
   <v>       0.65342200       0.32859100       0.07437600 </v>
   <v>       0.98675500       0.66192500       0.07437600 </v>
   <v>       0.32008800       0.66192500       0.07437600 </v>
   <v>       0.65342200       0.66192500       0.07437600 </v>
   <v>       0.32008800       0.99525800       0.07437600 </v>
   <v>       0.65342200       0.99525800       0.07437600 </v>
   <v>       0.98675500       0.99525800       0.07437600 </v>
   <v>       0.20897700       0.10636900       0.17918600 </v>
   <v>       0.54231100       0.10636900       0.17918600 </v>
   <v>       0.87564400       0.10636900       0.17918600 </v>
   <v>       0.20897700       0.43970300       0.17918600 </v>
   <v>       0.54231100       0.43970300       0.17918600 </v>
   <v>       0.87564400       0.43970300       0.17918600 </v>
   <v>       0.20897700       0.77303600       0.17918600 </v>
   <v>       0.54231100       0.77303600       0.17918600 </v>
   <v>       0.87564400       0.77303600       0.17918600 </v>
   <v>       0.09745956       0.55351804       0.28386707 </v>
   <v>       0.42851863       0.88462161       0.28553545 </v>
   <v>       0.76383402       0.21790362       0.28630187 </v>
   <v>       0.09948942       0.22283014       0.28211919 </v>
   <v>       0.43635565       0.21998242       0.28494513 </v>
   <v>       0.09583588       0.88684691       0.28529232 </v>
   <v>       0.76284699       0.87975248       0.28357588 </v>
   <v>       0.43514061       0.54839838       0.28306356 </v>
   <v>       0.76272844       0.54946178       0.28252504 </v>
   <v>       0.31969710       0.66101344       0.38274435 </v>
   <v>       0.65275305       0.99115512       0.38845210 </v>
   <v>       0.32485511       0.32412994       0.38999118 </v>
   <v>       0.98946649       0.99455421       0.39173617 </v>
   <v>       0.32224284       0.98995722       0.39275995 </v>
   <v>       0.64095916       0.32584081       0.39608943 </v>
   <v>       0.99886061       0.67211592       0.38540948 </v>
   <v>       0.99624774       0.31834736       0.38805643 </v>
   <v>       0.65733039       0.66432363       0.39149275 </v>
  </varray>
  <varray name="selective"  type="logical" >
   <v type="logical" >  T  T  T </v>
   <v type="logical" >  T  T  T </v>
   <v type="logical" >  T  T  T </v>
   <v type="logical" >  F  F  F </v>
   <v type="logical" >  F  F  F </v>
   <v type="logical" >  F  F  F </v>
   <v type="logical" >  F  F  F </v>
   <v type="logical" >  F  F  F </v>
   <v type="logical" >  F  F  F </v>
   <v type="logical" >  F  F  F </v>
   <v type="logical" >  F  F  F </v>
   <v type="logical" >  F  F  F </v>
   <v type="logical" >  F  F  F </v>
   <v type="logical" >  F  F  F </v>
   <v type="logical" >  F  F  F </v>
   <v type="logical" >  F  F  F </v>
   <v type="logical" >  F  F  F </v>
   <v type="logical" >  F  F  F </v>
   <v type="logical" >  F  F  F </v>
   <v type="logical" >  F  F  F </v>
   <v type="logical" >  F  F  F </v>
   <v type="logical" >  T  T  T </v>
   <v type="logical" >  T  T  T </v>
   <v type="logical" >  T  T  T </v>
   <v type="logical" >  T  T  T </v>
   <v type="logical" >  T  T  T </v>
   <v type="logical" >  T  T  T </v>
   <v type="logical" >  T  T  T </v>
   <v type="logical" >  T  T  T </v>
   <v type="logical" >  T  T  T </v>
   <v type="logical" >  T  T  T </v>
   <v type="logical" >  T  T  T </v>
   <v type="logical" >  T  T  T </v>
   <v type="logical" >  T  T  T </v>
   <v type="logical" >  T  T  T </v>
   <v type="logical" >  T  T  T </v>
   <v type="logical" >  T  T  T </v>
   <v type="logical" >  T  T  T </v>
   <v type="logical" >  T  T  T </v>
  </varray>
  <nose>
   <v>      -3.00000000       0.00000000       0.00010000       0.00010000 </v>
  </nose>
 </structure>
 <calculation>
  <scstep>
   <time name="dav">    7.76    7.82</time>
   <time name="total">    7.91    8.00</time>
   <energy>
    <i name="alphaZ">    975.10247152 </i>
    <i name="ewald">  90590.67152725 </i>
    <i name="hartreedc">-119685.67092156 </i>
    <i name="XCdc">    189.07385288 </i>
    <i name="pawpsdc">  24789.08602224 </i>
    <i name="pawaedc"> -23775.73976456 </i>
    <i name="eentropy">      0.01953959 </i>
    <i name="bandstr">   2073.59970083 </i>
    <i name="atom">  27259.89416086 </i>
    <i name="e_fr_energy">   2416.03658905 </i>
    <i name="e_wo_entrp">   2416.01704946 </i>
    <i name="e_0_energy">   2416.03007585 </i>
   </energy>
  </scstep>
  <scstep>
   <time name="dav">    9.18    9.24</time>
   <time name="total">    9.18    9.25</time>
   <energy>
    <i name="e_fr_energy">    -63.87358773 </i>
    <i name="e_wo_entrp">    -63.86914476 </i>
    <i name="e_0_energy">    -63.87210674 </i>
   </energy>
  </scstep>
  <scstep>
   <time name="dav">    9.24    9.31</time>
   <time name="total">    9.24    9.31</time>
   <energy>
    <i name="e_fr_energy">   -240.96618605 </i>
    <i name="e_wo_entrp">   -240.96248014 </i>
    <i name="e_0_energy">   -240.96495075 </i>
   </energy>
  </scstep>
  <scstep>
   <time name="dav">    9.87    9.94</time>
   <time name="total">    9.87    9.94</time>
   <energy>
    <i name="e_fr_energy">   -248.83593605 </i>
    <i name="e_wo_entrp">   -248.83574939 </i>
    <i name="e_0_energy">   -248.83587383 </i>
   </energy>
  </scstep>
  <scstep>
   <time name="dav">    9.88    9.95</time>
   <time name="total">   10.29   10.37</time>
   <energy>
    <i name="e_fr_energy">   -249.04718670 </i>
    <i name="e_wo_entrp">   -249.04632515 </i>
    <i name="e_0_energy">   -249.04689952 </i>
   </energy>
  </scstep>
  <scstep>
   <time name="diag">    1.32    1.33</time>
   <time name="diis">    4.59    4.63</time>
   <time name="orth">    0.22    0.23</time>
   <time name="total">    6.71    6.76</time>
   <energy>
    <i name="e_fr_energy">   -247.04756963 </i>
    <i name="e_wo_entrp">   -246.82151624 </i>
    <i name="e_0_energy">   -246.97221850 </i>
   </energy>
  </scstep>
  <scstep>
   <time name="diag">    1.33    1.34</time>
   <time name="diis">    4.54    4.58</time>
   <time name="orth">    0.22    0.22</time>
   <time name="total">    6.64    6.69</time>
   <energy>
    <i name="e_fr_energy">   -237.46778346 </i>
    <i name="e_wo_entrp">   -237.29843240 </i>
    <i name="e_0_energy">   -237.41133311 </i>
   </energy>
  </scstep>
  <scstep>
   <time name="diag">    1.28    1.29</time>
   <time name="diis">    4.50    4.54</time>
   <time name="orth">    0.22    0.22</time>
   <time name="total">    6.54    6.59</time>
   <energy>
    <i name="e_fr_energy">   -235.48202736 </i>
    <i name="e_wo_entrp">   -235.45065053 </i>
    <i name="e_0_energy">   -235.47156841 </i>
   </energy>
  </scstep>
  <scstep>
   <time name="diag">    1.11    1.12</time>
   <time name="diis">    4.42    4.46</time>
   <time name="orth">    0.22    0.22</time>
   <time name="total">    6.29    6.33</time>
   <energy>
    <i name="e_fr_energy">   -233.82258442 </i>
    <i name="e_wo_entrp">   -233.70834803 </i>
    <i name="e_0_energy">   -233.78450562 </i>
   </energy>
  </scstep>
  <scstep>
   <time name="diag">    1.31    1.32</time>
   <time name="diis">    4.57    4.61</time>
   <time name="orth">    0.21    0.21</time>
   <time name="total">    6.64    6.69</time>
   <energy>
    <i name="e_fr_energy">   -230.92511191 </i>
    <i name="e_wo_entrp">   -230.90070515 </i>
    <i name="e_0_energy">   -230.91697632 </i>
   </energy>
  </scstep>
  <scstep>
   <time name="diag">    1.31    1.32</time>
   <time name="diis">    4.57    4.60</time>
   <time name="orth">    0.22    0.22</time>
   <time name="total">    6.63    6.68</time>
   <energy>
    <i name="e_fr_energy">   -230.40910765 </i>
    <i name="e_wo_entrp">   -230.41016360 </i>
    <i name="e_0_energy">   -230.40945964 </i>
   </energy>
  </scstep>
  <scstep>
   <time name="diag">    1.30    1.31</time>
   <time name="diis">    4.50    4.53</time>
   <time name="orth">    0.21    0.21</time>
   <time name="total">    6.54    6.58</time>
   <energy>
    <i name="e_fr_energy">   -230.29229346 </i>
    <i name="e_wo_entrp">   -230.27298167 </i>
    <i name="e_0_energy">   -230.28585620 </i>
   </energy>
  </scstep>
  <scstep>
   <time name="diag">    1.30    1.31</time>
   <time name="diis">    4.37    4.41</time>
   <time name="orth">    0.21    0.22</time>
   <time name="total">    6.43    6.47</time>
   <energy>
    <i name="e_fr_energy">   -230.22890224 </i>
    <i name="e_wo_entrp">   -230.22261205 </i>
    <i name="e_0_energy">   -230.22680551 </i>
   </energy>
  </scstep>
  <scstep>
   <time name="diag">    1.39    1.40</time>
   <time name="diis">    4.14    4.17</time>
   <time name="orth">    0.21    0.21</time>
   <time name="total">    6.25    6.30</time>
   <energy>
    <i name="e_fr_energy">   -230.19110783 </i>
    <i name="e_wo_entrp">   -230.18908165 </i>
    <i name="e_0_energy">   -230.19043244 </i>
   </energy>
  </scstep>
  <scstep>
   <time name="diag">    1.18    1.19</time>
   <time name="diis">    4.64    4.67</time>
   <time name="orth">    0.23    0.23</time>
   <time name="total">    6.63    6.68</time>
   <energy>
    <i name="e_fr_energy">   -230.17473366 </i>
    <i name="e_wo_entrp">   -230.17219779 </i>
    <i name="e_0_energy">   -230.17388837 </i>
   </energy>
  </scstep>
  <scstep>
   <time name="diag">    1.45    1.46</time>
   <time name="diis">    4.81    4.84</time>
   <time name="orth">    0.22    0.22</time>
   <time name="total">    7.05    7.10</time>
   <energy>
    <i name="e_fr_energy">   -230.16930494 </i>
    <i name="e_wo_entrp">   -230.16354111 </i>
    <i name="e_0_energy">   -230.16738366 </i>
   </energy>
  </scstep>
  <scstep>
   <time name="diag">    1.38    1.39</time>
   <time name="diis">    5.22    5.26</time>
   <time name="orth">    0.23    0.24</time>
   <time name="total">    7.43    7.49</time>
   <energy>
    <i name="e_fr_energy">   -230.16848246 </i>
    <i name="e_wo_entrp">   -230.16380216 </i>
    <i name="e_0_energy">   -230.16692236 </i>
   </energy>
  </scstep>
  <scstep>
   <time name="diag">    1.34    1.35</time>
   <time name="diis">    5.20    5.23</time>
   <time name="orth">    0.23    0.23</time>
   <time name="total">    7.37    7.42</time>
   <energy>
    <i name="e_fr_energy">   -230.16859459 </i>
    <i name="e_wo_entrp">   -230.16528970 </i>
    <i name="e_0_energy">   -230.16749296 </i>
   </energy>
  </scstep>
  <scstep>
   <time name="diag">    1.42    1.43</time>
   <time name="diis">    3.88    3.91</time>
   <time name="orth">    0.22    0.22</time>
   <time name="total">    5.68    5.72</time>
   <energy>
    <i name="alphaZ">    975.10247152 </i>
    <i name="ewald">  90590.67152725 </i>
    <i name="hartreedc">-119289.82375164 </i>
    <i name="XCdc">    177.58109067 </i>
    <i name="pawpsdc">  30008.08828341 </i>
    <i name="pawaedc"> -29093.28817249 </i>
    <i name="eentropy">     -0.00328265 </i>
    <i name="bandstr">   -858.39095415 </i>
    <i name="atom">  27259.89416086 </i>
    <i name="e_fr_energy">   -230.16862721 </i>
    <i name="e_wo_entrp">   -230.16534456 </i>
    <i name="e_0_energy">   -230.16753300 </i>
   </energy>
  </scstep>
  <structure>
   <crystal>
    <varray name="basis" >
     <v>       7.29695512      -4.21289900       0.00000000 </v>
     <v>       0.00000000       8.42579800       0.00000000 </v>
     <v>       0.00000000       0.00000000      21.87963500 </v>
    </varray>
    <i name="volume">   1345.21837528 </i>
    <varray name="rec_basis" >
     <v>       0.13704346       0.00000000       0.00000000 </v>
     <v>       0.06852173       0.11868312       0.00000000 </v>
     <v>       0.00000000       0.00000000       0.04570460 </v>
    </varray>
   </crystal>
   <varray name="positions" >
    <v>       0.70063647       0.43307973       0.47605498 </v>
    <v>       0.90697696       0.38355368       0.46964747 </v>
    <v>       0.67249992       0.45993561       0.52594351 </v>
    <v>       0.98675500       0.32859100       0.07437600 </v>
    <v>       0.32008800       0.32859100       0.07437600 </v>
    <v>       0.65342200       0.32859100       0.07437600 </v>
    <v>       0.98675500       0.66192500       0.07437600 </v>
    <v>       0.32008800       0.66192500       0.07437600 </v>
    <v>       0.65342200       0.66192500       0.07437600 </v>
    <v>       0.32008800       0.99525800       0.07437600 </v>
    <v>       0.65342200       0.99525800       0.07437600 </v>
    <v>       0.98675500       0.99525800       0.07437600 </v>
    <v>       0.20897700       0.10636900       0.17918600 </v>
    <v>       0.54231100       0.10636900       0.17918600 </v>
    <v>       0.87564400       0.10636900       0.17918600 </v>
    <v>       0.20897700       0.43970300       0.17918600 </v>
    <v>       0.54231100       0.43970300       0.17918600 </v>
    <v>       0.87564400       0.43970300       0.17918600 </v>
    <v>       0.20897700       0.77303600       0.17918600 </v>
    <v>       0.54231100       0.77303600       0.17918600 </v>
    <v>       0.87564400       0.77303600       0.17918600 </v>
    <v>       0.09745956       0.55351804       0.28386707 </v>
    <v>       0.42851863       0.88462161       0.28553545 </v>
    <v>       0.76383402       0.21790362       0.28630187 </v>
    <v>       0.09948942       0.22283014       0.28211919 </v>
    <v>       0.43635565       0.21998242       0.28494513 </v>
    <v>       0.09583588       0.88684691       0.28529232 </v>
    <v>       0.76284699       0.87975248       0.28357588 </v>
    <v>       0.43514061       0.54839838       0.28306356 </v>
    <v>       0.76272844       0.54946178       0.28252504 </v>
    <v>       0.31969710       0.66101344       0.38274435 </v>
    <v>       0.65275305       0.99115512       0.38845210 </v>
    <v>       0.32485511       0.32412994       0.38999118 </v>
    <v>       0.98946649       0.99455421       0.39173617 </v>
    <v>       0.32224284       0.98995722       0.39275995 </v>
    <v>       0.64095916       0.32584081       0.39608943 </v>
    <v>       0.99886061       0.67211592       0.38540948 </v>
    <v>       0.99624774       0.31834736       0.38805643 </v>
    <v>       0.65733039       0.66432363       0.39149275 </v>
   </varray>
  </structure>
  <varray name="forces" >
   <v>      -0.00641507      -1.35385906      -0.25294514 </v>
   <v>       0.33699848       0.15737392      -1.28769463 </v>
   <v>       0.25565395       0.31850340       0.13550068 </v>
   <v>       0.00643100      -0.03134695       0.14760363 </v>
   <v>      -0.03118591      -0.05184863       0.12425941 </v>
   <v>      -0.02070320      -0.00906278       0.11629425 </v>
   <v>       0.01034067       0.05910452       0.09112041 </v>
   <v>      -0.01132810      -0.01263010       0.15886610 </v>
   <v>       0.03046702      -0.00068857       0.08900582 </v>
   <v>      -0.01099104      -0.03227023       0.07385246 </v>
   <v>       0.00295552       0.02549606       0.16187916 </v>
   <v>       0.00373299      -0.01625369       0.04670163 </v>
   <v>       0.01916171      -0.11651638       0.05934960 </v>
   <v>       0.02559298      -0.00515261       0.29457029 </v>
   <v>      -0.03423132      -0.02783325      -0.01983614 </v>
   <v>       0.02958607       0.11863286      -0.13530829 </v>
   <v>      -0.04346161      -0.05133080      -0.13374368 </v>
   <v>      -0.01801191      -0.06977899       0.10715316 </v>
   <v>       0.00361633       0.13435289       0.07636676 </v>
   <v>      -0.02791444       0.10981257      -0.00147966 </v>
   <v>       0.12612024       0.12017006      -0.18452570 </v>
   <v>      -0.17617212      -0.37083557      -0.61604170 </v>
   <v>       0.32454240       0.16096329      -0.72645164 </v>
   <v>      -0.08169495       0.02171925      -0.30709025 </v>
   <v>      -0.21762290      -0.19603617       0.56013330 </v>
   <v>      -0.32104348      -0.27612937       0.02766630 </v>
   <v>       0.26911372       0.02166123      -0.41875074 </v>
   <v>       0.15971763       0.36225643       0.10987730 </v>
   <v>      -0.21845238       0.22559337       0.09761516 </v>
   <v>       0.23002335      -0.10714439       0.34117070 </v>
   <v>       0.40914802      -0.39269808       0.84372750 </v>
   <v>       0.06261913      -0.14749924      -0.08866083 </v>
   <v>      -0.36639907       0.16987087      -0.40305872 </v>
   <v>      -0.03567559      -0.13127796      -0.38439240 </v>
   <v>      -0.01620451       0.36449888      -0.28118738 </v>
   <v>       0.20000441       0.13716853       0.02362023 </v>
   <v>      -0.54096382      -0.05880899       0.50143704 </v>
   <v>      -0.37640580       0.70889471       1.56852924 </v>
   <v>       0.04905159       0.24292895      -0.51513323 </v>
  </varray>
  <varray name="stress" >
   <v>     -46.14956335       1.53770109       1.63736577 </v>
   <v>       1.53770097     -48.36708280      -1.26966711 </v>
   <v>       1.63736569      -1.26966706     -10.28433413 </v>
  </varray>
  <energy>
   <i name="e_fr_energy">   -230.16862721 </i>
   <i name="e_wo_entrp">   -230.16753300 </i>
   <i name="e_0_energy">     -0.00328265 </i>
  </energy>
  <time name="totalsc">  150.25  151.78</time>
 </calculation>
 <calculation>
  <scstep>
   <time name="dav">    8.21    8.26</time>
   <time name="total">    8.77    8.93</time>
   <energy>
    <i name="alphaZ">    975.10247152 </i>
    <i name="ewald">  90594.45622804 </i>
    <i name="hartreedc">-119294.59276381 </i>
    <i name="XCdc">    177.55428111 </i>
    <i name="pawpsdc">  30011.67338376 </i>
    <i name="pawaedc"> -29096.90276729 </i>
    <i name="eentropy">     -0.01041420 </i>
    <i name="bandstr">   -857.50164846 </i>
    <i name="atom">  27259.89416086 </i>
    <i name="e_fr_energy">   -230.32706848 </i>
    <i name="e_wo_entrp">   -230.31665428 </i>
    <i name="e_0_energy">   -230.32359708 </i>
   </energy>
  </scstep>
  <scstep>
   <time name="diag">    1.34    1.35</time>
   <time name="diis">    4.50    4.53</time>
   <time name="orth">    0.22    0.22</time>
   <time name="total">    6.63    6.68</time>
   <energy>
    <i name="e_fr_energy">   -230.39022554 </i>
    <i name="e_wo_entrp">   -230.39167925 </i>
    <i name="e_0_energy">   -230.39071011 </i>
   </energy>
  </scstep>
  <scstep>
   <time name="diag">    1.32    1.33</time>
   <time name="diis">    4.39    4.42</time>
   <time name="orth">    0.22    0.22</time>
   <time name="total">    6.48    6.53</time>
   <energy>
    <i name="e_fr_energy">   -230.37684425 </i>
    <i name="e_wo_entrp">   -230.36688571 </i>
    <i name="e_0_energy">   -230.37352474 </i>
   </energy>
  </scstep>
  <scstep>
   <time name="diag">    1.32    1.33</time>
   <time name="diis">    4.56    4.59</time>
   <time name="orth">    0.22    0.22</time>
   <time name="total">    6.65    6.70</time>
   <energy>
    <i name="e_fr_energy">   -230.36893657 </i>
    <i name="e_wo_entrp">   -230.36083328 </i>
    <i name="e_0_energy">   -230.36623547 </i>
   </energy>
  </scstep>
  <scstep>
   <time name="diag">    1.35    1.36</time>
   <time name="diis">    4.55    4.58</time>
   <time name="orth">    0.22    0.22</time>
   <time name="total">    6.67    6.72</time>
   <energy>
    <i name="e_fr_energy">   -230.36609783 </i>
    <i name="e_wo_entrp">   -230.36059949 </i>
    <i name="e_0_energy">   -230.36426505 </i>
   </energy>
  </scstep>
  <scstep>
   <time name="diag">    1.34    1.35</time>
   <time name="diis">    4.45    4.48</time>
   <time name="orth">    0.22    0.22</time>
   <time name="total">    6.57    6.62</time>
   <energy>
    <i name="e_fr_energy">   -230.36556779 </i>
    <i name="e_wo_entrp">   -230.35831051 </i>
    <i name="e_0_energy">   -230.36314870 </i>
   </energy>
  </scstep>
  <scstep>
   <time name="diag">    1.32    1.33</time>
   <time name="diis">    4.33    4.36</time>
   <time name="orth">    0.22    0.22</time>
   <time name="total">    6.44    6.49</time>
   <energy>
    <i name="e_fr_energy">   -230.36555779 </i>
    <i name="e_wo_entrp">   -230.35955645 </i>
    <i name="e_0_energy">   -230.36355734 </i>
   </energy>
  </scstep>
  <scstep>
   <time name="diag">    1.29    1.30</time>
   <time name="diis">    4.14    4.17</time>
   <time name="orth">    0.21    0.21</time>
   <time name="total">    6.16    6.20</time>
   <energy>
    <i name="e_fr_energy">   -230.36506729 </i>
    <i name="e_wo_entrp">   -230.35767754 </i>
    <i name="e_0_energy">   -230.36260404 </i>
   </energy>
  </scstep>
  <scstep>
   <time name="diag">    1.31    1.32</time>
   <time name="diis">    2.64    2.66</time>
   <time name="orth">    0.22    0.22</time>
   <time name="total">    4.31    4.34</time>
   <energy>
    <i name="alphaZ">    975.10247152 </i>
    <i name="ewald">  90594.45622804 </i>
    <i name="hartreedc">-119295.74308797 </i>
    <i name="XCdc">    177.55083920 </i>
    <i name="pawpsdc">  30006.82020097 </i>
    <i name="pawaedc"> -29091.99688700 </i>
    <i name="eentropy">     -0.00705091 </i>
    <i name="bandstr">   -856.44193473 </i>
    <i name="atom">  27259.89416086 </i>
    <i name="e_fr_energy">   -230.36506002 </i>
    <i name="e_wo_entrp">   -230.35800911 </i>
    <i name="e_0_energy">   -230.36270971 </i>
   </energy>
  </scstep>
  <structure>
   <crystal>
    <varray name="basis" >
     <v>       7.29695512      -4.21289900       0.00000000 </v>
     <v>       0.00000000       8.42579800       0.00000000 </v>
     <v>       0.00000000       0.00000000      21.87963500 </v>
    </varray>
    <i name="volume">   1345.21837528 </i>
    <varray name="rec_basis" >
     <v>       0.13704346       0.00000000       0.00000000 </v>
     <v>       0.06852173       0.11868312       0.00000000 </v>
     <v>       0.00000000       0.00000000       0.04570460 </v>
    </varray>
   </crystal>
   <varray name="positions" >
    <v>       0.70061950       0.42997059       0.47583189 </v>
    <v>       0.90786816       0.38435970       0.46851177 </v>
    <v>       0.67317601       0.46100310       0.52606302 </v>
    <v>       0.98675500       0.32859100       0.07437600 </v>
    <v>       0.32008800       0.32859100       0.07437600 </v>
    <v>       0.65342200       0.32859100       0.07437600 </v>
    <v>       0.98675500       0.66192500       0.07437600 </v>
    <v>       0.32008800       0.66192500       0.07437600 </v>
    <v>       0.65342200       0.66192500       0.07437600 </v>
    <v>       0.32008800       0.99525800       0.07437600 </v>
    <v>       0.65342200       0.99525800       0.07437600 </v>
    <v>       0.98675500       0.99525800       0.07437600 </v>
    <v>       0.20897700       0.10636900       0.17918600 </v>
    <v>       0.54231100       0.10636900       0.17918600 </v>
    <v>       0.87564400       0.10636900       0.17918600 </v>
    <v>       0.20897700       0.43970300       0.17918600 </v>
    <v>       0.54231100       0.43970300       0.17918600 </v>
    <v>       0.87564400       0.43970300       0.17918600 </v>
    <v>       0.20897700       0.77303600       0.17918600 </v>
    <v>       0.54231100       0.77303600       0.17918600 </v>
    <v>       0.87564400       0.77303600       0.17918600 </v>
    <v>       0.09699366       0.55243579       0.28332374 </v>
    <v>       0.42937689       0.88541938       0.28489474 </v>
    <v>       0.76361798       0.21784534       0.28603102 </v>
    <v>       0.09891391       0.22209341       0.28261321 </v>
    <v>       0.43550664       0.21892552       0.28496953 </v>
    <v>       0.09654757       0.88725236       0.28492300 </v>
    <v>       0.76326936       0.88079332       0.28367279 </v>
    <v>       0.43456290       0.54862619       0.28314965 </v>
    <v>       0.76333675       0.54952054       0.28282594 </v>
    <v>       0.32077910       0.66065507       0.38348849 </v>
    <v>       0.65291865       0.99090011       0.38837391 </v>
    <v>       0.32388615       0.32403451       0.38963570 </v>
    <v>       0.98937214       0.99420638       0.39139715 </v>
    <v>       0.32219999       0.99077058       0.39251195 </v>
    <v>       0.64148808       0.32641942       0.39611026 </v>
    <v>       0.99743001       0.67126593       0.38585173 </v>
    <v>       0.99525232       0.31947319       0.38943981 </v>
    <v>       0.65746011       0.66494485       0.39103842 </v>
   </varray>
  </structure>
  <varray name="forces" >
   <v>      -0.24057112      -0.70752463       1.24135333 </v>
   <v>       0.37986041       0.19413859      -0.87387946 </v>
   <v>       0.53062532      -0.24345612      -1.24115604 </v>
   <v>       0.00886500      -0.03759431       0.14457325 </v>
   <v>      -0.03329816      -0.04625550       0.13349958 </v>
   <v>      -0.02025128      -0.00892925       0.12946881 </v>
   <v>       0.01216249       0.05886138       0.09734879 </v>
   <v>      -0.00928602      -0.00653774       0.15227080 </v>
   <v>       0.02839050       0.00270048       0.10655559 </v>
   <v>      -0.00998189      -0.04217864       0.07476270 </v>
   <v>       0.00245975       0.02117721       0.15641464 </v>
   <v>       0.00005954      -0.01280647       0.04530450 </v>
   <v>       0.01363083      -0.08517863       0.02389495 </v>
   <v>       0.02906867       0.02055447       0.22796368 </v>
   <v>      -0.01028410      -0.03370007      -0.01837424 </v>
   <v>       0.02674352       0.07133124      -0.12714843 </v>
   <v>      -0.03643387      -0.04880664      -0.08534447 </v>
   <v>      -0.04295967      -0.05801689       0.07596745 </v>
   <v>      -0.00192699       0.13527169       0.02560793 </v>
   <v>      -0.00988431       0.08660769      -0.01232626 </v>
   <v>       0.10774408       0.11844974      -0.17155948 </v>
   <v>      -0.07779251      -0.28852393      -0.31980178 </v>
   <v>       0.19947056       0.03409559      -0.49904468 </v>
   <v>      -0.03160995       0.01124681      -0.20908186 </v>
   <v>      -0.20744124      -0.10223259       0.50469644 </v>
   <v>      -0.22481016      -0.17099682       0.00653085 </v>
   <v>       0.19476017      -0.07776085      -0.31252385 </v>
   <v>       0.13763574       0.27970809       0.05409134 </v>
   <v>      -0.17130190       0.18963965       0.07552926 </v>
   <v>       0.15933177      -0.06622082       0.26345086 </v>
   <v>       0.29407346      -0.20535231       0.60375534 </v>
   <v>       0.01485985      -0.07780737      -0.09839613 </v>
   <v>      -0.30558548       0.17387647      -0.33662970 </v>
   <v>      -0.03305898      -0.07438001      -0.33059215 </v>
   <v>      -0.04049505       0.22630147      -0.31455131 </v>
   <v>      -0.01343843       0.09412332      -0.21777503 </v>
   <v>      -0.33926369      -0.05029393       0.31762006 </v>
   <v>      -0.29399681       0.51607192       1.18916453 </v>
   <v>       0.01392993       0.21039771      -0.48163977 </v>
  </varray>
  <varray name="stress" >
   <v>     -46.54735245       1.51385445       2.10820650 </v>
   <v>       1.51385444     -48.97898392      -1.63132481 </v>
   <v>       2.10820651      -1.63132472     -11.28628104 </v>
  </varray>
  <energy>
   <i name="e_fr_energy">   -230.36506002 </i>
   <i name="e_wo_entrp">   -230.36270971 </i>
   <i name="e_0_energy">     -0.00705091 </i>
  </energy>
  <time name="totalsc">   69.25   70.04</time>
 </calculation>
 <calculation>
  <scstep>
   <time name="dav">    8.25    8.31</time>
   <time name="total">    8.82    8.94</time>
   <energy>
    <i name="alphaZ">    975.10247152 </i>
    <i name="ewald">  90623.86406605 </i>
    <i name="hartreedc">-119322.11039450 </i>
    <i name="XCdc">    177.67795724 </i>
    <i name="pawpsdc">  30006.67342150 </i>
    <i name="pawaedc"> -29091.84879802 </i>
    <i name="eentropy">     -0.01163940 </i>
    <i name="bandstr">   -859.66432468 </i>
    <i name="atom">  27259.89416086 </i>
    <i name="e_fr_energy">   -230.42307942 </i>
    <i name="e_wo_entrp">   -230.41144003 </i>
    <i name="e_0_energy">   -230.41919962 </i>
   </energy>
  </scstep>
  <scstep>
   <time name="diag">    1.38    1.39</time>
   <time name="diis">    4.49    4.52</time>
   <time name="orth">    0.22    0.22</time>
   <time name="total">    6.66    6.70</time>
   <energy>
    <i name="e_fr_energy">   -230.46128635 </i>
    <i name="e_wo_entrp">   -230.45851844 </i>
    <i name="e_0_energy">   -230.46036371 </i>
   </energy>
  </scstep>
  <scstep>
   <time name="diag">    1.29    1.30</time>
   <time name="diis">    4.35    4.38</time>
   <time name="orth">    0.22    0.22</time>
   <time name="total">    6.42    6.47</time>
   <energy>
    <i name="e_fr_energy">   -230.45170015 </i>
    <i name="e_wo_entrp">   -230.44141278 </i>
    <i name="e_0_energy">   -230.44827102 </i>
   </energy>
  </scstep>
  <scstep>
   <time name="diag">    1.32    1.33</time>
   <time name="diis">    4.56    4.60</time>
   <time name="orth">    0.22    0.22</time>
   <time name="total">    6.67    6.72</time>
   <energy>
    <i name="e_fr_energy">   -230.44699753 </i>
    <i name="e_wo_entrp">   -230.43666906 </i>
    <i name="e_0_energy">   -230.44355470 </i>
   </energy>
  </scstep>
  <scstep>
   <time name="diag">    1.31    1.32</time>
   <time name="diis">    4.45    4.48</time>
   <time name="orth">    0.22    0.22</time>
   <time name="total">    6.53    6.58</time>
   <energy>
    <i name="e_fr_energy">   -230.44517631 </i>
    <i name="e_wo_entrp">   -230.43774761 </i>
    <i name="e_0_energy">   -230.44270008 </i>
   </energy>
  </scstep>
  <scstep>
   <time name="diag">    1.31    1.32</time>
   <time name="diis">    4.31    4.35</time>
   <time name="orth">    0.21    0.21</time>
   <time name="total">    6.38    6.43</time>
   <energy>
    <i name="e_fr_energy">   -230.44475822 </i>
    <i name="e_wo_entrp">   -230.43509262 </i>
    <i name="e_0_energy">   -230.44153636 </i>
   </energy>
  </scstep>
  <scstep>
   <time name="diag">    1.25    1.25</time>
   <time name="diis">    4.34    4.37</time>
   <time name="orth">    0.22    0.22</time>
   <time name="total">    6.33    6.38</time>
   <energy>
    <i name="e_fr_energy">   -230.44390777 </i>
    <i name="e_wo_entrp">   -230.43546558 </i>
    <i name="e_0_energy">   -230.44109371 </i>
   </energy>
  </scstep>
  <scstep>
   <time name="diag">    1.28    1.29</time>
   <time name="diis">    3.64    3.66</time>
   <time name="orth">    0.22    0.22</time>
   <time name="total">    5.68    5.72</time>
   <energy>
    <i name="e_fr_energy">   -230.44363370 </i>
    <i name="e_wo_entrp">   -230.43447102 </i>
    <i name="e_0_energy">   -230.44057947 </i>
   </energy>
  </scstep>
  <scstep>
   <time name="diag">    1.33    1.34</time>
   <time name="diis">    2.66    2.68</time>
   <time name="orth">    0.22    0.22</time>
   <time name="total">    4.36    4.39</time>
   <energy>
    <i name="alphaZ">    975.10247152 </i>
    <i name="ewald">  90623.86406605 </i>
    <i name="hartreedc">-119330.91600252 </i>
    <i name="XCdc">    177.77404394 </i>
    <i name="pawpsdc">  30015.54827472 </i>
    <i name="pawaedc"> -29100.75446098 </i>
    <i name="eentropy">     -0.00888578 </i>
    <i name="bandstr">   -850.94725938 </i>
    <i name="atom">  27259.89416086 </i>
    <i name="e_fr_energy">   -230.44359157 </i>
    <i name="e_wo_entrp">   -230.43470578 </i>
    <i name="e_0_energy">   -230.44062964 </i>
   </energy>
  </scstep>
  <structure>
   <crystal>
    <varray name="basis" >
     <v>       7.29695512      -4.21289900       0.00000000 </v>
     <v>       0.00000000       8.42579800       0.00000000 </v>
     <v>       0.00000000       0.00000000      21.87963500 </v>
    </varray>
    <i name="volume">   1345.21837528 </i>
    <varray name="rec_basis" >
     <v>       0.13704346       0.00000000       0.00000000 </v>
     <v>       0.06852173       0.11868312       0.00000000 </v>
     <v>       0.00000000       0.00000000       0.04570460 </v>
    </varray>
   </crystal>
   <varray name="positions" >
    <v>       0.70015776       0.42856365       0.47662650 </v>
    <v>       0.90859725       0.38504695       0.46795239 </v>
    <v>       0.67419447       0.46110765       0.52526853 </v>
    <v>       0.98675500       0.32859100       0.07437600 </v>
    <v>       0.32008800       0.32859100       0.07437600 </v>
    <v>       0.65342200       0.32859100       0.07437600 </v>
    <v>       0.98675500       0.66192500       0.07437600 </v>
    <v>       0.32008800       0.66192500       0.07437600 </v>
    <v>       0.65342200       0.66192500       0.07437600 </v>
    <v>       0.32008800       0.99525800       0.07437600 </v>
    <v>       0.65342200       0.99525800       0.07437600 </v>
    <v>       0.98675500       0.99525800       0.07437600 </v>
    <v>       0.20897700       0.10636900       0.17918600 </v>
    <v>       0.54231100       0.10636900       0.17918600 </v>
    <v>       0.87564400       0.10636900       0.17918600 </v>
    <v>       0.20897700       0.43970300       0.17918600 </v>
    <v>       0.54231100       0.43970300       0.17918600 </v>
    <v>       0.87564400       0.43970300       0.17918600 </v>
    <v>       0.20897700       0.77303600       0.17918600 </v>
    <v>       0.54231100       0.77303600       0.17918600 </v>
    <v>       0.87564400       0.77303600       0.17918600 </v>
    <v>       0.09684435       0.55188155       0.28311903 </v>
    <v>       0.42975975       0.88566749       0.28457529 </v>
    <v>       0.76355731       0.21783370       0.28589719 </v>
    <v>       0.09851576       0.22172440       0.28293628 </v>
    <v>       0.43507515       0.21842554       0.28497371 </v>
    <v>       0.09692138       0.88731001       0.28472294 </v>
    <v>       0.76353354       0.88139034       0.28370741 </v>
    <v>       0.43423411       0.54877702       0.28319800 </v>
    <v>       0.76364257       0.54956338       0.28299458 </v>
    <v>       0.32134354       0.66059595       0.38387496 </v>
    <v>       0.65294717       0.99078504       0.38831092 </v>
    <v>       0.32329962       0.32403027       0.38942021 </v>
    <v>       0.98930869       0.99405102       0.39118553 </v>
    <v>       0.32212226       0.99110788       0.39231060 </v>
    <v>       0.64146229       0.32656297       0.39597086 </v>
    <v>       0.99677884       0.67085675       0.38605505 </v>
    <v>       0.99468803       0.32004887       0.39020102 </v>
    <v>       0.65748685       0.66530794       0.39073012 </v>
   </varray>
  </structure>
  <varray name="forces" >
   <v>       0.08013595      -1.63911228      -1.84798370 </v>
   <v>       0.44978802       0.17147603      -0.66615659 </v>
   <v>       0.05651436       0.69846377       1.64696684 </v>
   <v>       0.00922481      -0.04104845       0.14252872 </v>
   <v>      -0.03480951      -0.04504762       0.13855778 </v>
   <v>      -0.02131975      -0.00927612       0.13312500 </v>
   <v>       0.01275203       0.05954368       0.09872036 </v>
   <v>      -0.00851178      -0.00298297       0.14746355 </v>
   <v>       0.02778417       0.00358205       0.11116606 </v>
   <v>      -0.00891568      -0.04427297       0.07351374 </v>
   <v>       0.00275631       0.02108050       0.15210699 </v>
   <v>      -0.00041735      -0.00916491       0.04507299 </v>
   <v>       0.01151682      -0.06671786       0.01967534 </v>
   <v>       0.02922543       0.03445393       0.19632624 </v>
   <v>       0.00498446      -0.03268098      -0.00802132 </v>
   <v>       0.02283667       0.04669663      -0.11556696 </v>
   <v>      -0.03313841      -0.04729396      -0.05631916 </v>
   <v>      -0.05285010      -0.05040988       0.06837973 </v>
   <v>      -0.00584699       0.13318191       0.00072836 </v>
   <v>      -0.00117229       0.07517855      -0.01598412 </v>
   <v>       0.09910695       0.11577108      -0.15968419 </v>
   <v>      -0.04134614      -0.24028482      -0.19424258 </v>
   <v>       0.15364186      -0.01784292      -0.40299792 </v>
   <v>      -0.01183983       0.00898930      -0.16621139 </v>
   <v>      -0.20285008      -0.06926844       0.45632276 </v>
   <v>      -0.17508332      -0.12220515      -0.00403603 </v>
   <v>       0.15605522      -0.11139125      -0.26351940 </v>
   <v>       0.12210842       0.23292388       0.02318462 </v>
   <v>      -0.14328248       0.16565583       0.06042592 </v>
   <v>       0.12165083      -0.04094685       0.21264251 </v>
   <v>       0.23563867      -0.12837923       0.49856987 </v>
   <v>      -0.00263778      -0.03723468      -0.09864144 </v>
   <v>      -0.26712085       0.16822684      -0.30705536 </v>
   <v>      -0.03702442      -0.05329508      -0.29471161 </v>
   <v>      -0.05485687       0.16233624      -0.31876911 </v>
   <v>      -0.01105761       0.17823915      -0.05778129 </v>
   <v>      -0.25054148      -0.05238419       0.23539633 </v>
   <v>      -0.22673135       0.39695007       0.99373310 </v>
   <v>      -0.00436689       0.18849118      -0.47692467 </v>
  </varray>
  <varray name="stress" >
   <v>     -46.41467057       1.07524297       1.27355636 </v>
   <v>       1.07524299     -48.54313794      -0.44562046 </v>
   <v>       1.27355641      -0.44562060      -7.78292448 </v>
  </varray>
  <energy>
   <i name="e_fr_energy">   -230.44359157 </i>
   <i name="e_wo_entrp">   -230.44062964 </i>
   <i name="e_0_energy">     -0.00888578 </i>
  </energy>
  <time name="totalsc">   68.40   69.21</time>
 </calculation>
 <calculation>
  <scstep>
