metal                                   
           1
     7.296955   -4.212899    0.000000
     0.000000    8.425798    0.000000
     0.000000    0.000000   21.879635
   C    O    Pt
   1   2  36
Direct configuration=     1
   0.70063647  0.43307973  0.47605498
   0.90697696  0.38355368  0.46964747
   0.67249992  0.45993561  0.52594351
   0.98675500  0.32859100  0.07437600
   0.32008800  0.32859100  0.07437600
   0.65342200  0.32859100  0.07437600
   0.98675500  0.66192500  0.07437600
   0.32008800  0.66192500  0.07437600
   0.65342200  0.66192500  0.07437600
   0.32008800  0.99525800  0.07437600
   0.65342200  0.99525800  0.07437600
   0.98675500  0.99525800  0.07437600
   0.20897700  0.10636900  0.17918600
   0.54231100  0.10636900  0.17918600
   0.87564400  0.10636900  0.17918600
   0.20897700  0.43970300  0.17918600
   0.54231100  0.43970300  0.17918600
   0.87564400  0.43970300  0.17918600
   0.20897700  0.77303600  0.17918600
   0.54231100  0.77303600  0.17918600
   0.87564400  0.77303600  0.17918600
   0.09745956  0.55351804  0.28386707
   0.42851863  0.88462161  0.28553545
   0.76383402  0.21790362  0.28630187
   0.09948942  0.22283014  0.28211919
   0.43635565  0.21998242  0.28494513
   0.09583588  0.88684691  0.28529232
   0.76284699  0.87975248  0.28357588
   0.43514061  0.54839838  0.28306356
   0.76272844  0.54946178  0.28252504
   0.31969710  0.66101344  0.38274435
   0.65275305  0.99115512  0.38845210
   0.32485511  0.32412994  0.38999118
   0.98946649  0.99455421  0.39173617
   0.32224284  0.98995722  0.39275995
   0.64095916  0.32584081  0.39608943
   0.99886061  0.67211592  0.38540948
   0.99624774  0.31834736  0.38805643
   0.65733039  0.66432363  0.39149275
Direct configuration=     2
   0.70061950  0.42997059  0.47583189
   0.90786816  0.38435970  0.46851177
   0.67317601  0.46100310  0.52606302
   0.98675500  0.32859100  0.07437600
   0.32008800  0.32859100  0.07437600
   0.65342200  0.32859100  0.07437600
   0.98675500  0.66192500  0.07437600
   0.32008800  0.66192500  0.07437600
   0.65342200  0.66192500  0.07437600
   0.32008800  0.99525800  0.07437600
   0.65342200  0.99525800  0.07437600
   0.98675500  0.99525800  0.07437600
   0.20897700  0.10636900  0.17918600
   0.54231100  0.10636900  0.17918600
   0.87564400  0.10636900  0.17918600
   0.20897700  0.43970300  0.17918600
   0.54231100  0.43970300  0.17918600
   0.87564400  0.43970300  0.17918600
   0.20897700  0.77303600  0.17918600
   0.54231100  0.77303600  0.17918600
   0.87564400  0.77303600  0.17918600
   0.09699366  0.55243579  0.28332374
   0.42937689  0.88541938  0.28489474
   0.76361798  0.21784534  0.28603102
   0.09891391  0.22209341  0.28261321
   0.43550664  0.21892552  0.28496953
   0.09654757  0.88725236  0.28492300
   0.76326936  0.88079332  0.28367279
   0.43456290  0.54862619  0.28314965
   0.76333675  0.54952054  0.28282594
   0.32077910  0.66065507  0.38348849
   0.65291865  0.99090011  0.38837391
   0.32388615  0.32403451  0.38963570
   0.98937214  0.99420638  0.39139715
   0.32219999  0.99077058  0.39251195
   0.64148808  0.32641942  0.39611026
   0.99743001  0.67126593  0.38585173
   0.99525232  0.31947319  0.38943981
   0.65746011  0.66494485  0.39103842
Direct configuration=     3
   0.70015776  0.42856365  0.47662650
   0.90859725  0.38504695  0.46795239
   0.67419447  0.46110765  0.52526853
   0.98675500  0.32859100  0.07437600
   0.32008800  0.32859100  0.07437600
   0.65342200  0.32859100  0.07437600
   0.98675500  0.66192500  0.07437600
   0.32008800  0.66192500  0.07437600
   0.65342200  0.66192500  0.07437600
   0.32008800  0.99525800  0.07437600
   0.65342200  0.99525800  0.07437600
   0.98675500  0.99525800  0.07437600
   0.20897700  0.10636900  0.17918600
   0.54231100  0.10636900  0.17918600
   0.87564400  0.10636900  0.17918600
   0.20897700  0.43970300  0.17918600
   0.54231100  0.43970300  0.17918600
   0.87564400  0.43970300  0.17918600
   0.20897700  0.77303600  0.17918600
   0.54231100  0.77303600  0.17918600
   0.87564400  0.77303600  0.17918600
   0.09684435  0.55188155  0.28311903
   0.42975975  0.88566749  0.28457529
   0.76355731  0.21783370  0.28589719
   0.09851576  0.22172440  0.28293628
   0.43507515  0.21842554  0.28497371
   0.09692138  0.88731001  0.28472294
   0.76353354  0.88139034  0.28370741
   0.43423411  0.54877702  0.28319800
   0.76364257  0.54956338  0.28299458
   0.32134354  0.66059595  0.38387496
   0.65294717  0.99078504  0.38831092
   0.32329962  0.32403027  0.38942021
   0.98930869  0.99405102  0.39118553
   0.32212226  0.99110788  0.39231060
   0.64146229  0.32656297  0.39597086
   0.99677884  0.67085675  0.38605505
   0.99468803  0.32004887  0.39020102
   0.65748685  0.66530794  0.39073012
