 vasp.5.4.4 16052018 (build Apr 24 2014 20:13:14) complex standard
 Contain Constrained Minimization Technique (TS), Periodic NBO, VASPsol, libbeef, VASP2WANNIER90, Constrained Cell Relaxation
 executed on Center for Computational Chemistry by phu@node11 date 2025.11.24 21:37:34
 running on    8 total cores
 distrk:  each k-point on    8 cores,    1 groups
 distr:  one band on NCORES_PER_BAND=   2 cores,    4 groups


--------------------------------------------------------------------------------------------------------


 INCAR:
 POTCAR:   PAW_PBE C 08Apr2002                    
 POTCAR:   PAW_PBE O 08Apr2002                    
 POTCAR:    PAW_PBE Pt 04Feb2005                  
 POTCAR:   PAW_PBE C 08Apr2002                    
   VRHFIN =C: s2p2                                                              
   LEXCH  = PE                                                                  
   EATOM  =   147.1560 eV,   10.8157 Ry                                         
                                                                                
   TITEL  = PAW_PBE C 08Apr2002                                                 
   LULTRA =        F    use ultrasoft PP ?                                      
   IUNSCR =        0    unscreen: 0-lin 1-nonlin 2-no                           
   RPACOR =     .000    partial core radius                                     
   POMASS =   12.011; ZVAL   =    4.000    mass and valenz                      
   RCORE  =    1.500    outmost cutoff radius                                   
   RWIGS  =    1.630; RWIGS  =     .863    wigner-seitz radius (au A)           
   ENMAX  =  400.000; ENMIN  =  300.000 eV                                      
   ICORE  =        2    local potential                                         
   LCOR   =        T    correct aug charges                                     
   LPAW   =        T    paw PP                                                  
   EAUG   =  644.873                                                            
   DEXC   =     .000                                                            
   RMAX   =    2.266    core radius for proj-oper                               
   RAUG   =    1.300    factor for augmentation sphere                          
   RDEP   =    1.501    radius for radial grids                                 
   RDEPT  =    1.300    core radius for aug-charge                              
   QCUT   =   -5.516; QGAM   =   11.032    optimization parameters              
                                                                                
   Description                                                                  
     l     E      TYP  RCUT    TYP  RCUT                                        
     0   .000     23  1.200                                                     
     0   .000     23  1.200                                                     
     1   .000     23  1.500                                                     
     1  2.500     23  1.500                                                     
     2   .000      7  1.500                                                     
  local pseudopotential read in
  atomic valenz-charges read in
  non local Contribution for L=           0  read in
    real space projection operators read in
  non local Contribution for L=           0  read in
    real space projection operators read in
  non local Contribution for L=           1  read in
    real space projection operators read in
  non local Contribution for L=           1  read in
    real space projection operators read in
    PAW grid and wavefunctions read in
 
   number of l-projection  operators is LMAX  =           4
   number of lm-projection operators is LMMAX =           8
 
 POTCAR:   PAW_PBE O 08Apr2002                    
   VRHFIN =O: s2p4                                                              
   LEXCH  = PE                                                                  
   EATOM  =   432.3788 eV,   31.7789 Ry                                         
                                                                                
   TITEL  = PAW_PBE O 08Apr2002                                                 
   LULTRA =        F    use ultrasoft PP ?                                      
   IUNSCR =        0    unscreen: 0-lin 1-nonlin 2-no                           
   RPACOR =     .000    partial core radius                                     
   POMASS =   16.000; ZVAL   =    6.000    mass and valenz                      
   RCORE  =    1.520    outmost cutoff radius                                   
   RWIGS  =    1.550; RWIGS  =     .820    wigner-seitz radius (au A)           
   ENMAX  =  400.000; ENMIN  =  300.000 eV                                      
   ICORE  =        2    local potential                                         
   LCOR   =        T    correct aug charges                                     
   LPAW   =        T    paw PP                                                  
   EAUG   =  605.392                                                            
   DEXC   =     .000                                                            
   RMAX   =    2.264    core radius for proj-oper                               
   RAUG   =    1.300    factor for augmentation sphere                          
   RDEP   =    1.550    radius for radial grids                                 
   QCUT   =   -5.520; QGAM   =   11.041    optimization parameters              
                                                                                
   Description                                                                  
     l     E      TYP  RCUT    TYP  RCUT                                        
     0   .000     23  1.200                                                     
     0  -.700     23  1.200                                                     
     1   .000     23  1.520                                                     
     1   .600     23  1.520                                                     
     2   .000      7  1.500                                                     
  local pseudopotential read in
  atomic valenz-charges read in
  non local Contribution for L=           0  read in
    real space projection operators read in
  non local Contribution for L=           0  read in
    real space projection operators read in
  non local Contribution for L=           1  read in
    real space projection operators read in
  non local Contribution for L=           1  read in
    real space projection operators read in
    PAW grid and wavefunctions read in
 
   number of l-projection  operators is LMAX  =           4
   number of lm-projection operators is LMMAX =           8
 
 POTCAR:    PAW_PBE Pt 04Feb2005                  
   VRHFIN =Pt: s1d9                                                             
   LEXCH  = PE                                                                  
   EATOM  =   729.1182 eV,   53.5887 Ry                                         
                                                                                
   TITEL  = PAW_PBE Pt 04Feb2005                                                
   LULTRA =        F    use ultrasoft PP ?                                      
   IUNSCR =        1    unscreen: 0-lin 1-nonlin 2-no                           
   RPACOR =    2.330    partial core radius                                     
   POMASS =  195.080; ZVAL   =   10.000    mass and valenz                      
   RCORE  =    2.600    outmost cutoff radius                                   
   RWIGS  =    2.750; RWIGS  =    1.455    wigner-seitz radius (au A)           
   ENMAX  =  230.283; ENMIN  =  172.712 eV                                      
   ICORE  =        3    local potential                                         
   LCOR   =        T    correct aug charges                                     
   LPAW   =        T    paw PP                                                  
   EAUG   =  358.966                                                            
   DEXC   =     .000                                                            
   RMAX   =    3.038    core radius for proj-oper                               
   RAUG   =    1.300    factor for augmentation sphere                          
   RDEP   =    2.761    radius for radial grids                                 
   QCUT   =   -4.114; QGAM   =    8.228    optimization parameters              
                                                                                
   Description                                                                  
     l     E      TYP  RCUT    TYP  RCUT                                        
     2   .000     23  2.500                                                     
     2   .000     23  2.500                                                     
     0   .000     23  2.500                                                     
     0   .000     23  2.500                                                     
     1  -.200     23  2.600                                                     
     1  1.500     23  2.600                                                     
     3   .000     23  2.500                                                     
  local pseudopotential read in
  partial core-charges read in
  atomic valenz-charges read in
  non local Contribution for L=           2  read in
    real space projection operators read in
  non local Contribution for L=           2  read in
    real space projection operators read in
  non local Contribution for L=           0  read in
    real space projection operators read in
  non local Contribution for L=           0  read in
    real space projection operators read in
  non local Contribution for L=           1  read in
    real space projection operators read in
  non local Contribution for L=           1  read in
    real space projection operators read in
    PAW grid and wavefunctions read in
 
   number of l-projection  operators is LMAX  =           6
   number of lm-projection operators is LMMAX =          18
 
 Optimization of the real space projectors (new method)

 maximal supplied QI-value         = 25.13
 optimisation between [QCUT,QGAM] = [ 10.81, 21.61] = [ 32.71,130.83] Ry 
 Optimized for a Real-space Cutoff    1.23 Angstroem

   l    n(q)    QCUT    max X(q) W(low)/X(q) W(high)/X(q)  e(spline) 
   0      8    10.807     5.582    0.53E-04    0.84E-04    0.44E-07
   0      8    10.807    69.432    0.35E-03    0.71E-03    0.24E-06
   1      7    10.807     2.780    0.44E-04    0.88E-04    0.89E-07
   1      7    10.807     4.549    0.14E-03    0.28E-03    0.13E-06
 Optimization of the real space projectors (new method)

 maximal supplied QI-value         = 24.76
 optimisation between [QCUT,QGAM] = [ 10.64, 21.54] = [ 31.73,129.89] Ry 
 Optimized for a Real-space Cutoff    1.23 Angstroem

   l    n(q)    QCUT    max X(q) W(low)/X(q) W(high)/X(q)  e(spline) 
   0      8    10.645     4.192    0.69E-04    0.93E-04    0.58E-07
   0      8    10.645     8.473    0.40E-03    0.65E-03    0.17E-06
   1      7    10.645     2.474    0.80E-04    0.12E-03    0.30E-07
   1      7    10.645     3.912    0.24E-03    0.53E-03    0.16E-06
 Optimization of the real space projectors (new method)

 maximal supplied QI-value         = 14.36
 optimisation between [QCUT,QGAM] = [ 10.77, 21.69] = [ 32.49,131.70] Ry 
 Optimized for a Real-space Cutoff    1.46 Angstroem

   l    n(q)    QCUT    max X(q) W(low)/X(q) W(high)/X(q)  e(spline) 
   2      9    10.771     3.903    0.38E-04    0.12E-03    0.82E-07
   2      9    10.771    18.372    0.13E-03    0.32E-03    0.28E-06
   0     10    10.771    13.697    0.11E-04    0.86E-05    0.85E-08
   0     10    10.771    65.529    0.40E-04    0.12E-03    0.14E-06
   1      9    10.771     7.604    0.48E-04    0.31E-04    0.38E-07
   1      9    10.771    12.136    0.35E-03    0.16E-03    0.23E-06
 PAW_PBE C 08Apr2002                    :
 energy of atom  1       EATOM= -147.1560
 kinetic energy error for atom=    0.0116 (will be added to EATOM!!)
 PAW_PBE O 08Apr2002                    :
 energy of atom  2       EATOM= -432.3788
 kinetic energy error for atom=    0.0389 (will be added to EATOM!!)
  PAW_PBE Pt 04Feb2005                  :
 energy of atom  3       EATOM= -729.1182
 kinetic energy error for atom=    0.0051 (will be added to EATOM!!)
 
 
 POSCAR: C    O    Pt                            
  positions in direct lattice
  No initial velocities read in
 exchange correlation table for  LEXCH =        8
   RHO(1)=    0.500       N(1)  =     2000
   RHO(2)=  100.500       N(2)  =     4000

 VTST: version 3.2, (02/03/18)

 CHAIN: initializing optimizer
 
 OPT: Using VASP QUASI-newton optimizer
 CHAIN: Read ICHAIN            0
 
 POSCAR: C    O    Pt                            
  positions in direct lattice
  No initial velocities read in
 


--------------------------------------------------------------------------------------------------------


 ion  position               nearest neighbor table
   1  0.698  0.435  0.474-   3 1.16  36 2.00
   2  0.908  0.383  0.460-  38 1.92  36 2.53  37 2.64
   3  0.670  0.462  0.523-   1 1.16
   4  0.987  0.329  0.074-  15 2.81  16 2.81  12 2.81   5 2.81  11 2.81   6 2.81  18 2.81   8 2.81
                             7 2.81
   5  0.320  0.329  0.074-  13 2.81  10 2.81   4 2.81  12 2.81  16 2.81  17 2.81   8 2.81   9 2.81
                             6 2.81
   6  0.653  0.329  0.074-  14 2.81  18 2.81  11 2.81   4 2.81  17 2.81   7 2.81  10 2.81   9 2.81
                             5 2.81
   7  0.987  0.662  0.074-  18 2.81  21 2.81  19 2.81  12 2.81   8 2.81  10 2.81   9 2.81   6 2.81
                             4 2.81
   8  0.320  0.662  0.074-  16 2.81  19 2.81  10 2.81   7 2.81  20 2.81   4 2.81  11 2.81   5 2.81
                             9 2.81
   9  0.653  0.662  0.074-  17 2.81  20 2.81  21 2.81  11 2.81  12 2.81   7 2.81   6 2.81   5 2.81
                             8 2.81
  10  0.320  0.995  0.074-  13 2.81  19 2.81   5 2.81   8 2.81  12 2.81   7 2.81  14 2.81   6 2.81
                            11 2.81
  11  0.653  0.995  0.074-  14 2.81  20 2.81  15 2.81   9 2.81   6 2.81  12 2.81   4 2.81   8 2.81
                            10 2.81
  12  0.987  0.995  0.074-  15 2.81  21 2.81  13 2.81   7 2.81   4 2.81  10 2.81   5 2.81  11 2.81
                             9 2.81
  13  0.209  0.106  0.179-  27 2.71  10 2.81   5 2.81  12 2.81  19 2.81  15 2.81  21 2.81  16 2.81
                            17 2.81  14 2.81  26 2.87  25 2.87
  14  0.542  0.106  0.179-  24 2.73  11 2.81   6 2.81  20 2.81  15 2.81  10 2.81  18 2.81  19 2.81
                            17 2.81  13 2.81  26 2.83  23 2.84
  15  0.876  0.106  0.179-  28 2.76  24 2.77   4 2.81  12 2.81  11 2.81  21 2.81  13 2.81  20 2.81
                            14 2.81  16 2.81  18 2.81  25 2.82
  16  0.209  0.440  0.179-  22 2.78   8 2.81   4 2.81  19 2.81  18 2.81   5 2.81  15 2.81  20 2.81
                            13 2.81  17 2.81  29 2.81  25 2.83
  17  0.542  0.440  0.179-  30 2.75  29 2.76   9 2.81  20 2.81  21 2.81  18 2.81   6 2.81   5 2.81
                            14 2.81  16 2.81  13 2.81  26 2.85
  18  0.876  0.440  0.179-  30 2.72  24 2.74  22 2.81   7 2.81   6 2.81  21 2.81  16 2.81  19 2.81
                            17 2.81   4 2.81  14 2.81  15 2.81
  19  0.209  0.773  0.179-  27 2.70  10 2.81   8 2.81   7 2.81  16 2.81  13 2.81  21 2.81  18 2.81
                            14 2.81  20 2.81  22 2.82  23 2.83
  20  0.542  0.773  0.179-  28 2.75  29 2.81   9 2.81  11 2.81  17 2.81  14 2.81  15 2.81  21 2.81
                             8 2.81  16 2.81  19 2.81  23 2.83
  21  0.876  0.773  0.179-  27 2.69  30 2.76  28 2.79  12 2.81   7 2.81   9 2.81  18 2.81  15 2.81
                            19 2.81  13 2.81  17 2.81  20 2.81
  22  0.099  0.546  0.284-  25 2.72  31 2.77  16 2.78  24 2.80  30 2.81  18 2.81  23 2.81  19 2.82
                            29 2.83  37 2.83  27 2.85  38 2.86
  23  0.430  0.882  0.286-  35 2.71  31 2.74  32 2.75  28 2.78  26 2.80  24 2.81  22 2.81  27 2.83
                            19 2.83  20 2.83  29 2.84  14 2.84
  24  0.760  0.219  0.281-  14 2.73  26 2.74  30 2.74  18 2.74  15 2.77  25 2.79  22 2.80  28 2.81
                            23 2.81  32 2.86  36 2.88  38 2.95
  25  0.093  0.220  0.286-  38 2.68  34 2.71  22 2.72  24 2.79  28 2.81  33 2.81  15 2.82  29 2.83
                            16 2.83  27 2.87  13 2.87  26 2.90
  26  0.436  0.218  0.286-  35 2.72  24 2.74  36 2.74  33 2.75  30 2.78  29 2.78  23 2.80  14 2.83
                            17 2.85  27 2.86  13 2.87  25 2.90
  27  0.095  0.882  0.278-  21 2.69  19 2.70  13 2.71  34 2.80  30 2.80  23 2.83  28 2.83  35 2.84
                            22 2.85  26 2.86  25 2.87  37 2.89
  28  0.761  0.886  0.282-  20 2.75  32 2.76  15 2.76  39 2.77  23 2.78  34 2.79  21 2.79  29 2.80
                            25 2.81  24 2.81  27 2.83  30 2.88
  29  0.435  0.548  0.283-  17 2.76  39 2.76  26 2.78  30 2.80  28 2.80  33 2.80  20 2.81  31 2.81
                            16 2.81  25 2.83  22 2.83  23 2.84
  30  0.766  0.546  0.280-  18 2.72  24 2.74  17 2.75  21 2.76  26 2.78  29 2.80  27 2.80  22 2.81
                            39 2.83  37 2.88  28 2.88  36 2.91
  31  0.319  0.660  0.387-  23 2.74  22 2.77  37 2.80  38 2.80  35 2.80  32 2.80  29 2.81  33 2.82
                            39 2.83
  32  0.655  0.990  0.386-  39 2.73  23 2.75  28 2.76  31 2.80  34 2.81  38 2.83  36 2.84  24 2.86
                            35 2.86
  33  0.325  0.328  0.388-  38 2.72  36 2.72  26 2.75  29 2.80  35 2.81  25 2.81  31 2.82  34 2.83
                            39 2.84
  34  0.990  0.993  0.384-  38 2.71  25 2.71  35 2.76  37 2.76  39 2.77  28 2.79  27 2.80  32 2.81
                            33 2.83
  35  0.316  0.990  0.385-  23 2.71  26 2.72  37 2.74  34 2.76  36 2.78  31 2.80  33 2.81  27 2.84
                            32 2.86
  36  0.645  0.321  0.390-   1 2.00   2 2.53  33 2.72  26 2.74  35 2.78  32 2.84  39 2.86  24 2.88
                            37 2.90  30 2.91  38 2.98
  37  0.990  0.665  0.388-   2 2.64  35 2.74  34 2.76  31 2.80  39 2.80  22 2.83  30 2.88  27 2.89
                            36 2.90  38 2.96
  38  0.997  0.318  0.390-   2 1.92  25 2.68  34 2.71  33 2.72  31 2.80  32 2.83  22 2.86  24 2.95
                            37 2.96  36 2.98
  39  0.659  0.668  0.385-  32 2.73  29 2.76  28 2.77  34 2.77  37 2.80  31 2.83  30 2.83  33 2.84
                            36 2.86
 

IMPORTANT INFORMATION: All symmetrisations will be switched off!
NOSYMM: (Re-)initialisation of all symmetry stuff for point group C_1.

 
 
 KPOINTS: mesh auto                               

Automatic generation of k-mesh.
Space group operators:
 irot       det(A)        alpha          n_x          n_y          n_z        tau_x        tau_y        tau_z
    1     1.000000     0.000000     1.000000     0.000000     0.000000     0.000000     0.000000     0.000000
 
 Subroutine IBZKPT returns following result:
 ===========================================
 
 Found      4 irreducible k-points:
 
 Following reciprocal coordinates:
            Coordinates               Weight
  0.000000  0.000000  0.000000      1.000000
  0.500000  0.000000  0.000000      1.000000
 -0.000000  0.500000  0.000000      1.000000
  0.500000  0.500000  0.000000      1.000000
 
 Following cartesian coordinates:
            Coordinates               Weight
  0.000000  0.000000  0.000000      1.000000
  0.068522  0.000000  0.000000      1.000000
  0.034261  0.059342  0.000000      1.000000
  0.102783  0.059342  0.000000      1.000000
 


--------------------------------------------------------------------------------------------------------




 Dimension of arrays:
   k-points           NKPTS =      4   k-points in BZ     NKDIM =      4   number of bands    NBANDS=    228
   number of dos      NEDOS =    301   number of ions     NIONS =     39
   non local maximal  LDIM  =      6   non local SUM 2l+1 LMDIM =     18
   total plane-waves  NPLWV = 276480
   max r-space proj   IRMAX =   2756   max aug-charges    IRDMAX=  12646
   dimension x,y,z NGX =    48 NGY =   48 NGZ =  120
   dimension x,y,z NGXF=    96 NGYF=   96 NGZF=  240
   support grid    NGXF=    96 NGYF=   96 NGZF=  240
   ions per type =               1   2  36
   NGX,Y,Z   is equivalent  to a cutoff of   9.47,  9.47,  9.12 a.u.
   NGXF,Y,Z  is equivalent  to a cutoff of  18.94, 18.94, 18.24 a.u.

 SYSTEM =  metal                                   
 POSCAR =  C    O    Pt                            

 Startparameter for this run:
   NWRITE =      2    write-flag & timer
   PREC   = normal    normal or accurate (medium, high low for compatibility)
   ISTART =      0    job   : 0-new  1-cont  2-samecut
   ICHARG =      2    charge: 1-file 2-atom 10-const
   ISPIN  =      1    spin polarized calculation?
   LNONCOLLINEAR =      F non collinear calculations
   LSORBIT =      F    spin-orbit coupling
   INIWAV =      1    electr: 0-lowe 1-rand  2-diag
   LASPH  =      F    aspherical Exc in radial PAW
   METAGGA=      F    non-selfconsistent MetaGGA calc.

 Electronic Relaxation 1
   ENCUT  =  450.0 eV  33.07 Ry    5.75 a.u.  14.57 14.57 37.84*2*pi/ulx,y,z
   ENINI  =  450.0     initial cutoff
   ENAUG  =  644.9 eV  augmentation charge cutoff
   NELM   =     60;   NELMIN=  8; NELMDL= -5     # of ELM steps 
   EDIFF  = 0.1E-03   stopping-criterion for ELM
   LREAL  =      T    real-space projection
   NLSPLINE    = F    spline interpolate recip. space projectors
   LCOMPAT=      F    compatible to vasp.4.4
   GGA_COMPAT  = T    GGA compatible to vasp.4.4-vasp.4.6
   LMAXPAW     = -100 max onsite density
   LMAXMIX     =    2 max onsite mixed and CHGCAR
   VOSKOWN=      0    Vosko Wilk Nusair interpolation
   ROPT   =   -0.00050  -0.00050  -0.00050
 Ionic relaxation
   EDIFFG = -.5E-01   stopping-criterion for IOM
   NSW    =   5000    number of steps for IOM
   NBLOCK =      1;   KBLOCK =   5000    inner block; outer block 
   IBRION =      1    ionic relax: 0-MD 1-quasi-New 2-CG
   NFREE  =      0    steps in history (QN), initial steepest desc. (CG)
   ISIF   =      2    stress and relaxation
   IWAVPR =     11    prediction:  0-non 1-charg 2-wave 3-comb
   ISYM   =      0    0-nonsym 1-usesym 2-fastsym
   LCORR  =      T    Harris-Foulkes like correction to forces

   POTIM  = 0.2000    time-step for ionic-motion
   TEIN   =    0.0    initial temperature
   TEBEG  =    0.0;   TEEND  =   0.0 temperature during run
   SMASS  =  -3.00    Nose mass-parameter (am)
   estimated Nose-frequenzy (Omega)   =  0.10E-29 period in steps =****** mass=  -0.162E-26a.u.
   SCALEE = 1.0000    scale energy and forces
   NPACO  =    256;   APACO  = 16.0  distance and # of slots for P.C.
   PSTRESS=    0.0 pullay stress

  Mass of Ions in am
   POMASS =  12.01 16.00195.08
  Ionic Valenz
   ZVAL   =   4.00  6.00 10.00
  Atomic Wigner-Seitz radii
   RWIGS  =  -1.00 -1.00 -1.00
  virtual crystal weights 
   VCA    =   1.00  1.00  1.00
   NELECT =     376.0000    total number of electrons
   NUPDOWN=      -1.0000    fix difference up-down

 DOS related values:
   EMIN   =  10.00;   EMAX   =-10.00  energy-range for DOS
   EFERMI =   0.00
   ISMEAR =     1;   SIGMA  =   0.20  broadening in eV -4-tet -1-fermi 0-gaus

 Electronic relaxation 2 (details)
   IALGO  =     68    algorithm
   LDIAG  =      T    sub-space diagonalisation (order eigenvalues)
   LSUBROT=      F    optimize rotation matrix (better conditioning)
   TURBO    =      0    0=normal 1=particle mesh
   IRESTART =      0    0=no restart 2=restart with 2 vectors
   NREBOOT  =      0    no. of reboots
   NMIN     =      0    reboot dimension
   EREF     =   0.00    reference energy to select bands
   IMIX   =      4    mixing-type and parameters
     AMIX     =   0.40;   BMIX     =  1.00
     AMIX_MAG =   1.60;   BMIX_MAG =  1.00
     AMIN     =   0.10
     WC   =   100.;   INIMIX=   1;  MIXPRE=   1;  MAXMIX= -45

 Intra band minimization:
   WEIMIN = 0.0010     energy-eigenvalue tresh-hold
   EBREAK =  0.11E-06  absolut break condition
   DEPER  =   0.30     relativ break condition  

   TIME   =   0.40     timestep for ELM

  volume/ion in A,a.u.               =      34.49       232.77
  Fermi-wavevector in a.u.,A,eV,Ry     =   1.070385  2.022734 15.588510  1.145723
  Thomas-Fermi vector in A             =   2.206093
 
 Write flags
   LWAVE        =      F    write WAVECAR
   LDOWNSAMPLE  =      F    k-point downsampling of WAVECAR
   LCHARG       =      F    write CHGCAR
   LVTOT        =      F    write LOCPOT, total local potential
   LVHAR        =      F    write LOCPOT, Hartree potential only
   LELF         =      F    write electronic localiz. function (ELF)
   LORBIT       =      0    0 simple, 1 ext, 2 COOP (PROOUT), +10 PAW based schemes


 Dipole corrections
   LMONO  =      F    monopole corrections only (constant potential shift)
   LDIPOL =      F    correct potential (dipole corrections)
   IDIPOL =      0    1-x, 2-y, 3-z, 4-all directions 
   EPSILON=  1.0000000 bulk dielectric constant

 Exchange correlation treatment:
   GGA     =    --    GGA type
   LEXCH   =     8    internal setting for exchange type
   VOSKOWN=      0    Vosko Wilk Nusair interpolation
   LHFCALC =     F    Hartree Fock is set to
   LHFONE  =     F    Hartree Fock one center treatment
   AEXX    =    0.0000 exact exchange contribution

 Linear response parameters
   LEPSILON=     F    determine dielectric tensor
   LRPA    =     F    only Hartree local field effects (RPA)
   LNABLA  =     F    use nabla operator in PAW spheres
   LVEL    =     F    velocity operator in full k-point grid
   LINTERFAST=   F  fast interpolation
   KINTER  =     0    interpolate to denser k-point grid
   CSHIFT  =0.1000    complex shift for real part using Kramers Kronig
   OMEGAMAX=  -1.0    maximum frequency
   DEG_THRESHOLD= 0.2000000E-02 threshold for treating states as degnerate
   RTIME   =   -0.100 relaxation time in fs
  (WPLASMAI=    0.000 imaginary part of plasma frequency in eV, 0.658/RTIME)
   DFIELD  = 0.0000000 0.0000000 0.0000000 field for delta impulse in time
 
 Orbital magnetization related:
   ORBITALMAG=     F  switch on orbital magnetization
   LCHIMAG   =     F  perturbation theory with respect to B field
   DQ        =  0.001000  dq finite difference perturbation B field
   LLRAUG    =     F  two centre corrections for induced B field



--------------------------------------------------------------------------------------------------------


 quasi-Newton-method for relaxation of ions
   using selective dynamics as specified on POSCAR
 charge density and potential will be updated during run
 non-spin polarized calculation
 RMM-DIIS sequential band-by-band and
  variant of blocked Davidson during initial phase
 perform sub-space diagonalisation
    before iterative eigenvector-optimisation
 modified Broyden-mixing scheme, WC =      100.0
 initial mixing is a Kerker type mixing with AMIX =  0.4000 and BMIX =      1.0000
 Hartree-type preconditioning will be used
 using additional bands           40
 real space projection scheme for non local part
 use partial core corrections
 calculate Harris-corrections to forces 
   (improved forces if not selfconsistent)
 use gradient corrections 
 use of overlap-Matrix (Vanderbilt PP)
 Methfessel and Paxton  Order N= 1 SIGMA  =   0.20


--------------------------------------------------------------------------------------------------------


  energy-cutoff  :      450.00
  volume of cell :     1345.22
      direct lattice vectors                 reciprocal lattice vectors
     7.296955120 -4.212899000  0.000000000     0.137043463  0.000000000  0.000000000
     0.000000000  8.425798000  0.000000000     0.068521732  0.118683121  0.000000000
     0.000000000  0.000000000 21.879635000     0.000000000  0.000000000  0.045704602

  length of vectors
     8.425798004  8.425798000 21.879635000     0.137043463  0.137043463  0.045704602


 
 k-points in units of 2pi/SCALE and weight: mesh auto                               
   0.00000000  0.00000000  0.00000000       0.250
   0.06852173  0.00000000  0.00000000       0.250
   0.03426087  0.05934156  0.00000000       0.250
   0.10278260  0.05934156  0.00000000       0.250
 
 k-points in reciprocal lattice and weights: mesh auto                               
   0.00000000  0.00000000  0.00000000       0.250
   0.50000000  0.00000000  0.00000000       0.250
  -0.00000000  0.50000000  0.00000000       0.250
   0.50000000  0.50000000  0.00000000       0.250
 
 position of ions in fractional coordinates (direct lattice) 
   0.69826843  0.43488578  0.47351572
   0.90827011  0.38347151  0.46039655
   0.67013188  0.46174166  0.52340425
   0.98675500  0.32859100  0.07437600
   0.32008800  0.32859100  0.07437600
   0.65342200  0.32859100  0.07437600
   0.98675500  0.66192500  0.07437600
   0.32008800  0.66192500  0.07437600
   0.65342200  0.66192500  0.07437600
   0.32008800  0.99525800  0.07437600
   0.65342200  0.99525800  0.07437600
   0.98675500  0.99525800  0.07437600
   0.20897700  0.10636900  0.17918600
   0.54231100  0.10636900  0.17918600
   0.87564400  0.10636900  0.17918600
   0.20897700  0.43970300  0.17918600
   0.54231100  0.43970300  0.17918600
   0.87564400  0.43970300  0.17918600
   0.20897700  0.77303600  0.17918600
   0.54231100  0.77303600  0.17918600
   0.87564400  0.77303600  0.17918600
   0.09868127  0.54566516  0.28367391
   0.43000602  0.88212676  0.28553239
   0.76045393  0.21866127  0.28060137
   0.09261293  0.22037795  0.28562855
   0.43569585  0.21767594  0.28629875
   0.09510317  0.88181629  0.27799886
   0.76132221  0.88592511  0.28168507
   0.43514460  0.54780865  0.28312271
   0.76607135  0.54638281  0.28033503
   0.31944385  0.65952369  0.38654791
   0.65480957  0.98976630  0.38639248
   0.32532174  0.32808153  0.38811540
   0.99021060  0.99285404  0.38361113
   0.31608821  0.99044054  0.38496958
   0.64519078  0.32136942  0.39025980
   0.99040210  0.66517172  0.38844082
   0.99730103  0.31780589  0.38971374
   0.65911787  0.66755610  0.38496713
 
 position of ions in cartesian coordinates  (Angst):
   5.09523337  0.72252537 10.36035107
   6.62760623 -0.59539673 10.07330849
   4.88992226  1.06734403 11.45189393
   7.20030695 -1.38845776  1.62731973
   2.33566777  1.42014298  1.62731973
   4.76799101  0.01584050  1.62731973
   7.20030695  1.42014719  1.62731973
   2.33566777  4.22874793  1.62731973
   4.76799101  2.82444545  1.62731973
   2.33566777  7.03734445  1.62731973
   4.76799101  5.63304198  1.62731973
   7.20030695  4.22874371  1.62731973
   1.52489579  0.01584471  3.92052428
   3.95721903 -1.38845776  3.92052428
   6.38953497 -2.79275602  3.92052428
   1.52489579  2.82444966  3.92052428
   3.95721903  1.42014719  3.92052428
   6.38953497  0.01584893  3.92052428
   1.52489579  5.63304619  3.92052428
   3.95721903  4.22874371  3.92052428
   6.38953497  2.82444545  3.92052428
   0.72007278  4.18193022  6.20668172
   3.13773465  5.62104998  6.24734454
   5.54899820 -1.36131988  6.13945564
   0.67579241  1.46669113  6.24944840
   3.17925309 -0.00144917  6.26411220
   0.69396360  7.02934588  6.08251356
   5.55533398  4.25725248  6.16316644
   3.17523065  2.78250478  6.19462163
   5.58998825  1.37632998  6.13362816
   2.33096741  4.21122871  8.45752708
   4.77811606  5.58092430  8.45412639
   2.37385810  1.39380104  8.49182336
   7.22552228  4.19393037  8.39327157
   2.30648148  7.01360419  8.42299399
   4.70792814 -0.01032976  8.53874197
   7.22691966  1.43213854  8.49894336
   7.27726088 -1.52376031  8.52679444
   4.80955351  2.84789587  8.42294024
 


--------------------------------------------------------------------------------------------------------


 k-point  1 :   0.0000 0.0000 0.0000  plane waves:   29241
 k-point  2 :   0.5000 0.0000 0.0000  plane waves:   29108
 k-point  3 :  -0.0000 0.5000 0.0000  plane waves:   29108
 k-point  4 :   0.5000 0.5000 0.0000  plane waves:   29108

 maximum and minimum number of plane-waves per node :     14624    14548

 maximum number of plane-waves:     29241
 maximum index in each direction: 
   IXMAX=   14   IYMAX=   14   IZMAX=   37
   IXMIN=  -15   IYMIN=  -15   IZMIN=  -37


 real space projection operators:
  total allocation   :      13560.06 KBytes
  max/ min on nodes  :       6785.52       6774.55


 parallel 3D FFT for wavefunctions:
    minimum data exchange during FFTs selected (reduces bandwidth)
 parallel 3D FFT for charge:
    minimum data exchange during FFTs selected (reduces bandwidth)


 total amount of memory used by VASP MPI-rank0   131953. kBytes
=======================================================================

   base      :      30000. kBytes
   nonlr-proj:      10145. kBytes
   fftplans  :      13556. kBytes
   grid      :      23353. kBytes
   one-center:        311. kBytes
   wavefun   :      54588. kBytes
 
     INWAV:  cpu time    0.0001: real time    0.0003
 Broyden mixing: mesh for mixing (old mesh)
   NGX = 29   NGY = 29   NGZ = 75
  (NGX  = 96   NGY  = 96   NGZ  =240)
  gives a total of  63075 points

 initial charge density was supplied:
 charge density of overlapping atoms calculated
 number of electron     376.0000000 magnetization 
 keeping initial charge density in first step


--------------------------------------------------------------------------------------------------------


 Maximum index for non-local projection operator         1320
 Maximum index for augmentation-charges         1558 (set IRDMAX)


--------------------------------------------------------------------------------------------------------


 First call to EWALD:  gamma=   0.161
 Maximum number of real-space cells 4x 4x 2
 Maximum number of reciprocal cells 2x 2x 5

    FEWALD:  cpu time    0.0025: real time    0.0025


--------------------------------------- Iteration      1(   1)  ---------------------------------------


    POTLOK:  cpu time    0.1777: real time    0.3207
    SETDIJ:  cpu time    0.0124: real time    0.0159
     EDDAV:  cpu time   11.5883: real time   11.6874
       DOS:  cpu time    0.0011: real time    0.8098
    --------------------------------------------
      LOOP:  cpu time   11.7795: real time   12.8337

 eigenvalue-minimisations  :  1824
 total energy-change (2. order) : 0.2425829E+04  (-0.1595628E+05)
 number of electron     376.0000000 magnetization 
 augmentation part      376.0000000 magnetization 

 Free energy of the ion-electron system (eV)
  ---------------------------------------------------
  alpha Z        PSCENC =       975.10247152
  Ewald energy   TEWEN  =     92326.25249097
  -Hartree energ DENC   =   -121411.44643232
  -exchange      EXHF   =         0.00000000
  -V(xc)+E(xc)   XCENC  =       190.24531121
  PAW double counting   =     24789.08602224   -23775.73976456
  entropy T*S    EENTRO =        -0.00628647
  eigenvalues    EBANDS =      2072.44086376
  atomic energy  EATOM  =     27259.89416086
  Solvation  Ediel_sol  =         0.00000000
  ---------------------------------------------------
  free energy    TOTEN  =      2425.82883720 eV

  energy without entropy =     2425.83512368  energy(sigma->0) =     2425.83093269


--------------------------------------------------------------------------------------------------------




--------------------------------------- Iteration      1(   2)  ---------------------------------------


     EDDAV:  cpu time   12.9167: real time   13.0717
       DOS:  cpu time    0.0012: real time    0.0012
    --------------------------------------------
      LOOP:  cpu time   12.9178: real time   13.0729

 eigenvalue-minimisations  :  2120
 total energy-change (2. order) :-0.2489105E+04  (-0.2312159E+04)
 number of electron     376.0000000 magnetization 
 augmentation part      376.0000000 magnetization 

 Free energy of the ion-electron system (eV)
  ---------------------------------------------------
  alpha Z        PSCENC =       975.10247152
  Ewald energy   TEWEN  =     92326.25249097
  -Hartree energ DENC   =   -121411.44643232
  -exchange      EXHF   =         0.00000000
  -V(xc)+E(xc)   XCENC  =       190.24531121
  PAW double counting   =     24789.08602224   -23775.73976456
  entropy T*S    EENTRO =        -0.00287382
  eigenvalues    EBANDS =      -416.66733276
  atomic energy  EATOM  =     27259.89416086
  Solvation  Ediel_sol  =         0.00000000
  ---------------------------------------------------
  free energy    TOTEN  =       -63.27594667 eV

  energy without entropy =      -63.27307285  energy(sigma->0) =      -63.27498873


--------------------------------------------------------------------------------------------------------




--------------------------------------- Iteration      1(   3)  ---------------------------------------


     EDDAV:  cpu time   13.1896: real time   13.3003
       DOS:  cpu time    0.0011: real time    0.0011
    --------------------------------------------
      LOOP:  cpu time   13.1907: real time   13.3015

 eigenvalue-minimisations  :  2160
 total energy-change (2. order) :-0.1771869E+03  (-0.1608437E+03)
 number of electron     376.0000000 magnetization 
 augmentation part      376.0000000 magnetization 

 Free energy of the ion-electron system (eV)
  ---------------------------------------------------
  alpha Z        PSCENC =       975.10247152
  Ewald energy   TEWEN  =     92326.25249097
  -Hartree energ DENC   =   -121411.44643232
  -exchange      EXHF   =         0.00000000
  -V(xc)+E(xc)   XCENC  =       190.24531121
  PAW double counting   =     24789.08602224   -23775.73976456
  entropy T*S    EENTRO =        -0.00142829
  eigenvalues    EBANDS =      -593.85565095
  atomic energy  EATOM  =     27259.89416086
  Solvation  Ediel_sol  =         0.00000000
  ---------------------------------------------------
  free energy    TOTEN  =      -240.46281932 eV

  energy without entropy =     -240.46139104  energy(sigma->0) =     -240.46234323


--------------------------------------------------------------------------------------------------------




--------------------------------------- Iteration      1(   4)  ---------------------------------------


     EDDAV:  cpu time   14.4124: real time   14.5129
       DOS:  cpu time    0.0013: real time    0.0013
    --------------------------------------------
      LOOP:  cpu time   14.4137: real time   14.5141

 eigenvalue-minimisations  :  2344
 total energy-change (2. order) :-0.7748460E+01  (-0.7448954E+01)
 number of electron     376.0000000 magnetization 
 augmentation part      376.0000000 magnetization 

 Free energy of the ion-electron system (eV)
  ---------------------------------------------------
  alpha Z        PSCENC =       975.10247152
  Ewald energy   TEWEN  =     92326.25249097
  -Hartree energ DENC   =   -121411.44643232
  -exchange      EXHF   =         0.00000000
  -V(xc)+E(xc)   XCENC  =       190.24531121
  PAW double counting   =     24789.08602224   -23775.73976456
  entropy T*S    EENTRO =         0.00420526
  eigenvalues    EBANDS =      -601.60974474
  atomic energy  EATOM  =     27259.89416086
  Solvation  Ediel_sol  =         0.00000000
  ---------------------------------------------------
  free energy    TOTEN  =      -248.21127956 eV

  energy without entropy =     -248.21548482  energy(sigma->0) =     -248.21268131


--------------------------------------------------------------------------------------------------------




--------------------------------------- Iteration      1(   5)  ---------------------------------------


     EDDAV:  cpu time   13.9387: real time   14.0360
       DOS:  cpu time    0.0012: real time    0.0013
    CHARGE:  cpu time    0.7239: real time    0.7291
    MIXING:  cpu time    0.0084: real time    0.0085
    --------------------------------------------
      LOOP:  cpu time   14.6723: real time   14.7748

 eigenvalue-minimisations  :  2296
 total energy-change (2. order) :-0.2184275E+00  (-0.2166553E+00)
 number of electron     376.0000045 magnetization 
 augmentation part      105.8106917 magnetization 

 Broyden mixing:
  rms(total) = 0.27413E+01    rms(broyden)= 0.27410E+01
  rms(prec ) = 0.30534E+01
  weight for this iteration     100.00

 Free energy of the ion-electron system (eV)
  ---------------------------------------------------
  alpha Z        PSCENC =       975.10247152
  Ewald energy   TEWEN  =     92326.25249097
  -Hartree energ DENC   =   -121411.44643232
  -exchange      EXHF   =         0.00000000
  -V(xc)+E(xc)   XCENC  =       190.24531121
  PAW double counting   =     24789.08602224   -23775.73976456
  entropy T*S    EENTRO =         0.00435521
  eigenvalues    EBANDS =      -601.82832219
  atomic energy  EATOM  =     27259.89416086
  Solvation  Ediel_sol  =         0.00000000
  ---------------------------------------------------
  free energy    TOTEN  =      -248.42970706 eV

  energy without entropy =     -248.43406227  energy(sigma->0) =     -248.43115880


--------------------------------------------------------------------------------------------------------




--------------------------------------- Iteration      1(   6)  ---------------------------------------


    POTLOK:  cpu time    0.1753: real time    0.1766
    SETDIJ:  cpu time    0.0124: real time    0.0125
    EDDIAG:  cpu time    2.0077: real time    2.0216
  RMM-DIIS:  cpu time    7.0399: real time    7.0930
    ORTHCH:  cpu time    0.2388: real time    0.2402
       DOS:  cpu time    0.0011: real time    0.0012
    CHARGE:  cpu time    0.4776: real time    0.4806
    MIXING:  cpu time    0.0064: real time    0.9416
    --------------------------------------------
      LOOP:  cpu time    9.9593: real time   10.9672

 eigenvalue-minimisations  :  1832
 total energy-change (2. order) : 0.1872327E+01  (-0.5504550E+01)
 number of electron     376.0000031 magnetization 
 augmentation part      112.8753710 magnetization 

 Broyden mixing:
  rms(total) = 0.29547E+01    rms(broyden)= 0.29538E+01
  rms(prec ) = 0.39973E+01
  weight for this iteration     100.00

 eigenvalues of (default mixing * dielectric matrix)
  average eigenvalue GAMMA=   0.4897
  0.4897

 Free energy of the ion-electron system (eV)
  ---------------------------------------------------
  alpha Z        PSCENC =       975.10247152
  Ewald energy   TEWEN  =     92326.25249097
  -Hartree energ DENC   =   -120948.39088041
  -exchange      EXHF   =         0.00000000
  -V(xc)+E(xc)   XCENC  =       183.18069809
  PAW double counting   =     26762.92253281   -25803.54883145
  entropy T*S    EENTRO =        -0.13322836
  eigenvalues    EBANDS =     -1001.83679393
  atomic energy  EATOM  =     27259.89416086
  Solvation  Ediel_sol  =         0.00000000
  ---------------------------------------------------
  free energy    TOTEN  =      -246.55737990 eV

  energy without entropy =     -246.42415154  energy(sigma->0) =     -246.51297044


--------------------------------------------------------------------------------------------------------




--------------------------------------- Iteration      1(   7)  ---------------------------------------


    POTLOK:  cpu time    0.1518: real time    0.3222
    SETDIJ:  cpu time    0.0113: real time    0.0181
    EDDIAG:  cpu time    1.8919: real time    1.9649
  RMM-DIIS:  cpu time    6.8626: real time    6.9121
    ORTHCH:  cpu time    0.2643: real time    0.2657
       DOS:  cpu time    0.0013: real time    0.0013
    CHARGE:  cpu time    0.7112: real time    0.7162
    MIXING:  cpu time    0.0046: real time    0.0046
    --------------------------------------------
      LOOP:  cpu time    9.8989: real time   10.2052

 eigenvalue-minimisations  :  1830
 total energy-change (2. order) : 0.2366896E+01  (-0.3270298E+01)
 number of electron     376.0000054 magnetization 
 augmentation part      111.3367581 magnetization 

 Broyden mixing:
  rms(total) = 0.20955E+01    rms(broyden)= 0.20947E+01
  rms(prec ) = 0.35837E+01
  weight for this iteration     100.00

 eigenvalues of (default mixing * dielectric matrix)
  average eigenvalue GAMMA=   0.5704
  0.8946  0.2461

 Free energy of the ion-electron system (eV)
  ---------------------------------------------------
  alpha Z        PSCENC =       975.10247152
  Ewald energy   TEWEN  =     92326.25249097
  -Hartree energ DENC   =   -121142.73559751
  -exchange      EXHF   =         0.00000000
  -V(xc)+E(xc)   XCENC  =       180.91029186
  PAW double counting   =     27410.21377268   -26458.18298845
  entropy T*S    EENTRO =        -0.11526408
  eigenvalues    EBANDS =      -795.52982187
  atomic energy  EATOM  =     27259.89416086
  Solvation  Ediel_sol  =         0.00000000
  ---------------------------------------------------
  free energy    TOTEN  =      -244.19048401 eV

  energy without entropy =     -244.07521993  energy(sigma->0) =     -244.15206265


--------------------------------------------------------------------------------------------------------




--------------------------------------- Iteration      1(   8)  ---------------------------------------


    POTLOK:  cpu time    0.1572: real time    0.1584
    SETDIJ:  cpu time    0.0117: real time    0.0117
    EDDIAG:  cpu time    1.9439: real time    1.9566
  RMM-DIIS:  cpu time    6.7372: real time    6.7874
    ORTHCH:  cpu time    0.2666: real time    0.2681
       DOS:  cpu time    0.0012: real time    0.0012
    CHARGE:  cpu time    0.6904: real time    0.6948
    MIXING:  cpu time    0.0053: real time    0.0053
    --------------------------------------------
      LOOP:  cpu time    9.8134: real time    9.8836

 eigenvalue-minimisations  :  1826
 total energy-change (2. order) : 0.4493050E+00  (-0.9917222E+00)
 number of electron     376.0000043 magnetization 
 augmentation part      111.9356241 magnetization 

 Broyden mixing:
  rms(total) = 0.22307E+01    rms(broyden)= 0.22305E+01
  rms(prec ) = 0.38636E+01
  weight for this iteration     100.00

 eigenvalues of (default mixing * dielectric matrix)
  average eigenvalue GAMMA=   0.5313
  1.1646  0.2791  0.1501

 Free energy of the ion-electron system (eV)
  ---------------------------------------------------
  alpha Z        PSCENC =       975.10247152
  Ewald energy   TEWEN  =     92326.25249097
  -Hartree energ DENC   =   -121105.45824802
  -exchange      EXHF   =         0.00000000
  -V(xc)+E(xc)   XCENC  =       179.86530680
  PAW double counting   =     28012.76190325   -27070.21211608
  entropy T*S    EENTRO =        -0.07327851
  eigenvalues    EBANDS =      -821.87386979
  atomic energy  EATOM  =     27259.89416086
  Solvation  Ediel_sol  =         0.00000000
  ---------------------------------------------------
  free energy    TOTEN  =      -243.74117900 eV

  energy without entropy =     -243.66790049  energy(sigma->0) =     -243.71675283


--------------------------------------------------------------------------------------------------------




--------------------------------------- Iteration      1(   9)  ---------------------------------------


    POTLOK:  cpu time    0.1676: real time    0.1688
    SETDIJ:  cpu time    0.0116: real time    0.0117
    EDDIAG:  cpu time    1.9357: real time    1.9491
  RMM-DIIS:  cpu time    7.0555: real time    7.1062
    ORTHCH:  cpu time    0.2548: real time    0.2562
       DOS:  cpu time    0.0013: real time    0.0013
    CHARGE:  cpu time    0.7512: real time    0.7561
    MIXING:  cpu time    0.0069: real time    0.0070
    --------------------------------------------
      LOOP:  cpu time   10.1845: real time   10.2563

 eigenvalue-minimisations  :  1831
 total energy-change (2. order) : 0.1187134E+02  (-0.5551474E+00)
 number of electron     376.0000045 magnetization 
 augmentation part      112.6660959 magnetization 

 Broyden mixing:
  rms(total) = 0.87324E+00    rms(broyden)= 0.87288E+00
  rms(prec ) = 0.11835E+01
  weight for this iteration     100.00

 eigenvalues of (default mixing * dielectric matrix)
  average eigenvalue GAMMA=   0.5267
  1.2956  0.3375  0.3375  0.1363

 Free energy of the ion-electron system (eV)
  ---------------------------------------------------
  alpha Z        PSCENC =       975.10247152
  Ewald energy   TEWEN  =     92326.25249097
  -Hartree energ DENC   =   -121043.30358364
  -exchange      EXHF   =         0.00000000
  -V(xc)+E(xc)   XCENC  =       179.17062035
  PAW double counting   =     28740.46856027   -27809.20010996
  entropy T*S    EENTRO =        -0.09339020
  eigenvalues    EBANDS =      -860.16106279
  atomic energy  EATOM  =     27259.89416086
  Solvation  Ediel_sol  =         0.00000000
  ---------------------------------------------------
  free energy    TOTEN  =      -231.86984262 eV

  energy without entropy =     -231.77645242  energy(sigma->0) =     -231.83871256


--------------------------------------------------------------------------------------------------------




--------------------------------------- Iteration      1(  10)  ---------------------------------------


    POTLOK:  cpu time    0.1651: real time    0.1663
    SETDIJ:  cpu time    0.0128: real time    0.0129
    EDDIAG:  cpu time    1.9552: real time    1.9683
  RMM-DIIS:  cpu time    6.9286: real time    6.9808
    ORTHCH:  cpu time    0.2562: real time    0.2578
       DOS:  cpu time    0.0012: real time    0.0012
    CHARGE:  cpu time    0.7224: real time    0.7278
    MIXING:  cpu time    0.0058: real time    0.0059
    --------------------------------------------
      LOOP:  cpu time   10.0474: real time   10.1211

 eigenvalue-minimisations  :  1831
 total energy-change (2. order) : 0.1189108E+01  (-0.1698425E+00)
 number of electron     376.0000043 magnetization 
 augmentation part      112.7601064 magnetization 

 Broyden mixing:
  rms(total) = 0.52485E+00    rms(broyden)= 0.52478E+00
  rms(prec ) = 0.66454E+00
  weight for this iteration     100.00

 eigenvalues of (default mixing * dielectric matrix)
  average eigenvalue GAMMA=   0.5466
  1.4022  0.4689  0.4689  0.1388  0.2544

 Free energy of the ion-electron system (eV)
  ---------------------------------------------------
  alpha Z        PSCENC =       975.10247152
  Ewald energy   TEWEN  =     92326.25249097
  -Hartree energ DENC   =   -121034.04547764
  -exchange      EXHF   =         0.00000000
  -V(xc)+E(xc)   XCENC  =       179.02651565
  PAW double counting   =     29102.27198172   -28175.89906522
  entropy T*S    EENTRO =        -0.00535240
  eigenvalues    EBANDS =      -863.27846025
  atomic energy  EATOM  =     27259.89416086
  Solvation  Ediel_sol  =         0.00000000
  ---------------------------------------------------
  free energy    TOTEN  =      -230.68073478 eV

  energy without entropy =     -230.67538239  energy(sigma->0) =     -230.67895065


--------------------------------------------------------------------------------------------------------




--------------------------------------- Iteration      1(  11)  ---------------------------------------


    POTLOK:  cpu time    0.1684: real time    0.1697
    SETDIJ:  cpu time    0.0116: real time    0.0117
    EDDIAG:  cpu time    1.9739: real time    1.9880
  RMM-DIIS:  cpu time    6.9413: real time    6.9946
    ORTHCH:  cpu time    0.2687: real time    0.2704
       DOS:  cpu time    0.0012: real time    0.0012
    CHARGE:  cpu time    0.7071: real time    0.7178
    MIXING:  cpu time    0.0062: real time    0.0062
    --------------------------------------------
      LOOP:  cpu time   10.0783: real time   10.1597

 eigenvalue-minimisations  :  1831
 total energy-change (2. order) : 0.2716326E+00  (-0.4750787E-01)
 number of electron     376.0000042 magnetization 
 augmentation part      112.9037771 magnetization 

 Broyden mixing:
  rms(total) = 0.34223E+00    rms(broyden)= 0.34185E+00
  rms(prec ) = 0.45274E+00
  weight for this iteration     100.00

 eigenvalues of (default mixing * dielectric matrix)
  average eigenvalue GAMMA=   0.5927
  1.5934  0.8872  0.3581  0.3581  0.1374  0.2218

 Free energy of the ion-electron system (eV)
  ---------------------------------------------------
  alpha Z        PSCENC =       975.10247152
  Ewald energy   TEWEN  =     92326.25249097
  -Hartree energ DENC   =   -121032.04978734
  -exchange      EXHF   =         0.00000000
  -V(xc)+E(xc)   XCENC  =       179.02383278
  PAW double counting   =     29396.91329073   -28474.33689007
  entropy T*S    EENTRO =        -0.05255738
  eigenvalues    EBANDS =      -861.15611424
  atomic energy  EATOM  =     27259.89416086
  Solvation  Ediel_sol  =         0.00000000
  ---------------------------------------------------
  free energy    TOTEN  =      -230.40910217 eV

  energy without entropy =     -230.35654479  energy(sigma->0) =     -230.39158305


--------------------------------------------------------------------------------------------------------




--------------------------------------- Iteration      1(  12)  ---------------------------------------


    POTLOK:  cpu time    0.1717: real time    0.1730
    SETDIJ:  cpu time    0.0119: real time    0.0119
    EDDIAG:  cpu time    1.9841: real time    1.9983
  RMM-DIIS:  cpu time    7.0237: real time    7.0757
    ORTHCH:  cpu time    0.2682: real time    0.2698
       DOS:  cpu time    0.0012: real time    0.0013
    CHARGE:  cpu time    0.7263: real time    0.7394
    MIXING:  cpu time    0.0077: real time    0.0077
    --------------------------------------------
      LOOP:  cpu time   10.1948: real time   10.2771

 eigenvalue-minimisations  :  1845
 total energy-change (2. order) : 0.1719106E+00  (-0.1981694E-01)
 number of electron     376.0000041 magnetization 
 augmentation part      112.9599887 magnetization 

 Broyden mixing:
  rms(total) = 0.19534E+00    rms(broyden)= 0.19531E+00
  rms(prec ) = 0.21894E+00
  weight for this iteration     100.00

 eigenvalues of (default mixing * dielectric matrix)
  average eigenvalue GAMMA=   0.6868
  1.9726  1.0812  0.6393  0.4432  0.1376  0.2969  0.2370

 Free energy of the ion-electron system (eV)
  ---------------------------------------------------
  alpha Z        PSCENC =       975.10247152
  Ewald energy   TEWEN  =     92326.25249097
  -Hartree energ DENC   =   -121022.85002266
  -exchange      EXHF   =         0.00000000
  -V(xc)+E(xc)   XCENC  =       178.96758500
  PAW double counting   =     29723.06582664   -28804.45277819
  entropy T*S    EENTRO =        -0.03631333
  eigenvalues    EBANDS =      -866.18061237
  atomic energy  EATOM  =     27259.89416086
  Solvation  Ediel_sol  =         0.00000000
  ---------------------------------------------------
  free energy    TOTEN  =      -230.23719155 eV

  energy without entropy =     -230.20087822  energy(sigma->0) =     -230.22508710


--------------------------------------------------------------------------------------------------------




--------------------------------------- Iteration      1(  13)  ---------------------------------------


    POTLOK:  cpu time    0.1705: real time    0.1717
    SETDIJ:  cpu time    0.0121: real time    0.0122
    EDDIAG:  cpu time    1.9859: real time    1.9990
  RMM-DIIS:  cpu time    6.7276: real time    6.7781
    ORTHCH:  cpu time    0.2690: real time    0.2706
       DOS:  cpu time    0.0013: real time    0.0013
    CHARGE:  cpu time    0.6308: real time    0.6346
    MIXING:  cpu time    0.0062: real time    0.0063
    --------------------------------------------
      LOOP:  cpu time    9.8033: real time    9.8737

 eigenvalue-minimisations  :  1831
 total energy-change (2. order) :-0.2826647E-02  (-0.1024494E-01)
 number of electron     376.0000041 magnetization 
 augmentation part      112.9573115 magnetization 

 Broyden mixing:
  rms(total) = 0.18002E+00    rms(broyden)= 0.17999E+00
  rms(prec ) = 0.22724E+00
  weight for this iteration     100.00

 eigenvalues of (default mixing * dielectric matrix)
  average eigenvalue GAMMA=   0.6997
  2.1817  1.1418  0.8514  0.1376  0.4053  0.3420  0.3090  0.2290

 Free energy of the ion-electron system (eV)
  ---------------------------------------------------
  alpha Z        PSCENC =       975.10247152
  Ewald energy   TEWEN  =     92326.25249097
  -Hartree energ DENC   =   -121024.42945386
  -exchange      EXHF   =         0.00000000
  -V(xc)+E(xc)   XCENC  =       178.85979367
  PAW double counting   =     29992.98083825   -29077.56910914
  entropy T*S    EENTRO =        -0.02775911
  eigenvalues    EBANDS =      -861.30345135
  atomic energy  EATOM  =     27259.89416086
  Solvation  Ediel_sol  =         0.00000000
  ---------------------------------------------------
  free energy    TOTEN  =      -230.24001820 eV

  energy without entropy =     -230.21225908  energy(sigma->0) =     -230.23076516


--------------------------------------------------------------------------------------------------------




--------------------------------------- Iteration      1(  14)  ---------------------------------------


    POTLOK:  cpu time    0.1620: real time    0.1692
    SETDIJ:  cpu time    0.0113: real time    0.0114
    EDDIAG:  cpu time    1.9172: real time    1.9304
  RMM-DIIS:  cpu time    6.6551: real time    6.7049
    ORTHCH:  cpu time    0.2611: real time    0.2628
       DOS:  cpu time    0.0013: real time    0.0013
    CHARGE:  cpu time    0.6608: real time    0.6649
    MIXING:  cpu time    0.0064: real time    0.0064
    --------------------------------------------
      LOOP:  cpu time    9.6752: real time    9.7513

 eigenvalue-minimisations  :  1831
 total energy-change (2. order) : 0.4094815E-01  (-0.7697175E-02)
 number of electron     376.0000041 magnetization 
 augmentation part      112.9440490 magnetization 

 Broyden mixing:
  rms(total) = 0.85454E-01    rms(broyden)= 0.85445E-01
  rms(prec ) = 0.10548E+00
  weight for this iteration     100.00

 eigenvalues of (default mixing * dielectric matrix)
  average eigenvalue GAMMA=   0.7403
  2.4816  1.2746  0.8451  0.7217  0.4004  0.1376  0.3196  0.2288  0.2533

 Free energy of the ion-electron system (eV)
  ---------------------------------------------------
  alpha Z        PSCENC =       975.10247152
  Ewald energy   TEWEN  =     92326.25249097
  -Hartree energ DENC   =   -121028.84067145
  -exchange      EXHF   =         0.00000000
  -V(xc)+E(xc)   XCENC  =       178.81491325
  PAW double counting   =     30116.96731891   -29202.98609294
  entropy T*S    EENTRO =        -0.03238085
  eigenvalues    EBANDS =      -855.37128033
  atomic energy  EATOM  =     27259.89416086
  Solvation  Ediel_sol  =         0.00000000
  ---------------------------------------------------
  free energy    TOTEN  =      -230.19907005 eV

  energy without entropy =     -230.16668920  energy(sigma->0) =     -230.18827643


--------------------------------------------------------------------------------------------------------




--------------------------------------- Iteration      1(  15)  ---------------------------------------


    POTLOK:  cpu time    0.1631: real time    0.1643
    SETDIJ:  cpu time    0.0115: real time    0.0116
    EDDIAG:  cpu time    1.8858: real time    1.8986
  RMM-DIIS:  cpu time    6.5741: real time    6.6225
    ORTHCH:  cpu time    0.2626: real time    0.2643
       DOS:  cpu time    0.0013: real time    0.0013
    CHARGE:  cpu time    0.6772: real time    0.6816
    MIXING:  cpu time    0.0084: real time    0.0085
    --------------------------------------------
      LOOP:  cpu time    9.5840: real time    9.6527

 eigenvalue-minimisations  :  1831
 total energy-change (2. order) : 0.5162788E-02  (-0.2319480E-02)
 number of electron     376.0000041 magnetization 
 augmentation part      112.9295744 magnetization 

 Broyden mixing:
  rms(total) = 0.58386E-01    rms(broyden)= 0.58343E-01
  rms(prec ) = 0.71517E-01
  weight for this iteration     100.00

 eigenvalues of (default mixing * dielectric matrix)
  average eigenvalue GAMMA=   0.7077
  2.5001  1.2841  0.8243  0.7888  0.4296  0.1376  0.3267  0.3116  0.2287  0.2459

 Free energy of the ion-electron system (eV)
  ---------------------------------------------------
  alpha Z        PSCENC =       975.10247152
  Ewald energy   TEWEN  =     92326.25249097
  -Hartree energ DENC   =   -121030.22179490
  -exchange      EXHF   =         0.00000000
  -V(xc)+E(xc)   XCENC  =       178.80170732
  PAW double counting   =     30206.16522612   -29293.13294872
  entropy T*S    EENTRO =        -0.02946384
  eigenvalues    EBANDS =      -853.02575659
  atomic energy  EATOM  =     27259.89416086
  Solvation  Ediel_sol  =         0.00000000
  ---------------------------------------------------
  free energy    TOTEN  =      -230.19390726 eV

  energy without entropy =     -230.16444342  energy(sigma->0) =     -230.18408598


--------------------------------------------------------------------------------------------------------




--------------------------------------- Iteration      1(  16)  ---------------------------------------


    POTLOK:  cpu time    0.1698: real time    0.1710
    SETDIJ:  cpu time    0.0119: real time    0.0119
    EDDIAG:  cpu time    1.9238: real time    1.9368
  RMM-DIIS:  cpu time    6.8057: real time    6.8561
    ORTHCH:  cpu time    0.2696: real time    0.2713
       DOS:  cpu time    0.0012: real time    0.0012
    CHARGE:  cpu time    0.7086: real time    0.7130
    MIXING:  cpu time    0.0087: real time    0.0087
    --------------------------------------------
      LOOP:  cpu time    9.8992: real time    9.9701

 eigenvalue-minimisations  :  1827
 total energy-change (2. order) : 0.5281283E-02  (-0.5623308E-03)
 number of electron     376.0000041 magnetization 
 augmentation part      112.9334443 magnetization 

 Broyden mixing:
  rms(total) = 0.19901E-01    rms(broyden)= 0.19895E-01
  rms(prec ) = 0.23493E-01
  weight for this iteration     100.00

 eigenvalues of (default mixing * dielectric matrix)
  average eigenvalue GAMMA=   0.6933
  2.4984  1.2821  0.8107  0.7030  0.7030  0.1376  0.4043  0.3082  0.3082  0.2281
  0.2423

 Free energy of the ion-electron system (eV)
  ---------------------------------------------------
  alpha Z        PSCENC =       975.10247152
  Ewald energy   TEWEN  =     92326.25249097
  -Hartree energ DENC   =   -121030.96315150
  -exchange      EXHF   =         0.00000000
  -V(xc)+E(xc)   XCENC  =       178.81173105
  PAW double counting   =     30211.28639737   -29298.27903789
  entropy T*S    EENTRO =        -0.03011695
  eigenvalues    EBANDS =      -852.26357141
  atomic energy  EATOM  =     27259.89416086
  Solvation  Ediel_sol  =         0.00000000
  ---------------------------------------------------
  free energy    TOTEN  =      -230.18862598 eV

  energy without entropy =     -230.15850903  energy(sigma->0) =     -230.17858699


--------------------------------------------------------------------------------------------------------




--------------------------------------- Iteration      1(  17)  ---------------------------------------


    POTLOK:  cpu time    0.1597: real time    0.1609
    SETDIJ:  cpu time    0.0117: real time    0.0118
    EDDIAG:  cpu time    1.9757: real time    1.9895
  RMM-DIIS:  cpu time    6.8479: real time    6.8986
    ORTHCH:  cpu time    0.2682: real time    0.2699
       DOS:  cpu time    0.0013: real time    0.0013
    CHARGE:  cpu time    0.7158: real time    0.7201
    MIXING:  cpu time    0.0085: real time    0.0085
    --------------------------------------------
      LOOP:  cpu time    9.9889: real time   10.0607

 eigenvalue-minimisations  :  1821
 total energy-change (2. order) : 0.1931156E-03  (-0.1292005E-03)
 number of electron     376.0000041 magnetization 
 augmentation part      112.9333161 magnetization 

 Broyden mixing:
  rms(total) = 0.15109E-01    rms(broyden)= 0.15105E-01
  rms(prec ) = 0.18150E-01
  weight for this iteration     100.00

 eigenvalues of (default mixing * dielectric matrix)
  average eigenvalue GAMMA=   0.7473
  2.5173  1.3915  1.2976  0.9899  0.8279  0.4331  0.1376  0.3266  0.3266  0.2592
  0.2264  0.2339

 Free energy of the ion-electron system (eV)
  ---------------------------------------------------
  alpha Z        PSCENC =       975.10247152
  Ewald energy   TEWEN  =     92326.25249097
  -Hartree energ DENC   =   -121031.60452234
  -exchange      EXHF   =         0.00000000
  -V(xc)+E(xc)   XCENC  =       178.81876644
  PAW double counting   =     30210.39723624   -29297.34710863
  entropy T*S    EENTRO =        -0.03042999
  eigenvalues    EBANDS =      -851.67149793
  atomic energy  EATOM  =     27259.89416086
  Solvation  Ediel_sol  =         0.00000000
  ---------------------------------------------------
  free energy    TOTEN  =      -230.18843286 eV

  energy without entropy =     -230.15800288  energy(sigma->0) =     -230.17828953


--------------------------------------------------------------------------------------------------------




--------------------------------------- Iteration      1(  18)  ---------------------------------------


    POTLOK:  cpu time    0.1692: real time    0.1705
    SETDIJ:  cpu time    0.0115: real time    0.0116
    EDDIAG:  cpu time    1.8809: real time    1.8940
  RMM-DIIS:  cpu time    6.4874: real time    6.5351
    ORTHCH:  cpu time    0.2676: real time    0.2692
       DOS:  cpu time    0.0013: real time    0.0013
    --------------------------------------------
      LOOP:  cpu time    8.8178: real time    8.8816

 eigenvalue-minimisations  :  1732
 total energy-change (2. order) :-0.9079001E-04  (-0.7328812E-04)
 number of electron     376.0000041 magnetization 
 augmentation part      112.9333161 magnetization 

 Free energy of the ion-electron system (eV)
  ---------------------------------------------------
  alpha Z        PSCENC =       975.10247152
  Ewald energy   TEWEN  =     92326.25249097
  -Hartree energ DENC   =   -121033.11932990
  -exchange      EXHF   =         0.00000000
  -V(xc)+E(xc)   XCENC  =       178.83130887
  PAW double counting   =     30209.45801626   -29296.32253138
  entropy T*S    EENTRO =        -0.03032348
  eigenvalues    EBANDS =      -850.25478738
  atomic energy  EATOM  =     27259.89416086
  Solvation  Ediel_sol  =         0.00000000
  ---------------------------------------------------
  free energy    TOTEN  =      -230.18852365 eV

  energy without entropy =     -230.15820018  energy(sigma->0) =     -230.17841583


--------------------------------------------------------------------------------------------------------




 average (electrostatic) potential at core
  the test charge radii are     0.6991  0.7215  1.2059
  (the norm of the test charge is              1.0000)
       1 -56.3753       2 -74.8027       3 -76.4566       4 -72.2992       5 -72.2930
       6 -72.2676       7 -72.2831       8 -72.2978       9 -72.2718      10 -72.2661
      11 -72.2859      12 -72.2685      13 -72.8330      14 -72.9434      15 -72.9469
      16 -72.9549      17 -72.9692      18 -72.9940      19 -72.9779      20 -72.9713
      21 -73.0087      22 -72.9135      23 -72.9533      24 -72.9324      25 -72.9901
      26 -72.9824      27 -73.0078      28 -72.9765      29 -72.9194      30 -72.9125
      31 -72.3368      32 -72.3287      33 -72.4364      34 -72.5268      35 -72.4353
      36 -73.2686      37 -72.4194      38 -73.2959      39 -72.4082
 
 
 
 E-fermi :   1.1342     XC(G=0):  -6.6149     alpha+bet : -6.8913


 k-point     1 :       0.0000    0.0000    0.0000
  band No.  band energies     occupation 
      1     -22.2847      2.00000
      2     -17.0424      2.00000
      3      -8.6492      2.00000
      4      -8.1298      2.00000
      5      -6.8179      2.00000
      6      -6.0930      2.00000
      7      -5.9127      2.00000
      8      -5.7954      2.00000
      9      -5.7044      2.00000
     10      -5.6771      2.00000
     11      -5.6658      2.00000
     12      -5.6391      2.00000
     13      -5.5823      2.00000
     14      -5.5526      2.00000
     15      -5.4817      2.00000
     16      -5.3138      2.00000
     17      -5.1339      2.00000
     18      -5.0938      2.00000
     19      -5.0809      2.00000
     20      -5.0549      2.00000
     21      -5.0235      2.00000
     22      -4.9898      2.00000
     23      -4.7265      2.00000
     24      -4.6562      2.00000
     25      -4.5874      2.00000
     26      -4.5706      2.00000
     27      -4.5543      2.00000
     28      -4.5172      2.00000
     29      -4.4259      2.00000
     30      -4.3914      2.00000
     31      -4.3527      2.00000
     32      -4.3398      2.00000
     33      -4.3167      2.00000
     34      -4.2461      2.00000
     35      -4.1820      2.00000
     36      -4.1535      2.00000
     37      -4.1416      2.00000
     38      -4.1306      2.00000
     39      -4.1000      2.00000
     40      -4.0733      2.00000
     41      -4.0557      2.00000
     42      -4.0490      2.00000
     43      -4.0294      2.00000
     44      -4.0172      2.00000
     45      -3.9933      2.00000
     46      -3.9722      2.00000
     47      -3.6696      2.00000
     48      -3.5711      2.00000
     49      -3.5094      2.00000
     50      -3.4245      2.00000
     51      -3.4183      2.00000
     52      -3.4026      2.00000
     53      -3.3944      2.00000
     54      -3.3831      2.00000
     55      -3.3388      2.00000
     56      -3.3118      2.00000
     57      -3.2790      2.00000
     58      -3.2387      2.00000
     59      -3.1590      2.00000
     60      -3.1432      2.00000
     61      -3.0381      2.00000
     62      -2.9996      2.00000
     63      -2.9146      2.00000
     64      -2.6305      2.00000
     65      -2.5889      2.00000
     66      -2.5660      2.00000
     67      -2.5330      2.00000
     68      -2.4928      2.00000
     69      -2.4744      2.00000
     70      -2.4574      2.00000
     71      -2.4465      2.00000
     72      -2.4259      2.00000
     73      -2.4067      2.00000
     74      -2.3973      2.00000
     75      -2.3783      2.00000
     76      -2.3696      2.00000
     77      -2.3460      2.00000
     78      -2.3342      2.00000
     79      -2.3277      2.00000
     80      -2.3123      2.00000
     81      -2.2893      2.00000
     82      -2.2837      2.00000
     83      -2.2723      2.00000
     84      -2.2390      2.00000
     85      -2.1934      2.00000
     86      -2.1548      2.00000
     87      -2.1382      2.00000
     88      -2.1167      2.00000
     89      -2.0772      2.00000
     90      -2.0354      2.00000
     91      -2.0176      2.00000
     92      -2.0081      2.00000
     93      -1.9923      2.00000
     94      -1.9652      2.00000
     95      -1.9540      2.00000
     96      -1.9149      2.00000
     97      -1.8998      2.00000
     98      -1.8608      2.00000
     99      -1.7961      2.00000
    100      -1.7666      2.00000
    101      -1.7146      2.00000
    102      -1.6068      2.00000
    103      -1.5988      2.00000
    104      -1.5910      2.00000
    105      -1.5727      2.00000
    106      -1.5573      2.00000
    107      -1.5040      2.00000
    108      -1.5029      2.00000
    109      -1.4850      2.00000
    110      -1.4619      2.00000
    111      -1.4544      2.00000
    112      -1.4495      2.00000
    113      -1.4348      2.00000
    114      -1.3195      2.00000
    115      -1.2941      2.00000
    116      -1.1731      2.00000
    117      -1.0885      2.00000
    118      -1.0089      2.00000
    119      -1.0061      2.00000
    120      -0.9835      2.00000
    121      -0.9648      2.00000
    122      -0.9592      2.00000
    123      -0.9284      2.00000
    124      -0.8630      2.00000
    125      -0.8387      2.00000
    126      -0.8080      2.00000
    127      -0.7575      2.00000
    128      -0.7420      2.00000
    129      -0.6634      2.00000
    130      -0.6546      2.00000
    131      -0.6307      2.00000
    132      -0.6164      2.00000
    133      -0.5924      2.00000
    134      -0.5842      2.00000
    135      -0.4945      2.00000
    136      -0.4481      2.00000
    137      -0.4061      2.00000
    138      -0.3502      2.00000
    139      -0.3386      2.00000
    140      -0.3327      2.00000
    141      -0.2613      2.00000
    142      -0.2264      2.00000
    143      -0.1905      2.00000
    144      -0.1576      2.00000
    145      -0.1246      2.00000
    146      -0.1184      2.00000
    147      -0.0812      2.00000
    148      -0.0578      2.00000
    149       0.0058      2.00000
    150       0.0570      2.00000
    151       0.1135      2.00000
    152       0.1296      2.00000
    153       0.1452      2.00000
    154       0.1639      2.00000
    155       0.1788      2.00000
    156       0.1841      2.00000
    157       0.2362      2.00000
    158       0.2877      2.00000
    159       0.2976      2.00000
    160       0.3196      2.00000
    161       0.3290      2.00000
    162       0.3423      2.00000
    163       0.3597      2.00000
    164       0.3736      2.00000
    165       0.3831      2.00000
    166       0.4007      2.00000
    167       0.4458      2.00001
    168       0.4598      2.00002
    169       0.4622      2.00002
    170       0.4943      2.00006
    171       0.5236      2.00014
    172       0.5673      2.00046
    173       0.6074      2.00125
    174       0.6380      2.00252
    175       0.6556      2.00368
    176       0.6699      2.00495
    177       0.6780      2.00583
    178       0.7205      2.01273
    179       0.7275      2.01433
    180       0.7427      2.01829
    181       0.7708      2.02757
    182       0.7754      2.02932
    183       0.8397      2.05772
    184       0.8459      2.06033
    185       0.8526      2.06296
    186       0.8619      2.06617
    187       0.8637      2.06671
    188       0.8709      2.06862
    189       0.8744      2.06939
    190       0.8796      2.07025
    191       0.8905      2.07090
    192       0.8916      2.07087
    193       0.8937      2.07076
    194       0.9644      2.00309
    195       0.9916      1.92864
    196       1.1303      1.03272
    197       1.1557      0.81902
    198       1.2301      0.28264
    199       1.2561      0.15170
    200       1.2574      0.14604
    201       1.2759      0.07453
    202       1.2845      0.04682
    203       1.3022      0.00093
    204       1.4443     -0.05070
    205       1.5302     -0.01706
    206       1.9611     -0.00000
    207       2.0733     -0.00000
    208       2.1105     -0.00000
    209       2.1134     -0.00000
    210       2.2280     -0.00000
    211       2.5353     -0.00000
    212       3.5732     -0.00000
    213       3.9989     -0.00000
    214       4.3987     -0.00000
    215       4.4033     -0.00000
    216       4.4741     -0.00000
    217       4.6350     -0.00000
    218       4.8751     -0.00000
    219       5.4434     -0.00000
    220       5.5064     -0.00000
    221       5.8777     -0.00000
    222       5.9050     -0.00000
    223       5.9234     -0.00000
    224       5.9644     -0.00000
    225       6.0133     -0.00000
    226       6.0955     -0.00000
    227       6.5584     -0.00000
    228       6.7886      0.00000

 k-point     2 :       0.5000    0.0000    0.0000
  band No.  band energies     occupation 
      1     -22.2845      2.00000
      2     -17.0420      2.00000
      3      -8.6310      2.00000
      4      -7.3028      2.00000
      5      -7.2394      2.00000
      6      -6.1673      2.00000
      7      -6.0464      2.00000
      8      -5.9117      2.00000
      9      -5.8756      2.00000
     10      -5.7438      2.00000
     11      -5.5801      2.00000
     12      -5.4485      2.00000
     13      -5.3861      2.00000
     14      -5.2748      2.00000
     15      -5.0480      2.00000
     16      -4.9226      2.00000
     17      -4.9156      2.00000
     18      -4.9053      2.00000
     19      -4.8756      2.00000
     20      -4.8368      2.00000
     21      -4.8317      2.00000
     22      -4.8141      2.00000
     23      -4.7964      2.00000
     24      -4.7539      2.00000
     25      -4.7463      2.00000
     26      -4.7320      2.00000
     27      -4.7160      2.00000
     28      -4.6946      2.00000
     29      -4.6505      2.00000
     30      -4.5619      2.00000
     31      -4.3813      2.00000
     32      -4.3561      2.00000
     33      -4.3284      2.00000
     34      -4.3209      2.00000
     35      -4.2977      2.00000
     36      -4.1676      2.00000
     37      -4.0601      2.00000
     38      -4.0346      2.00000
     39      -4.0035      2.00000
     40      -3.9870      2.00000
     41      -3.9682      2.00000
     42      -3.9261      2.00000
     43      -3.9047      2.00000
     44      -3.8132      2.00000
     45      -3.7941      2.00000
     46      -3.6875      2.00000
     47      -3.6749      2.00000
     48      -3.6397      2.00000
     49      -3.6372      2.00000
     50      -3.5811      2.00000
     51      -3.4710      2.00000
     52      -3.4510      2.00000
     53      -3.4237      2.00000
     54      -3.3562      2.00000
     55      -3.3374      2.00000
     56      -3.3250      2.00000
     57      -3.2558      2.00000
     58      -3.2190      2.00000
     59      -3.1867      2.00000
     60      -3.1588      2.00000
     61      -3.0920      2.00000
     62      -3.0814      2.00000
     63      -3.0469      2.00000
     64      -3.0088      2.00000
     65      -2.9917      2.00000
     66      -2.9807      2.00000
     67      -2.9290      2.00000
     68      -2.8590      2.00000
     69      -2.8551      2.00000
     70      -2.7988      2.00000
     71      -2.7469      2.00000
     72      -2.7105      2.00000
     73      -2.6346      2.00000
     74      -2.5981      2.00000
     75      -2.5383      2.00000
     76      -2.5105      2.00000
     77      -2.4837      2.00000
     78      -2.4600      2.00000
     79      -2.4440      2.00000
     80      -2.3695      2.00000
     81      -2.3568      2.00000
     82      -2.3113      2.00000
     83      -2.2751      2.00000
     84      -2.2270      2.00000
     85      -2.2239      2.00000
     86      -2.2081      2.00000
     87      -2.2054      2.00000
     88      -2.1651      2.00000
     89      -2.1526      2.00000
     90      -2.1426      2.00000
     91      -2.1214      2.00000
     92      -2.1144      2.00000
     93      -2.0761      2.00000
     94      -2.0243      2.00000
     95      -1.9493      2.00000
     96      -1.9214      2.00000
     97      -1.9144      2.00000
     98      -1.8989      2.00000
     99      -1.8768      2.00000
    100      -1.8309      2.00000
    101      -1.8017      2.00000
    102      -1.7545      2.00000
    103      -1.7180      2.00000
    104      -1.7112      2.00000
    105      -1.6825      2.00000
    106      -1.6778      2.00000
    107      -1.6330      2.00000
    108      -1.6223      2.00000
    109      -1.5853      2.00000
    110      -1.5677      2.00000
    111      -1.5279      2.00000
    112      -1.4686      2.00000
    113      -1.4146      2.00000
    114      -1.3970      2.00000
    115      -1.3001      2.00000
    116      -1.2518      2.00000
    117      -1.2324      2.00000
    118      -1.2069      2.00000
    119      -1.1780      2.00000
    120      -1.1267      2.00000
    121      -1.0686      2.00000
    122      -1.0446      2.00000
    123      -1.0344      2.00000
    124      -1.0045      2.00000
    125      -0.9822      2.00000
    126      -0.9408      2.00000
    127      -0.9328      2.00000
    128      -0.9021      2.00000
    129      -0.8948      2.00000
    130      -0.8634      2.00000
[...]
     89      -2.1437      2.00000
     90      -2.1205      2.00000
     91      -2.1039      2.00000
     92      -2.0828      2.00000
     93      -2.0401      2.00000
     94      -1.9694      2.00000
     95      -1.9401      2.00000
     96      -1.9280      2.00000
     97      -1.8993      2.00000
     98      -1.8761      2.00000
     99      -1.8675      2.00000
    100      -1.8011      2.00000
    101      -1.7562      2.00000
    102      -1.7224      2.00000
    103      -1.7112      2.00000
    104      -1.7012      2.00000
    105      -1.6765      2.00000
    106      -1.6480      2.00000
    107      -1.6229      2.00000
    108      -1.6059      2.00000
    109      -1.5727      2.00000
    110      -1.5301      2.00000
    111      -1.5113      2.00000
    112      -1.4522      2.00000
    113      -1.4158      2.00000
    114      -1.3617      2.00000
    115      -1.2960      2.00000
    116      -1.2490      2.00000
    117      -1.1864      2.00000
    118      -1.1568      2.00000
    119      -1.1137      2.00000
    120      -1.0719      2.00000
    121      -1.0356      2.00000
    122      -1.0155      2.00000
    123      -1.0124      2.00000
    124      -0.9949      2.00000
    125      -0.9514      2.00000
    126      -0.9408      2.00000
    127      -0.9148      2.00000
    128      -0.9092      2.00000
    129      -0.8771      2.00000
    130      -0.8700      2.00000
    131      -0.8202      2.00000
    132      -0.7829      2.00000
    133      -0.7380      2.00000
    134      -0.7163      2.00000
    135      -0.6776      2.00000
    136      -0.6558      2.00000
    137      -0.6498      2.00000
    138      -0.6064      2.00000
    139      -0.5708      2.00000
    140      -0.5308      2.00000
    141      -0.4784      2.00000
    142      -0.4321      2.00000
    143      -0.3792      2.00000
    144      -0.2845      2.00000
    145      -0.2252      2.00000
    146      -0.1687      2.00000
    147      -0.1421      2.00000
    148      -0.1006      2.00000
    149      -0.0709      2.00000
    150      -0.0332      2.00000
    151      -0.0115      2.00000
    152       0.0579      2.00000
    153       0.0754      2.00000
    154       0.1079      2.00000
    155       0.1273      2.00000
    156       0.1357      2.00000
    157       0.1695      2.00000
    158       0.1926      2.00000
    159       0.2308      2.00000
    160       0.2572      2.00000
    161       0.2796      2.00000
    162       0.3384      2.00000
    163       0.3576      2.00000
    164       0.3992      2.00000
    165       0.4081      2.00000
    166       0.4392      2.00001
    167       0.5443      2.00019
    168       0.6060      2.00095
    169       0.6439      2.00230
    170       0.6519      2.00274
    171       0.6806      2.00502
    172       0.7128      2.00931
    173       0.7410      2.01518
    174       0.8243      2.04617
    175       0.8344      2.05086
    176       0.8496      2.05767
    177       0.8871      2.06987
    178       0.9220      2.06628
    179       0.9721      2.00795
    180       0.9776      1.99600
    181       0.9807      1.98875
    182       1.0648      1.61712
    183       1.1040      1.33318
    184       1.1371      1.05997
    185       1.1388      1.04601
    186       1.1446      0.99659
    187       1.1746      0.74623
    188       1.1817      0.68857
    189       1.1963      0.57507
    190       1.2199      0.40778
    191       1.3500     -0.05572
    192       1.3661     -0.06614
    193       1.4041     -0.06937
    194       1.4320     -0.06054
    195       1.4667     -0.04500
    196       1.5209     -0.02286
    197       1.6119     -0.00462
    198       1.7651     -0.00010
    199       1.8657     -0.00000
    200       2.0175     -0.00000
    201       2.2970     -0.00000
    202       2.3611     -0.00000
    203       2.8292     -0.00000
    204       2.9588     -0.00000
    205       2.9746     -0.00000
    206       3.0248     -0.00000
    207       3.0441     -0.00000
    208       3.2401     -0.00000
    209       3.4079     -0.00000
    210       3.5536     -0.00000
    211       3.6093     -0.00000
    212       3.6485     -0.00000
    213       3.7769     -0.00000
    214       3.8537     -0.00000
    215       3.9807     -0.00000
    216       4.2099     -0.00000
    217       4.2892     -0.00000
    218       4.4387     -0.00000
    219       4.4517     -0.00000
    220       4.6672     -0.00000
    221       4.6772     -0.00000
    222       4.8510     -0.00000
    223       5.1396     -0.00000
    224       5.5424     -0.00000
    225       5.8288     -0.00000
    226       6.5786     -0.00000
    227       6.5854     -0.00000
    228       6.6776      0.00000


--------------------------------------------------------------------------------------------------------


 soft charge-density along one line, spin component           1
         0         1         2         3         4         5         6         7         8         9
 total charge-density along one line
 
 pseudopotential strength for first ion, spin component:           1
 10.104   0.016   0.004   0.012  -0.000  -0.004  -0.011   0.000
  0.016  -0.002  -0.000  -0.000  -0.000  -0.000  -0.000   0.000
  0.004  -0.000  -4.249  -0.007   0.001  -0.011  -0.002   0.000
  0.012  -0.000  -0.007  -4.267   0.004  -0.002  -0.017   0.001
 -0.000  -0.000   0.001   0.004  -4.248   0.000   0.001  -0.010
 -0.004  -0.000  -0.011  -0.002   0.000  -0.770  -0.000   0.000
 -0.011  -0.000  -0.002  -0.017   0.001  -0.000  -0.770   0.000
  0.000   0.000   0.000   0.001  -0.010   0.000   0.000  -0.770
 total augmentation occupancy for first ion, spin component:           1
  1.650  -0.888   0.006   0.017  -0.050   0.031   0.092  -0.025
 -0.888   1.283  -0.203  -0.604   0.108  -0.081  -0.246   0.038
  0.006  -0.203   0.845   0.192   0.002   0.114   0.052  -0.004
  0.017  -0.604   0.192   1.351  -0.029   0.052   0.253  -0.013
 -0.050   0.108   0.002  -0.029   0.785  -0.005  -0.014   0.100
  0.031  -0.081   0.114   0.052  -0.005   0.019   0.020  -0.003
  0.092  -0.246   0.052   0.253  -0.014   0.020   0.073  -0.007
 -0.025   0.038  -0.004  -0.013   0.100  -0.003  -0.007   0.014


------------------------ aborting loop because EDIFF is reached ----------------------------------------


    CHARGE:  cpu time    0.6744: real time    0.6793
    FORLOC:  cpu time    0.0521: real time    0.0524
    FORNL :  cpu time    3.1402: real time    3.1627
    STRESS:  cpu time    9.3065: real time    9.3724
    FORCOR:  cpu time    0.1935: real time    0.1947
    FORHAR:  cpu time    0.0864: real time    0.0870
    MIXING:  cpu time    0.0069: real time    0.0069
    OFIELD:  cpu time    0.0001: real time    0.0001

  FORCE on cell =-STRESS in cart. coord.  units (eV):
  Direction    XX          YY          ZZ          XY          YZ          ZX
  --------------------------------------------------------------------------------------
  Alpha Z   975.10247   975.10247   975.10247
  Ewald  112038.97452112044.80096************  -198.02578   247.09200  -106.72539
  Hartree118796.46041118770.87099************  -130.19824   104.69607   -58.53439
  E(xc)   -1666.73346 -1666.46414 -1673.90360    -0.45150     0.67492    -0.24493
  Local  ************************241539.69617   316.70972  -328.43102   157.73937
  n-local   126.35012   125.81734    96.19031    -1.57984     1.78658    -0.33920
  augment  1895.98892  1893.87762  1930.49914     3.12462    -4.49445     1.19177
  Kinetic  5527.37562  5518.25856  5598.43204    10.53669   -20.71593     7.07032
  Fock        0.00000     0.00000     0.00000     0.00000     0.00000     0.00000
  -------------------------------------------------------------------------------------
  Total     -32.96837   -34.92200     1.41290     0.11568     0.60818     0.15756
  in kB     -39.26587   -41.59268     1.68279     0.13778     0.72435     0.18766
  external pressure =      -26.39 kB  Pullay stress =        0.00 kB


 VOLUME and BASIS-vectors are now :
 -----------------------------------------------------------------------------
  energy-cutoff  :      450.00
  volume of cell :     1345.22
      direct lattice vectors                 reciprocal lattice vectors
     7.296955120 -4.212899000  0.000000000     0.137043463  0.000000000  0.000000000
     0.000000000  8.425798000  0.000000000     0.068521732  0.118683121  0.000000000
     0.000000000  0.000000000 21.879635000     0.000000000  0.000000000  0.045704602

  length of vectors
     8.425798004  8.425798000 21.879635000     0.137043463  0.137043463  0.045704602


 FORCES acting on ions
    electron-ion (+dipol)            ewald-force                    non-local-force                 convergence-correction
 -----------------------------------------------------------------------------------------------
   0.700E+01 0.102E+02 -.878E+03   -.739E+01 -.152E+02 0.864E+03   -.122E+00 0.379E+01 0.117E+02   -.305E-01 0.201E-01 0.496E-01
   -.712E+02 0.471E+02 -.161E+04   0.706E+02 -.430E+02 0.163E+04   0.115E+01 -.383E+01 -.241E+02   -.642E-02 0.507E-02 0.280E-01
   0.587E+02 -.982E+02 -.156E+04   -.678E+02 0.118E+03 0.162E+04   0.921E+01 -.195E+02 -.593E+02   -.625E-02 -.107E-01 -.210E-01
   -.944E+00 0.545E+00 0.235E+04   0.894E+00 -.552E+00 -.235E+04   0.213E-01 -.478E-01 -.120E+01   0.223E-01 0.179E-01 0.300E-01
   0.344E+00 0.589E-01 0.235E+04   -.359E+00 -.115E+00 -.234E+04   -.197E-01 -.274E-01 -.110E+01   0.360E-02 0.228E-01 0.364E-01
   0.103E+01 0.316E+00 0.235E+04   -.109E+01 -.269E+00 -.235E+04   0.346E-01 -.243E-01 -.114E+01   -.821E-02 -.100E-01 0.267E-01
   -.801E+00 0.318E+00 0.235E+04   0.782E+00 -.232E+00 -.235E+04   0.947E-02 0.217E-01 -.118E+01   0.716E-02 -.658E-01 0.784E-02
   -.117E+00 0.299E+00 0.235E+04   0.126E+00 -.249E+00 -.234E+04   0.191E-01 0.172E-01 -.128E+01   -.246E-01 -.369E-01 0.417E-01
   0.115E+01 -.212E+00 0.235E+04   -.104E+01 0.229E+00 -.235E+04   -.602E-02 0.918E-02 -.122E+01   -.600E-01 -.315E-01 0.214E-01
   -.278E+00 -.520E+00 0.235E+04   0.392E+00 0.358E+00 -.234E+04   -.991E-01 0.104E+00 -.111E+01   0.366E-01 0.141E-01 0.233E-01
   0.611E+00 -.497E-01 0.235E+04   -.589E+00 0.459E-01 -.235E+04   -.987E-02 -.882E-02 -.128E+01   -.107E-01 0.416E-01 0.298E-01
   -.892E+00 -.813E+00 0.235E+04   0.879E+00 0.782E+00 -.235E+04   -.104E-01 0.582E-02 -.106E+01   0.340E-01 0.477E-01 0.654E-02
   -.623E+01 -.849E+01 0.857E+03   0.614E+01 0.849E+01 -.857E+03   0.128E+00 0.109E+00 -.449E+00   0.523E-01 0.435E-01 0.617E-01
   0.829E+01 0.867E+00 0.865E+03   -.844E+01 -.866E+00 -.865E+03   -.269E-01 0.190E-01 -.221E+00   0.236E-02 0.445E-02 0.637E-01
   -.560E+01 -.326E-01 0.868E+03   0.568E+01 -.137E+00 -.868E+03   0.876E-01 0.932E-01 -.464E+00   0.320E-02 0.520E-01 0.672E-01
   -.261E+01 0.334E+01 0.863E+03   0.260E+01 -.346E+01 -.863E+03   0.180E-02 0.480E-01 -.324E+00   0.249E-01 -.250E-04 0.466E-01
   0.952E+01 0.226E+01 0.867E+03   -.960E+01 -.225E+01 -.867E+03   0.339E-01 -.912E-01 -.389E+00   -.550E-01 -.178E-02 0.536E-01
   -.496E+01 0.305E+01 0.874E+03   0.498E+01 -.301E+01 -.873E+03   0.940E-01 -.298E-01 -.530E+00   0.214E-03 -.474E-01 0.261E-01
   -.751E+01 0.496E+01 0.866E+03   0.754E+01 -.479E+01 -.865E+03   -.212E-02 -.222E+00 -.459E+00   0.475E-01 -.435E-01 0.675E-01
   0.699E+01 -.153E+01 0.865E+03   -.695E+01 0.159E+01 -.865E+03   -.804E-01 -.135E-01 -.423E+00   -.570E-01 -.204E-02 0.982E-01
   0.257E+01 -.318E+01 0.874E+03   -.248E+01 0.336E+01 -.874E+03   -.144E+00 -.315E-01 -.682E+00   -.184E-01 -.498E-02 0.761E-01
   -.589E+01 -.682E+01 -.647E+03   0.580E+01 0.680E+01 0.647E+03   -.309E-01 0.271E+00 0.373E+00   0.726E-01 -.490E-01 0.486E-02
   0.437E+01 0.139E+01 -.656E+03   -.443E+01 -.133E+01 0.656E+03   0.244E-01 -.398E-01 -.280E+00   0.213E-01 -.210E-01 0.697E-01
   -.201E+01 0.676E+01 -.634E+03   0.170E+01 -.631E+01 0.633E+03   0.448E+00 -.566E+00 0.809E+00   -.402E-01 -.274E-01 -.534E-02
   -.133E+02 0.179E+02 -.647E+03   0.128E+02 -.171E+02 0.648E+03   0.662E+00 -.102E+01 -.102E+01   0.227E-01 0.191E-01 0.507E-01
   0.208E+02 0.231E+00 -.654E+03   -.202E+02 -.346E+00 0.653E+03   -.846E+00 0.136E+00 -.551E+00   -.746E-03 -.609E-03 0.673E-01
   -.926E+01 -.741E+01 -.605E+03   0.911E+01 0.721E+01 0.605E+03   0.192E+00 0.904E-01 0.124E+01   0.523E-01 0.277E-01 0.174E-01
   -.289E+01 0.159E+01 -.624E+03   0.288E+01 -.156E+01 0.624E+03   0.213E+00 -.274E+00 0.436E+00   -.604E-01 0.441E-01 0.602E-01
   0.701E+01 -.460E+01 -.637E+03   -.693E+01 0.451E+01 0.637E+03   -.258E+00 0.266E+00 0.240E+00   -.122E-01 0.131E-01 0.254E-01
   -.163E+01 -.647E+01 -.622E+03   0.169E+01 0.625E+01 0.622E+03   -.187E-01 0.433E+00 0.808E+00   -.611E-01 -.116E-01 0.309E-03
   -.323E+02 -.141E+02 -.218E+04   0.326E+02 0.144E+02 0.218E+04   -.114E+00 -.261E+00 0.152E+01   0.452E-01 0.768E-03 -.464E-01
   0.243E+02 0.279E+02 -.217E+04   -.247E+02 -.286E+02 0.216E+04   0.301E+00 0.844E+00 0.145E+01   -.353E-01 -.273E-01 -.334E-01
   0.319E+02 -.370E+01 -.217E+04   -.322E+02 0.383E+01 0.217E+04   0.103E+00 -.124E+00 0.116E+01   0.116E-01 -.392E-02 -.283E-01
   -.596E+01 0.847E+01 -.216E+04   0.589E+01 -.883E+01 0.216E+04   -.196E-01 0.237E+00 0.124E+01   0.117E-01 0.321E-01 -.323E-01
   0.120E+02 0.156E+02 -.217E+04   -.123E+02 -.160E+02 0.217E+04   0.326E+00 0.236E+00 0.127E+01   0.359E-01 0.106E-01 -.422E-01
   0.698E+02 0.615E+02 -.199E+04   -.727E+02 -.599E+02 0.199E+04   0.278E+01 -.110E+01 -.205E+01   -.661E-01 -.315E-01 -.461E-01
   -.610E+02 -.581E+02 -.209E+04   0.624E+02 0.607E+02 0.209E+04   -.124E+01 -.259E+01 0.191E+01   0.289E-01 0.248E-01 0.131E-01
   -.567E+02 0.863E+02 -.204E+04   0.573E+02 -.872E+02 0.204E+04   -.670E+00 0.858E+00 -.800E+00   0.387E-01 -.565E-01 -.694E-01
   0.138E+02 -.633E+02 -.211E+04   -.136E+02 0.644E+02 0.211E+04   -.260E+00 -.120E+01 0.142E+01   -.471E-01 0.444E-01 -.251E-01
 -----------------------------------------------------------------------------------------------
   -.118E+02 0.235E+02 0.762E+02   -.444E-13 0.142E-13 0.364E-11   0.119E+02 -.234E+02 -.770E+02   -.251E-01 0.214E-02 0.822E+00
 
 
 POSITION                                       TOTAL-FORCE (eV/Angst)
 -----------------------------------------------------------------------------------
      5.06298      0.70408     10.35023        -0.537413     -1.243453     -2.347272
      6.64571     -0.58240     10.09041         0.601184      0.301735      0.271022
      4.90900      1.05950     11.42541         0.129594      0.626118      1.772509
      7.20031     -1.38846      1.62732        -0.007217     -0.039872      0.150603
      2.33567      1.42014      1.62732        -0.031905     -0.063981      0.211092
      4.76799      0.01584      1.62732        -0.032097      0.008447      0.102862
      7.20031      1.42015      1.62732        -0.002765      0.038746      0.118184
      2.33567      4.22875      1.62732         0.002369      0.026296      0.172684
      4.76799      2.82445      1.62732         0.049091     -0.008401      0.129015
      2.33567      7.03734      1.62732         0.051159     -0.047030      0.057218
      4.76799      5.63304      1.62732         0.001031      0.025633      0.102590
      7.20031      4.22874      1.62732         0.010029      0.019504      0.037759
      1.52490      0.01584      3.92052         0.089013      0.152648     -0.089424
      3.95722     -1.38846      3.92052        -0.175580      0.020839     -0.106669
      6.38953     -2.79276      3.92052         0.161104     -0.027459     -0.271312
      1.52490      2.82445      3.92052         0.008960     -0.073324     -0.032532
      3.95722      1.42015      3.92052        -0.105733     -0.093168     -0.137183
      6.38953      0.01585      3.92052         0.109411     -0.047038     -0.243037
      1.52490      5.63305      3.92052         0.077610     -0.098525     -0.216746
      3.95722      4.22874      3.92052        -0.099589      0.042518     -0.118929
      6.38953      2.82445      3.92052        -0.070279      0.140413     -0.518051
      0.71894      4.19450      6.20202        -0.049725      0.195985     -0.086798
      3.13601      5.61966      6.21973        -0.013555     -0.004062     -0.543808
      5.55404     -1.37093      6.16252         0.096562     -0.144801      0.545789
      0.68685      1.45831      6.22775         0.186680     -0.166931     -0.366040
      3.16741      0.00050      6.23529        -0.188651      0.016657     -0.511813
      0.69715      7.02435      6.11433         0.084870     -0.088218      0.633801
      5.56116      4.24704      6.15833         0.140153     -0.202115     -0.045482
      3.16587      2.79058      6.19002        -0.196576      0.178971     -0.086981
      5.59242      1.38877      6.15091        -0.015499      0.193343      0.353426
      2.33995      4.20972      8.46001         0.221932     -0.014711      0.016220
      4.77414      5.58825      8.45256        -0.116389      0.168270     -0.073834
      2.36715      1.39516      8.48888        -0.187490      0.000176     -0.136310
      7.22283      4.18517      8.40883        -0.076866     -0.096868      0.371175
      2.30577      7.00822      8.43765         0.098843     -0.103894      0.289694
      4.70436      0.01260      8.57197        -0.197476      0.437704      0.517636
      7.23175      1.43555      8.48456         0.136947      0.004737     -0.302329
      7.27465     -1.52403      8.53709        -0.051105     -0.015158      0.284588
      4.80669      2.84327      8.42805        -0.100635     -0.019732      0.096680
 -----------------------------------------------------------------------------------
    total drift:                                0.032175      0.133013      0.015946
  FORCES: max atom, RMS     2.710106    0.608255
  Number: max atom                 1
  FORCE total and by dimension    3.798551    2.347272


--------------------------------------------------------------------------------------------------------



  FREE ENERGIE OF THE ION-ELECTRON SYSTEM (eV)
  ---------------------------------------------------
  free  energy   TOTEN  =      -230.45963019 eV

  energy  without entropy=     -230.42718361  energy(sigma->0) =     -230.44881467
 
 d Force = 0.7577768E-01[ 0.143E-01, 0.137E+00]  d Energy = 0.7848124E-01-0.270E-02
 d Force = 0.2189032E+02[ 0.217E+02, 0.221E+02]  d Ewald  = 0.2189188E+02-0.156E-02


--------------------------------------------------------------------------------------------------------


    POTLOK:  cpu time    0.1742: real time    0.2443


--------------------------------------------------------------------------------------------------------


 stress matrix after NEB project (eV)
    -32.96837      0.11568      0.15756
      0.11568    -34.92200      0.60818
      0.15756      0.60818      1.41290
  FORCES: max atom, RMS     2.710106    0.608255
  FORCE total and by dimension    3.798551    2.347272
  Stress total and by dimension   48.054882   34.922000
 Quasi-Newton relaxation of ions (Broydens 2nd method)
  g(Force)  = 0.278E+00   g(Stress)= 0.000E+00

 retain information from N=  2 steps
 eigenvalues of (default step * inverse Hessian matrix)
  average eigenvalue of G=   0.7110
 eigenvalue spectrum of G is  0.7110  0.7110
  RESET_HESSIAN           0


--------------------------------------------------------------------------------------------------------


    WAVPRE:  cpu time    0.0718: real time    0.1712
    FEWALD:  cpu time    0.0012: real time    0.0012

 real space projection operators:
  total allocation   :      13550.56 KBytes
  max/ min on nodes  :       6781.44       6769.12

    ORTHCH:  cpu time    1.2667: real time    1.2779
     LOOP+:  cpu time   91.4544: real time   92.7768


--------------------------------------- Iteration      4(   1)  ---------------------------------------


    POTLOK:  cpu time    0.1639: real time    0.2827
    SETDIJ:  cpu time    0.0114: real time    0.0115
