 running on    8 total cores
 distrk:  each k-point on    8 cores,    1 groups
 distr:  one band on    2 cores,    4 groups
 using from now: INCAR     
 vasp.5.4.4 16052018 (build Apr 24 2014 20:13:14) complex standard
 Contain Constrained Minimization Technique (TS), Periodic NBO, VASPsol, libbeef, VASP2WANNIER90, Constrained Cell Relaxation
 POSCAR found type information on POSCAR  C  O  Pt
 POSCAR found :  3 types and      39 ions
 scaLAPACK will be used
 LDA part: xc-table for Pade appr. of Perdew
 POSCAR found type information on POSCAR  C  O  Pt
 POSCAR found :  3 types and      39 ions
 POSCAR, INCAR and KPOINTS ok, starting setup
 FFT: planning ...
 WAVECAR not read
 entering main loop
       N       E                     dE             d eps       ncg     rms          rms(c)
DAV:   1     0.242582883720E+04    0.24258E+04   -0.15956E+05  1824   0.129E+03
DAV:   2    -0.632759466668E+02   -0.24891E+04   -0.23122E+04  2120   0.286E+02
DAV:   3    -0.240462819322E+03   -0.17719E+03   -0.16084E+03  2160   0.691E+01
DAV:   4    -0.248211279560E+03   -0.77485E+01   -0.74490E+01  2344   0.137E+01
DAV:   5    -0.248429707064E+03   -0.21843E+00   -0.21666E+00  2296   0.241E+00    0.274E+01
RMM:   6    -0.246557379898E+03    0.18723E+01   -0.55046E+01  1832   0.148E+01    0.295E+01
RMM:   7    -0.244190484013E+03    0.23669E+01   -0.32703E+01  1830   0.904E+00    0.210E+01
RMM:   8    -0.243741178998E+03    0.44931E+00   -0.99172E+00  1826   0.478E+00    0.223E+01
RMM:   9    -0.231869842624E+03    0.11871E+02   -0.55515E+00  1831   0.389E+00    0.873E+00
RMM:  10    -0.230680734784E+03    0.11891E+01   -0.16984E+00  1831   0.213E+00    0.525E+00
RMM:  11    -0.230409102173E+03    0.27163E+00   -0.47508E-01  1831   0.108E+00    0.342E+00
RMM:  12    -0.230237191548E+03    0.17191E+00   -0.19817E-01  1845   0.711E-01    0.195E+00
RMM:  13    -0.230240018195E+03   -0.28266E-02   -0.10245E-01  1831   0.542E-01    0.180E+00
RMM:  14    -0.230199070049E+03    0.40948E-01   -0.76972E-02  1831   0.474E-01    0.855E-01
RMM:  15    -0.230193907261E+03    0.51628E-02   -0.23195E-02  1831   0.266E-01    0.584E-01
RMM:  16    -0.230188625978E+03    0.52813E-02   -0.56233E-03  1827   0.130E-01    0.199E-01
RMM:  17    -0.230188432862E+03    0.19312E-03   -0.12920E-03  1821   0.606E-02    0.151E-01
RMM:  18    -0.230188523652E+03   -0.90790E-04   -0.73288E-04  1732   0.459E-02
   1 F= -.23018852E+03 E0= -.23017842E+03  d E =-.230189E+03
 BRION: g(F)=  0.233E+00 g(S)=  0.000E+00
 bond charge predicted
       N       E                     dE             d eps       ncg     rms          rms(c)
DAV:   1    -0.230352093491E+03   -0.16366E+00   -0.21389E+01  1852   0.852E+00    0.624E-01
RMM:   2    -0.230391012718E+03   -0.38919E-01   -0.37280E-01  1833   0.129E+00    0.777E-01
RMM:   3    -0.230397733041E+03   -0.67203E-02   -0.26616E-02  1887   0.283E-01    0.103E+00
RMM:   4    -0.230383495006E+03    0.14238E-01   -0.77609E-03  1842   0.149E-01    0.410E-01
RMM:   5    -0.230381811411E+03    0.16836E-02   -0.37297E-03  1837   0.104E-01    0.277E-01
RMM:   6    -0.230382074619E+03   -0.26321E-03   -0.41653E-03  1829   0.109E-01    0.273E-01
RMM:   7    -0.230381370828E+03    0.70379E-03   -0.22923E-03  1826   0.819E-02    0.134E-01
RMM:   8    -0.230381135521E+03    0.23531E-03   -0.56346E-04  1588   0.414E-02    0.705E-02
RMM:   9    -0.230381148956E+03   -0.13435E-04   -0.11864E-04   984   0.202E-02
   2 F= -.23038115E+03 E0= -.23037043E+03  d E =-.192625E+00
 BRION: g(F)=  0.170E+00 g(S)=  0.000E+00 retain N=  1 mean eig= 1.28
 eig:   1.283
 bond charge predicted
       N       E                     dE             d eps       ncg     rms          rms(c)
DAV:   1    -0.230434723591E+03   -0.53588E-01   -0.10868E+01  1840   0.629E+00    0.504E-01
RMM:   2    -0.230466546643E+03   -0.31823E-01   -0.33340E-01  1846   0.997E-01    0.503E-01
RMM:   3    -0.230467907953E+03   -0.13613E-02   -0.13134E-02  1857   0.195E-01    0.691E-01
RMM:   4    -0.230461945502E+03    0.59625E-02   -0.32662E-03  1842   0.951E-02    0.344E-01
RMM:   5    -0.230461606405E+03    0.33910E-03   -0.46797E-03  1831   0.112E-01    0.349E-01
RMM:   6    -0.230460537312E+03    0.10691E-02   -0.38759E-03  1829   0.104E-01    0.252E-01
RMM:   7    -0.230459831201E+03    0.70611E-03   -0.14591E-03  1823   0.648E-02    0.123E-01
RMM:   8    -0.230459679921E+03    0.15128E-03   -0.32367E-04  1159   0.319E-02    0.771E-02
RMM:   9    -0.230459630194E+03    0.49727E-04   -0.10289E-04   981   0.201E-02
   3 F= -.23045963E+03 E0= -.23044881E+03  d E =-.784812E-01
 BRION: g(F)=  0.278E+00 g(S)=  0.000E+00 retain N=  2 mean eig= 0.71
 eig:   0.711  0.711
 bond charge predicted
       N       E                     dE             d eps       ncg     rms          rms(c)
[mpiexec@node11] Sending Ctrl-C to processes as requested
[mpiexec@node11] Press Ctrl-C again to force abort
