<?xml version="1.0" encoding="ISO-8859-1"?>
<modeling>
 <generator>
  <i name="program" type="string"> vasp </i>
  <i name="version" type="string">5.4.4  </i>
  <i name="subversion" type="string">16052018 (build Apr 24 2014 20:13:14) complex standard parallel Constrained Minimization Technique (TS), Periodic NBO, VASPsol, libbeef, VASP2WANNIER90, Constrained Cell Relaxation </i>
  <i name="platform" type="string">Center for Computational Chemistry </i>
  <i name="user" type="string">phu </i>
  <i name="host" type="string">node11 </i>
  <i name="date" type="string">2025 11 24 </i>
  <i name="time" type="string">21:37:34 </i>
 </generator>
 <incar>
  <i type="string" name="SYSTEM"> metal</i>
  <i type="int" name="ISTART">     0</i>
  <i type="string" name="PREC">normal</i>
  <i type="string" name="ALGO">Fast</i>
  <i type="int" name="NSIM">     4</i>
  <i type="int" name="ISPIN">     1</i>
  <i type="int" name="NELMIN">     8</i>
  <i type="int" name="IBRION">     1</i>
  <i name="EDIFFG">     -0.05000000</i>
  <i type="int" name="NSW">  5000</i>
  <i type="int" name="ISIF">     2</i>
  <i type="int" name="ISYM">     0</i>
  <i name="ENCUT">    450.00000000</i>
  <i name="POTIM">      0.20000000</i>
  <i type="string" name="LREAL">A</i>
  <i type="int" name="ISMEAR">     1</i>
  <i name="SIGMA">      0.20000000</i>
  <i type="logical" name="LWAVE"> F  </i>
  <i type="logical" name="LCHARG"> F  </i>
  <v type="int" name="KPOINT_BSE">    -1     0     0     0</v>
  <i type="int" name="VOSKOWN">     0</i>
 </incar>
 <structure name="primitive_cell" >
  <crystal>
   <varray name="basis" >
    <v>       7.29695512      -4.21289900       0.00000000 </v>
    <v>       0.00000000       8.42579800       0.00000000 </v>
    <v>       0.00000000       0.00000000      21.87963500 </v>
   </varray>
   <i name="volume">   1345.21837528 </i>
   <varray name="rec_basis" >
    <v>       0.13704346       0.00000000       0.00000000 </v>
    <v>       0.06852173       0.11868312       0.00000000 </v>
    <v>       0.00000000       0.00000000       0.04570460 </v>
   </varray>
  </crystal>
  <varray name="positions" >
   <v>      -0.30173157       0.43488578       0.47351572 </v>
   <v>      -0.32986812       0.46174166      -0.47659575 </v>
   <v>      -0.35480922       0.32136942       0.39025980 </v>
   <v>      -0.09172989       0.38347151       0.46039655 </v>
   <v>      -0.34088213      -0.33244390       0.38496713 </v>
   <v>      -0.00959790      -0.33482828       0.38844082 </v>
   <v>       0.32532174       0.32808153       0.38811540 </v>
   <v>      -0.00269897       0.31780589       0.38971374 </v>
   <v>       0.31608821      -0.00955946       0.38496958 </v>
   <v>      -0.34519043      -0.01023370       0.38639248 </v>
   <v>      -0.23392865      -0.45361719       0.28033503 </v>
   <v>      -0.00978940      -0.00714596       0.38361113 </v>
   <v>       0.43569585       0.21767594       0.28629875 </v>
   <v>      -0.23954607       0.21866127       0.28060137 </v>
   <v>       0.31944385      -0.34047631       0.38654791 </v>
   <v>       0.43514460      -0.45219135       0.28312271 </v>
   <v>       0.09868127      -0.45433484       0.28367391 </v>
   <v>      -0.23867779      -0.11407489       0.28168507 </v>
   <v>       0.09510317      -0.11818371       0.27799886 </v>
   <v>       0.43000602      -0.11787324       0.28553239 </v>
   <v>       0.09261293       0.22037795       0.28562855 </v>
   <v>      -0.45768900       0.43970300       0.17918600 </v>
   <v>      -0.12435600       0.43970300       0.17918600 </v>
   <v>      -0.45768900       0.10636900       0.17918600 </v>
   <v>      -0.12435600      -0.22696400       0.17918600 </v>
   <v>       0.20897700       0.10636900       0.17918600 </v>
   <v>      -0.45768900      -0.22696400       0.17918600 </v>
   <v>      -0.12435600       0.10636900       0.17918600 </v>
   <v>       0.20897700      -0.22696400       0.17918600 </v>
   <v>       0.20897700       0.43970300       0.17918600 </v>
   <v>      -0.34657800       0.32859100       0.07437600 </v>
   <v>      -0.34657800      -0.33807500       0.07437600 </v>
   <v>      -0.01324500      -0.33807500       0.07437600 </v>
   <v>       0.32008800       0.32859100       0.07437600 </v>
   <v>      -0.01324500       0.32859100       0.07437600 </v>
   <v>       0.32008800      -0.00474200       0.07437600 </v>
   <v>      -0.34657800      -0.00474200       0.07437600 </v>
   <v>      -0.01324500      -0.00474200       0.07437600 </v>
   <v>       0.32008800      -0.33807500       0.07437600 </v>
  </varray>
 </structure>
 <varray name="primitive_index" >
  <v type="int" >        1 </v>
  <v type="int" >        3 </v>
  <v type="int" >       36 </v>
  <v type="int" >        2 </v>
  <v type="int" >       39 </v>
  <v type="int" >       37 </v>
  <v type="int" >       33 </v>
  <v type="int" >       38 </v>
  <v type="int" >       35 </v>
  <v type="int" >       32 </v>
  <v type="int" >       30 </v>
  <v type="int" >       34 </v>
  <v type="int" >       26 </v>
  <v type="int" >       24 </v>
  <v type="int" >       31 </v>
  <v type="int" >       29 </v>
  <v type="int" >       22 </v>
  <v type="int" >       28 </v>
  <v type="int" >       27 </v>
  <v type="int" >       23 </v>
  <v type="int" >       25 </v>
  <v type="int" >       17 </v>
  <v type="int" >       18 </v>
  <v type="int" >       14 </v>
  <v type="int" >       21 </v>
  <v type="int" >       13 </v>
  <v type="int" >       20 </v>
  <v type="int" >       15 </v>
  <v type="int" >       19 </v>
  <v type="int" >       16 </v>
  <v type="int" >        6 </v>
  <v type="int" >        9 </v>
  <v type="int" >        7 </v>
  <v type="int" >        5 </v>
  <v type="int" >        4 </v>
  <v type="int" >       10 </v>
  <v type="int" >       11 </v>
  <v type="int" >       12 </v>
  <v type="int" >        8 </v>
 </varray>
 <kpoints>
  <generation param="Gamma">
   <v type="int" name="divisions">       2        2        1 </v>
   <v name="usershift">      0.00000000       0.00000000       0.00000000 </v>
   <v name="genvec1">      0.50000000       0.00000000       0.00000000 </v>
   <v name="genvec2">     -0.00000000       0.50000000       0.00000000 </v>
   <v name="genvec3">      0.00000000       0.00000000       1.00000000 </v>
   <v name="shift">      0.00000000       0.00000000       0.00000000 </v>
  </generation>
  <varray name="kpointlist" >
   <v>       0.00000000       0.00000000       0.00000000 </v>
   <v>       0.50000000       0.00000000       0.00000000 </v>
   <v>      -0.00000000       0.50000000       0.00000000 </v>
   <v>       0.50000000       0.50000000       0.00000000 </v>
  </varray>
  <varray name="weights" >
   <v>       0.25000000 </v>
   <v>       0.25000000 </v>
   <v>       0.25000000 </v>
   <v>       0.25000000 </v>
  </varray>
 </kpoints>
 <parameters>
  <separator name="general" >
   <i type="string" name="SYSTEM">metal</i>
   <i type="logical" name="LCOMPAT"> F  </i>
  </separator>
  <separator name="electronic" >
   <i type="string" name="PREC">normal</i>
   <i name="ENMAX">    450.00000000</i>
   <i name="ENAUG">    644.87300000</i>
   <i name="EDIFF">      0.00010000</i>
   <i type="int" name="IALGO">    68</i>
   <i type="int" name="IWAVPR">    11</i>
   <i type="int" name="NBANDS">   228</i>
   <i name="NELECT">    376.00000000</i>
   <i type="int" name="TURBO">     0</i>
   <i type="int" name="IRESTART">     0</i>
   <i type="int" name="NREBOOT">     0</i>
   <i type="int" name="NMIN">     0</i>
   <i name="EREF">      0.00000000</i>
   <separator name="electronic smearing" >
    <i type="int" name="ISMEAR">     1</i>
    <i name="SIGMA">      0.20000000</i>
    <i name="KSPACING">      0.50000000</i>
    <i type="logical" name="KGAMMA"> T  </i>
   </separator>
   <separator name="electronic projectors" >
    <i type="logical" name="LREAL"> T  </i>
    <v name="ROPT">     -0.00050000     -0.00050000     -0.00050000</v>
    <i type="int" name="LMAXPAW">  -100</i>
    <i type="int" name="LMAXMIX">     2</i>
    <i type="logical" name="NLSPLINE"> F  </i>
   </separator>
   <separator name="electronic startup" >
    <i type="int" name="ISTART">     0</i>
    <i type="int" name="ICHARG">     2</i>
    <i type="int" name="INIWAV">     1</i>
   </separator>
   <separator name="electronic spin" >
    <i type="int" name="ISPIN">     1</i>
    <i type="logical" name="LNONCOLLINEAR"> F  </i>
    <v name="MAGMOM">      1.00000000      1.00000000      1.00000000      1.00000000      1.00000000      1.00000000      1.00000000      1.00000000      1.00000000      1.00000000      1.00000000      1.00000000      1.00000000      1.00000000      1.00000000      1.00000000      1.00000000      1.00000000      1.00000000      1.00000000
      1.00000000      1.00000000      1.00000000      1.00000000      1.00000000      1.00000000      1.00000000      1.00000000      1.00000000      1.00000000      1.00000000      1.00000000      1.00000000      1.00000000      1.00000000      1.00000000      1.00000000      1.00000000      1.00000000</v>
    <i name="NUPDOWN">     -1.00000000</i>
    <i type="logical" name="LSORBIT"> F  </i>
    <v name="SAXIS">      0.00000000      0.00000000      1.00000000</v>
    <i type="logical" name="LSPIRAL"> F  </i>
    <v name="QSPIRAL">      0.00000000      0.00000000      0.00000000</v>
    <i type="logical" name="LZEROZ"> F  </i>
   </separator>
   <separator name="electronic exchange-correlation" >
    <i type="logical" name="LASPH"> F  </i>
    <i type="logical" name="LMETAGGA"> F  </i>
   </separator>
   <separator name="electronic convergence" >
    <i type="int" name="NELM">    60</i>
    <i type="int" name="NELMDL">    -5</i>
    <i type="int" name="NELMIN">     8</i>
    <i name="ENINI">    450.00000000</i>
    <separator name="electronic convergence detail" >
     <i type="logical" name="LDIAG"> T  </i>
     <i type="logical" name="LSUBROT"> F  </i>
     <i name="WEIMIN">      0.00100000</i>
     <i name="EBREAK">      0.00000011</i>
     <i name="DEPER">      0.30000000</i>
     <i type="int" name="NRMM">     4</i>
     <i name="TIME">      0.40000000</i>
    </separator>
   </separator>
   <separator name="electronic mixer" >
    <i name="AMIX">      0.40000000</i>
    <i name="BMIX">      1.00000000</i>
    <i name="AMIN">      0.10000000</i>
    <i name="AMIX_MAG">      1.60000000</i>
    <i name="BMIX_MAG">      1.00000000</i>
    <separator name="electronic mixer details" >
     <i type="int" name="IMIX">     4</i>
     <i type="logical" name="MIXFIRST"> F  </i>
     <i type="int" name="MAXMIX">   -45</i>
     <i name="WC">    100.00000000</i>
     <i type="int" name="INIMIX">     1</i>
     <i type="int" name="MIXPRE">     1</i>
     <i type="int" name="MREMOVE">     5</i>
    </separator>
   </separator>
   <separator name="electronic dipolcorrection" >
    <i type="logical" name="LDIPOL"> F  </i>
    <i type="logical" name="LMONO"> F  </i>
    <i type="int" name="IDIPOL">     0</i>
    <i name="EPSILON">      1.00000000</i>
    <v name="DIPOL">   -100.00000000   -100.00000000   -100.00000000</v>
    <i name="EFIELD">      0.00000000</i>
   </separator>
  </separator>
  <separator name="grids" >
   <i type="int" name="NGX">    48</i>
   <i type="int" name="NGY">    48</i>
   <i type="int" name="NGZ">   120</i>
   <i type="int" name="NGXF">    96</i>
   <i type="int" name="NGYF">    96</i>
   <i type="int" name="NGZF">   240</i>
   <i type="logical" name="ADDGRID"> F  </i>
  </separator>
  <separator name="ionic" >
   <i type="int" name="NSW">  5000</i>
   <i type="int" name="IBRION">     1</i>
   <i type="int" name="MDALGO">     0</i>
   <i type="int" name="ISIF">     2</i>
   <i name="PSTRESS">      0.00000000</i>
   <i name="EDIFFG">     -0.05000000</i>
   <i type="int" name="NFREE">     0</i>
   <i name="POTIM">      0.20000000</i>
   <i name="SMASS">     -3.00000000</i>
   <i name="SCALEE">      1.00000000</i>
  </separator>
  <separator name="ionic md" >
   <i name="TEBEG">      0.00010000</i>
   <i name="TEEND">      0.00010000</i>
   <i type="int" name="NBLOCK">     1</i>
   <i type="int" name="KBLOCK">  5000</i>
   <i type="int" name="NPACO">   256</i>
   <i name="APACO">     16.00000000</i>
  </separator>
  <separator name="symmetry" >
   <i type="int" name="ISYM">     0</i>
   <i name="SYMPREC">      0.00001000</i>
  </separator>
  <separator name="dos" >
   <i type="int" name="LORBIT">     0</i>
   <v name="RWIGS">     -1.00000000     -1.00000000     -1.00000000</v>
   <i type="int" name="NEDOS">   301</i>
   <i name="EMIN">     10.00000000</i>
   <i name="EMAX">    -10.00000000</i>
   <i name="EFERMI">      0.00000000</i>
  </separator>
  <separator name="writing" >
   <i type="int" name="NWRITE">     2</i>
   <i type="logical" name="LWAVE"> F  </i>
   <i type="logical" name="LDOWNSAMPLE"> F  </i>
   <i type="logical" name="LCHARG"> F  </i>
   <i type="logical" name="LPARD"> F  </i>
   <i type="logical" name="LVTOT"> F  </i>
   <i type="logical" name="LVHAR"> F  </i>
   <i type="logical" name="LELF"> F  </i>
   <i type="logical" name="LOPTICS"> F  </i>
   <v name="STM">      0.00000000      0.00000000      0.00000000      0.00000000      0.00000000      0.00000000      0.00000000</v>
  </separator>
  <separator name="performance" >
   <i type="int" name="NPAR">     4</i>
   <i type="int" name="NSIM">     4</i>
   <i type="int" name="NBLK">    -1</i>
   <i type="logical" name="LPLANE"> T  </i>
   <i type="logical" name="LSCALAPACK"> T  </i>
   <i type="logical" name="LSCAAWARE"> F  </i>
   <i type="logical" name="LSCALU"> F  </i>
   <i type="logical" name="LASYNC"> F  </i>
   <i type="logical" name="LORBITALREAL"> F  </i>
  </separator>
  <separator name="miscellaneous" >
   <i type="int" name="IDIOT">     3</i>
   <i type="int" name="ISPECIAL">     0</i>
   <i type="logical" name="LMUSIC"> F  </i>
   <v name="POMASS">     12.01100000     16.00000000    195.08000000</v>
   <v name="DARWINR">      0.00000000      0.00000000      0.00000000</v>
   <v name="DARWINV">      1.00000000      1.00000000      1.00000000</v>
   <i type="logical" name="LCORR"> T  </i>
  </separator>
  <i type="logical" name="GGA_COMPAT"> T  </i>
  <i type="logical" name="LBERRY"> F  </i>
  <i type="int" name="ICORELEVEL">     0</i>
  <i type="logical" name="LDAU"> F  </i>
  <i type="int" name="I_CONSTRAINED_M">     0</i>
  <separator name="electronic exchange-correlation" >
   <i type="string" name="GGA">--</i>
   <i type="int" name="VOSKOWN">     0</i>
   <i type="logical" name="LHFCALC"> F  </i>
   <i type="string" name="PRECFOCK"></i>
   <i type="logical" name="LSYMGRAD"> F  </i>
   <i type="logical" name="LHFONE"> F  </i>
   <i type="logical" name="LRHFCALC"> F  </i>
   <i type="logical" name="LTHOMAS"> F  </i>
   <i type="logical" name="LMODELHF"> F  </i>
   <i name="ENCUT4O">     -1.00000000</i>
   <i type="int" name="EXXOEP">     0</i>
   <i type="int" name="FOURORBIT">     0</i>
   <i name="AEXX">      0.00000000</i>
   <i name="HFALPHA">      0.00000000</i>
   <i name="MCALPHA">      0.00000000</i>
   <i name="ALDAX">      1.00000000</i>
   <i name="AGGAX">      1.00000000</i>
   <i name="ALDAC">      1.00000000</i>
   <i name="AGGAC">      1.00000000</i>
   <i type="int" name="NKREDX">     1</i>
   <i type="int" name="NKREDY">     1</i>
   <i type="int" name="NKREDZ">     1</i>
   <i type="logical" name="SHIFTRED"> F  </i>
   <i type="logical" name="ODDONLY"> F  </i>
   <i type="logical" name="EVENONLY"> F  </i>
   <i type="int" name="LMAXFOCK">     0</i>
   <i type="int" name="NMAXFOCKAE">     0</i>
   <i type="logical" name="LFOCKAEDFT"> F  </i>
   <i name="HFSCREEN">      0.00000000</i>
   <i name="HFSCREENC">      0.00000000</i>
   <i type="int" name="NBANDSGWLOW">     0</i>
  </separator>
  <separator name="vdW DFT" >
   <i type="logical" name="LUSE_VDW"> F  </i>
   <i name="Zab_VDW">     -0.84910000</i>
   <i name="PARAM1">      0.12340000</i>
   <i name="PARAM2">      1.00000000</i>
   <i name="PARAM3">      0.00000000</i>
  </separator>
  <separator name="model GW" >
   <i type="int" name="MODEL_GW">     0</i>
   <i name="MODEL_EPS0">     20.69566731</i>
   <i name="MODEL_ALPHA">      1.00000000</i>
  </separator>
  <separator name="linear response parameters" >
   <i type="logical" name="LEPSILON"> F  </i>
   <i type="logical" name="LRPA"> F  </i>
   <i type="logical" name="LNABLA"> F  </i>
   <i type="logical" name="LVEL"> F  </i>
   <i type="int" name="KINTER">     0</i>
   <i name="CSHIFT">      0.10000000</i>
   <i name="OMEGAMAX">     -1.00000000</i>
   <i name="DEG_THRESHOLD">      0.00200000</i>
   <i name="RTIME">     -0.10000000</i>
   <i name="WPLASMAI">      0.00000000</i>
   <v name="DFIELD">      0.00000000      0.00000000      0.00000000</v>
   <v name="WPLASMA">      0.00000000      0.00000000      0.00000000      0.00000000      0.00000000      0.00000000      0.00000000      0.00000000      0.00000000</v>
  </separator>
  <separator name="orbital magnetization" >
   <i type="logical" name="NUCIND"> F  </i>
   <v name="MAGPOS">      0.00000000      0.00000000      0.00000000</v>
   <i type="logical" name="LNICSALL"> T  </i>
   <i type="logical" name="ORBITALMAG"> F  </i>
   <i type="logical" name="LMAGBLOCH"> F  </i>
   <i type="logical" name="LCHIMAG"> F  </i>
   <i type="logical" name="LGAUGE"> T  </i>
   <i type="int" name="MAGATOM">     0</i>
   <v name="MAGDIPOL">      0.00000000      0.00000000      0.00000000</v>
   <v name="AVECCONST">      0.00000000      0.00000000      0.00000000</v>
  </separator>
  <separator name="response functions" >
   <i type="logical" name="LADDER"> F  </i>
   <i type="logical" name="LRPAFORCE"> F  </i>
   <i type="logical" name="LFXC"> F  </i>
   <i type="logical" name="LHARTREE"> T  </i>
   <i type="int" name="IBSE">     0</i>
   <v type="int" name="KPOINT">    -1     0     0     0</v>
   <i type="logical" name="LTCTE"> F  </i>
   <i type="logical" name="LTETE"> F  </i>
   <i type="logical" name="LTRIPLET"> F  </i>
   <i type="logical" name="LFXCEPS"> F  </i>
   <i type="logical" name="LFXHEG"> F  </i>
   <i type="int" name="NATURALO">     2</i>
   <i type="logical" name="L2ORDER"> F  </i>
   <i type="logical" name="LMP2LT"> F  </i>
   <i type="logical" name="LUSEW"> F  </i>
   <i name="ENCUTGW">     -2.00000000</i>
   <i name="ENCUTGWSOFT">     -2.00000000</i>
   <i name="ENCUTLF">     -1.00000000</i>
   <i type="int" name="LMAXMP2">    -1</i>
   <i name="SCISSOR">      0.00000000</i>
   <i type="int" name="NOMEGA">     0</i>
   <i type="int" name="NOMEGAR">     0</i>
   <i type="int" name="NBANDSGW">    -1</i>
   <i type="int" name="NBANDSO">    -1</i>
   <i type="int" name="NBANDSV">    -1</i>
   <i type="int" name="NELM">     1</i>
   <i type="int" name="NELMHF">     1</i>
   <i type="int" name="DIM">     3</i>
   <i type="int" name="ANTIRES">     0</i>
   <i name="OMEGAMAX">    -30.00000000</i>
   <i name="OMEGAMIN">    -30.00000000</i>
   <i name="OMEGATL">   -200.00000000</i>
   <i type="int" name="OMEGAGRID">   140</i>
   <i name="CSHIFT">     -0.10000000</i>
   <i type="logical" name="SELFENERGY"> F  </i>
   <i type="logical" name="LSPECTRAL"> F  </i>
   <i type="logical" name="LSPECTRALGW"> F  </i>
   <i type="logical" name="LSINGLES"> F  </i>
   <i type="logical" name="LFERMIGW"> F  </i>
   <i type="logical" name="ODDONLYGW"> F  </i>
   <i type="logical" name="EVENONLYGW"> F  </i>
   <i type="int" name="NKREDLFX">     1</i>
   <i type="int" name="NKREDLFY">     1</i>
   <i type="int" name="NKREDLFZ">     1</i>
   <i type="int" name="MAXMEM">  2800</i>
   <i type="int" name="TELESCOPE">     0</i>
   <i type="int" name="TAUPAR">     1</i>
   <i type="int" name="OMEGAPAR">    -1</i>
   <i name="LAMBDA">      1.00000000</i>
  </separator>
  <separator name="External order field" >
   <i name="OFIELD_KAPPA">      0.00000000</i>
   <v name="OFIELD_K">      0.00000000      0.00000000      0.00000000</v>
   <i name="OFIELD_Q6_NEAR">      0.00000000</i>
   <i name="OFIELD_Q6_FAR">      0.00000000</i>
   <i name="OFIELD_A">      0.00000000</i>
  </separator>
  <separator name="solvation model" >
   <i type="logical" name="LSOL"> F  </i>
  </separator>
 </parameters>
 <atominfo>
  <atoms>      39 </atoms>
  <types>       3 </types>
  <array name="atoms" >
   <dimension dim="1">ion</dimension>
   <field type="string">element</field>
   <field type="int">atomtype</field>
   <set>
    <rc><c>C </c><c>   1</c></rc>
    <rc><c>O </c><c>   2</c></rc>
    <rc><c>O </c><c>   2</c></rc>
    <rc><c>Pt</c><c>   3</c></rc>
    <rc><c>Pt</c><c>   3</c></rc>
    <rc><c>Pt</c><c>   3</c></rc>
    <rc><c>Pt</c><c>   3</c></rc>
    <rc><c>Pt</c><c>   3</c></rc>
    <rc><c>Pt</c><c>   3</c></rc>
    <rc><c>Pt</c><c>   3</c></rc>
    <rc><c>Pt</c><c>   3</c></rc>
    <rc><c>Pt</c><c>   3</c></rc>
    <rc><c>Pt</c><c>   3</c></rc>
    <rc><c>Pt</c><c>   3</c></rc>
    <rc><c>Pt</c><c>   3</c></rc>
    <rc><c>Pt</c><c>   3</c></rc>
    <rc><c>Pt</c><c>   3</c></rc>
    <rc><c>Pt</c><c>   3</c></rc>
    <rc><c>Pt</c><c>   3</c></rc>
    <rc><c>Pt</c><c>   3</c></rc>
    <rc><c>Pt</c><c>   3</c></rc>
    <rc><c>Pt</c><c>   3</c></rc>
    <rc><c>Pt</c><c>   3</c></rc>
    <rc><c>Pt</c><c>   3</c></rc>
    <rc><c>Pt</c><c>   3</c></rc>
    <rc><c>Pt</c><c>   3</c></rc>
    <rc><c>Pt</c><c>   3</c></rc>
    <rc><c>Pt</c><c>   3</c></rc>
    <rc><c>Pt</c><c>   3</c></rc>
    <rc><c>Pt</c><c>   3</c></rc>
    <rc><c>Pt</c><c>   3</c></rc>
    <rc><c>Pt</c><c>   3</c></rc>
    <rc><c>Pt</c><c>   3</c></rc>
    <rc><c>Pt</c><c>   3</c></rc>
    <rc><c>Pt</c><c>   3</c></rc>
    <rc><c>Pt</c><c>   3</c></rc>
    <rc><c>Pt</c><c>   3</c></rc>
    <rc><c>Pt</c><c>   3</c></rc>
    <rc><c>Pt</c><c>   3</c></rc>
   </set>
  </array>
  <array name="atomtypes" >
   <dimension dim="1">type</dimension>
   <field type="int">atomspertype</field>
   <field type="string">element</field>
   <field>mass</field>
   <field>valence</field>
   <field type="string">pseudopotential</field>
   <set>
    <rc><c>   1</c><c>C </c><c>     12.01100000</c><c>      4.00000000</c><c> PAW_PBE C 08Apr2002                    </c></rc>
    <rc><c>   2</c><c>O </c><c>     16.00000000</c><c>      6.00000000</c><c> PAW_PBE O 08Apr2002                    </c></rc>
    <rc><c>  36</c><c>Pt</c><c>    195.08000000</c><c>     10.00000000</c><c>  PAW_PBE Pt 04Feb2005                  </c></rc>
   </set>
  </array>
 </atominfo>
 <structure name="initialpos" >
  <crystal>
   <varray name="basis" >
    <v>       7.29695512      -4.21289900       0.00000000 </v>
    <v>       0.00000000       8.42579800       0.00000000 </v>
    <v>       0.00000000       0.00000000      21.87963500 </v>
   </varray>
   <i name="volume">   1345.21837528 </i>
   <varray name="rec_basis" >
    <v>       0.13704346       0.00000000       0.00000000 </v>
    <v>       0.06852173       0.11868312       0.00000000 </v>
    <v>       0.00000000       0.00000000       0.04570460 </v>
   </varray>
  </crystal>
  <varray name="positions" >
   <v>       0.69826843       0.43488578       0.47351572 </v>
   <v>       0.90827011       0.38347151       0.46039655 </v>
   <v>       0.67013188       0.46174166       0.52340425 </v>
   <v>       0.98675500       0.32859100       0.07437600 </v>
   <v>       0.32008800       0.32859100       0.07437600 </v>
   <v>       0.65342200       0.32859100       0.07437600 </v>
   <v>       0.98675500       0.66192500       0.07437600 </v>
   <v>       0.32008800       0.66192500       0.07437600 </v>
   <v>       0.65342200       0.66192500       0.07437600 </v>
   <v>       0.32008800       0.99525800       0.07437600 </v>
   <v>       0.65342200       0.99525800       0.07437600 </v>
   <v>       0.98675500       0.99525800       0.07437600 </v>
   <v>       0.20897700       0.10636900       0.17918600 </v>
   <v>       0.54231100       0.10636900       0.17918600 </v>
   <v>       0.87564400       0.10636900       0.17918600 </v>
   <v>       0.20897700       0.43970300       0.17918600 </v>
   <v>       0.54231100       0.43970300       0.17918600 </v>
   <v>       0.87564400       0.43970300       0.17918600 </v>
   <v>       0.20897700       0.77303600       0.17918600 </v>
   <v>       0.54231100       0.77303600       0.17918600 </v>
   <v>       0.87564400       0.77303600       0.17918600 </v>
   <v>       0.09868127       0.54566516       0.28367391 </v>
   <v>       0.43000602       0.88212676       0.28553239 </v>
   <v>       0.76045393       0.21866127       0.28060137 </v>
   <v>       0.09261293       0.22037795       0.28562855 </v>
   <v>       0.43569585       0.21767594       0.28629875 </v>
   <v>       0.09510317       0.88181629       0.27799886 </v>
   <v>       0.76132221       0.88592511       0.28168507 </v>
   <v>       0.43514460       0.54780865       0.28312271 </v>
   <v>       0.76607135       0.54638281       0.28033503 </v>
   <v>       0.31944385       0.65952369       0.38654791 </v>
   <v>       0.65480957       0.98976630       0.38639248 </v>
   <v>       0.32532174       0.32808153       0.38811540 </v>
   <v>       0.99021060       0.99285404       0.38361113 </v>
   <v>       0.31608821       0.99044054       0.38496958 </v>
   <v>       0.64519078       0.32136942       0.39025980 </v>
   <v>       0.99040210       0.66517172       0.38844082 </v>
   <v>       0.99730103       0.31780589       0.38971374 </v>
   <v>       0.65911787       0.66755610       0.38496713 </v>
  </varray>
  <varray name="selective"  type="logical" >
   <v type="logical" >  T  T  T </v>
   <v type="logical" >  T  T  T </v>
   <v type="logical" >  T  T  T </v>
   <v type="logical" >  F  F  F </v>
   <v type="logical" >  F  F  F </v>
   <v type="logical" >  F  F  F </v>
   <v type="logical" >  F  F  F </v>
   <v type="logical" >  F  F  F </v>
   <v type="logical" >  F  F  F </v>
   <v type="logical" >  F  F  F </v>
   <v type="logical" >  F  F  F </v>
   <v type="logical" >  F  F  F </v>
   <v type="logical" >  F  F  F </v>
   <v type="logical" >  F  F  F </v>
   <v type="logical" >  F  F  F </v>
   <v type="logical" >  F  F  F </v>
   <v type="logical" >  F  F  F </v>
   <v type="logical" >  F  F  F </v>
   <v type="logical" >  F  F  F </v>
   <v type="logical" >  F  F  F </v>
   <v type="logical" >  F  F  F </v>
   <v type="logical" >  T  T  T </v>
   <v type="logical" >  T  T  T </v>
   <v type="logical" >  T  T  T </v>
   <v type="logical" >  T  T  T </v>
   <v type="logical" >  T  T  T </v>
   <v type="logical" >  T  T  T </v>
   <v type="logical" >  T  T  T </v>
   <v type="logical" >  T  T  T </v>
   <v type="logical" >  T  T  T </v>
   <v type="logical" >  T  T  T </v>
   <v type="logical" >  T  T  T </v>
   <v type="logical" >  T  T  T </v>
   <v type="logical" >  T  T  T </v>
   <v type="logical" >  T  T  T </v>
   <v type="logical" >  T  T  T </v>
   <v type="logical" >  T  T  T </v>
   <v type="logical" >  T  T  T </v>
   <v type="logical" >  T  T  T </v>
  </varray>
  <nose>
   <v>      -3.00000000       0.00000000       0.00010000       0.00010000 </v>
  </nose>
 </structure>
 <calculation>
  <scstep>
   <time name="dav">   11.59   11.69</time>
   <time name="total">   11.78   12.83</time>
   <energy>
    <i name="alphaZ">    975.10247152 </i>
    <i name="ewald">  92326.25249097 </i>
    <i name="hartreedc">-121411.44643232 </i>
    <i name="XCdc">    190.24531121 </i>
    <i name="pawpsdc">  24789.08602224 </i>
    <i name="pawaedc"> -23775.73976456 </i>
    <i name="eentropy">     -0.00628647 </i>
    <i name="bandstr">   2072.44086376 </i>
    <i name="atom">  27259.89416086 </i>
    <i name="e_fr_energy">   2425.82883720 </i>
    <i name="e_wo_entrp">   2425.83512368 </i>
    <i name="e_0_energy">   2425.83093269 </i>
   </energy>
  </scstep>
  <scstep>
   <time name="dav">   12.92   13.07</time>
   <time name="total">   12.92   13.07</time>
   <energy>
    <i name="e_fr_energy">    -63.27594667 </i>
    <i name="e_wo_entrp">    -63.27307285 </i>
    <i name="e_0_energy">    -63.27498873 </i>
   </energy>
  </scstep>
  <scstep>
   <time name="dav">   13.19   13.30</time>
   <time name="total">   13.19   13.30</time>
   <energy>
    <i name="e_fr_energy">   -240.46281932 </i>
    <i name="e_wo_entrp">   -240.46139104 </i>
    <i name="e_0_energy">   -240.46234323 </i>
   </energy>
  </scstep>
  <scstep>
   <time name="dav">   14.41   14.51</time>
   <time name="total">   14.41   14.51</time>
   <energy>
    <i name="e_fr_energy">   -248.21127956 </i>
    <i name="e_wo_entrp">   -248.21548482 </i>
    <i name="e_0_energy">   -248.21268131 </i>
   </energy>
  </scstep>
  <scstep>
   <time name="dav">   13.94   14.04</time>
   <time name="total">   14.67   14.77</time>
   <energy>
    <i name="e_fr_energy">   -248.42970706 </i>
    <i name="e_wo_entrp">   -248.43406227 </i>
    <i name="e_0_energy">   -248.43115880 </i>
   </energy>
  </scstep>
  <scstep>
   <time name="diag">    2.01    2.02</time>
   <time name="diis">    7.04    7.09</time>
   <time name="orth">    0.24    0.24</time>
   <time name="total">    9.96   10.97</time>
   <energy>
    <i name="e_fr_energy">   -246.55737990 </i>
    <i name="e_wo_entrp">   -246.42415154 </i>
    <i name="e_0_energy">   -246.51297044 </i>
   </energy>
  </scstep>
  <scstep>
   <time name="diag">    1.89    1.96</time>
   <time name="diis">    6.86    6.91</time>
   <time name="orth">    0.26    0.27</time>
   <time name="total">    9.90   10.21</time>
   <energy>
    <i name="e_fr_energy">   -244.19048401 </i>
    <i name="e_wo_entrp">   -244.07521993 </i>
    <i name="e_0_energy">   -244.15206265 </i>
   </energy>
  </scstep>
  <scstep>
   <time name="diag">    1.94    1.96</time>
   <time name="diis">    6.74    6.79</time>
   <time name="orth">    0.27    0.27</time>
   <time name="total">    9.81    9.88</time>
   <energy>
    <i name="e_fr_energy">   -243.74117900 </i>
    <i name="e_wo_entrp">   -243.66790049 </i>
    <i name="e_0_energy">   -243.71675283 </i>
   </energy>
  </scstep>
  <scstep>
   <time name="diag">    1.94    1.95</time>
   <time name="diis">    7.06    7.11</time>
   <time name="orth">    0.25    0.26</time>
   <time name="total">   10.18   10.26</time>
   <energy>
    <i name="e_fr_energy">   -231.86984262 </i>
    <i name="e_wo_entrp">   -231.77645242 </i>
    <i name="e_0_energy">   -231.83871256 </i>
   </energy>
  </scstep>
  <scstep>
   <time name="diag">    1.96    1.97</time>
   <time name="diis">    6.93    6.98</time>
   <time name="orth">    0.26    0.26</time>
   <time name="total">   10.05   10.12</time>
   <energy>
    <i name="e_fr_energy">   -230.68073478 </i>
    <i name="e_wo_entrp">   -230.67538239 </i>
    <i name="e_0_energy">   -230.67895065 </i>
   </energy>
  </scstep>
  <scstep>
   <time name="diag">    1.97    1.99</time>
   <time name="diis">    6.94    6.99</time>
   <time name="orth">    0.27    0.27</time>
   <time name="total">   10.08   10.16</time>
   <energy>
    <i name="e_fr_energy">   -230.40910217 </i>
    <i name="e_wo_entrp">   -230.35654479 </i>
    <i name="e_0_energy">   -230.39158305 </i>
   </energy>
  </scstep>
  <scstep>
   <time name="diag">    1.98    2.00</time>
   <time name="diis">    7.02    7.08</time>
   <time name="orth">    0.27    0.27</time>
   <time name="total">   10.19   10.28</time>
   <energy>
    <i name="e_fr_energy">   -230.23719155 </i>
    <i name="e_wo_entrp">   -230.20087822 </i>
    <i name="e_0_energy">   -230.22508710 </i>
   </energy>
  </scstep>
  <scstep>
   <time name="diag">    1.99    2.00</time>
   <time name="diis">    6.73    6.78</time>
   <time name="orth">    0.27    0.27</time>
   <time name="total">    9.80    9.87</time>
   <energy>
    <i name="e_fr_energy">   -230.24001820 </i>
    <i name="e_wo_entrp">   -230.21225908 </i>
    <i name="e_0_energy">   -230.23076516 </i>
   </energy>
  </scstep>
  <scstep>
   <time name="diag">    1.92    1.93</time>
   <time name="diis">    6.66    6.70</time>
   <time name="orth">    0.26    0.26</time>
   <time name="total">    9.68    9.75</time>
   <energy>
    <i name="e_fr_energy">   -230.19907005 </i>
    <i name="e_wo_entrp">   -230.16668920 </i>
    <i name="e_0_energy">   -230.18827643 </i>
   </energy>
  </scstep>
  <scstep>
   <time name="diag">    1.89    1.90</time>
   <time name="diis">    6.57    6.62</time>
   <time name="orth">    0.26    0.26</time>
   <time name="total">    9.58    9.65</time>
   <energy>
    <i name="e_fr_energy">   -230.19390726 </i>
    <i name="e_wo_entrp">   -230.16444342 </i>
    <i name="e_0_energy">   -230.18408598 </i>
   </energy>
  </scstep>
  <scstep>
   <time name="diag">    1.92    1.94</time>
   <time name="diis">    6.81    6.86</time>
   <time name="orth">    0.27    0.27</time>
   <time name="total">    9.90    9.97</time>
   <energy>
    <i name="e_fr_energy">   -230.18862598 </i>
    <i name="e_wo_entrp">   -230.15850903 </i>
    <i name="e_0_energy">   -230.17858699 </i>
   </energy>
  </scstep>
  <scstep>
   <time name="diag">    1.98    1.99</time>
   <time name="diis">    6.85    6.90</time>
   <time name="orth">    0.27    0.27</time>
   <time name="total">    9.99   10.06</time>
   <energy>
    <i name="e_fr_energy">   -230.18843286 </i>
    <i name="e_wo_entrp">   -230.15800288 </i>
    <i name="e_0_energy">   -230.17828953 </i>
   </energy>
  </scstep>
  <scstep>
   <time name="diag">    1.88    1.89</time>
   <time name="diis">    6.49    6.54</time>
   <time name="orth">    0.27    0.27</time>
   <time name="total">    8.82    8.88</time>
   <energy>
    <i name="alphaZ">    975.10247152 </i>
    <i name="ewald">  92326.25249097 </i>
    <i name="hartreedc">-121033.11932990 </i>
    <i name="XCdc">    178.83130887 </i>
    <i name="pawpsdc">  30209.45801626 </i>
    <i name="pawaedc"> -29296.32253138 </i>
    <i name="eentropy">     -0.03032348 </i>
    <i name="bandstr">   -850.25478738 </i>
    <i name="atom">  27259.89416086 </i>
    <i name="e_fr_energy">   -230.18852365 </i>
    <i name="e_wo_entrp">   -230.15820018 </i>
    <i name="e_0_energy">   -230.17841583 </i>
   </energy>
  </scstep>
  <structure>
   <crystal>
    <varray name="basis" >
     <v>       7.29695512      -4.21289900       0.00000000 </v>
     <v>       0.00000000       8.42579800       0.00000000 </v>
     <v>       0.00000000       0.00000000      21.87963500 </v>
    </varray>
    <i name="volume">   1345.21837528 </i>
    <varray name="rec_basis" >
     <v>       0.13704346       0.00000000       0.00000000 </v>
     <v>       0.06852173       0.11868312       0.00000000 </v>
     <v>       0.00000000       0.00000000       0.04570460 </v>
    </varray>
   </crystal>
   <varray name="positions" >
    <v>       0.69826843       0.43488578       0.47351572 </v>
    <v>       0.90827011       0.38347151       0.46039655 </v>
    <v>       0.67013188       0.46174166       0.52340425 </v>
    <v>       0.98675500       0.32859100       0.07437600 </v>
    <v>       0.32008800       0.32859100       0.07437600 </v>
    <v>       0.65342200       0.32859100       0.07437600 </v>
    <v>       0.98675500       0.66192500       0.07437600 </v>
    <v>       0.32008800       0.66192500       0.07437600 </v>
    <v>       0.65342200       0.66192500       0.07437600 </v>
    <v>       0.32008800       0.99525800       0.07437600 </v>
    <v>       0.65342200       0.99525800       0.07437600 </v>
    <v>       0.98675500       0.99525800       0.07437600 </v>
    <v>       0.20897700       0.10636900       0.17918600 </v>
    <v>       0.54231100       0.10636900       0.17918600 </v>
    <v>       0.87564400       0.10636900       0.17918600 </v>
    <v>       0.20897700       0.43970300       0.17918600 </v>
    <v>       0.54231100       0.43970300       0.17918600 </v>
    <v>       0.87564400       0.43970300       0.17918600 </v>
    <v>       0.20897700       0.77303600       0.17918600 </v>
    <v>       0.54231100       0.77303600       0.17918600 </v>
    <v>       0.87564400       0.77303600       0.17918600 </v>
    <v>       0.09868127       0.54566516       0.28367391 </v>
    <v>       0.43000602       0.88212676       0.28553239 </v>
    <v>       0.76045393       0.21866127       0.28060137 </v>
    <v>       0.09261293       0.22037795       0.28562855 </v>
    <v>       0.43569585       0.21767594       0.28629875 </v>
    <v>       0.09510317       0.88181629       0.27799886 </v>
    <v>       0.76132221       0.88592511       0.28168507 </v>
    <v>       0.43514460       0.54780865       0.28312271 </v>
    <v>       0.76607135       0.54638281       0.28033503 </v>
    <v>       0.31944385       0.65952369       0.38654791 </v>
    <v>       0.65480957       0.98976630       0.38639248 </v>
    <v>       0.32532174       0.32808153       0.38811540 </v>
    <v>       0.99021060       0.99285404       0.38361113 </v>
    <v>       0.31608821       0.99044054       0.38496958 </v>
    <v>       0.64519078       0.32136942       0.39025980 </v>
    <v>       0.99040210       0.66517172       0.38844082 </v>
    <v>       0.99730103       0.31780589       0.38971374 </v>
    <v>       0.65911787       0.66755610       0.38496713 </v>
   </varray>
  </structure>
  <varray name="forces" >
   <v>      -0.90833131      -0.73426074      -1.02854770 </v>
   <v>       0.49977527       0.38623839       0.54643502 </v>
   <v>       0.49618737      -0.07783798      -0.25354095 </v>
   <v>      -0.01540201      -0.03929933       0.15421221 </v>
   <v>      -0.03086627      -0.07649587       0.25235524 </v>
   <v>      -0.03117452       0.01731096       0.08672900 </v>
   <v>      -0.01008071       0.03267712       0.10971230 </v>
   <v>       0.00565736       0.03772030       0.18234779 </v>
   <v>       0.06785993      -0.00476142       0.12771044 </v>
   <v>       0.06318469      -0.05190481       0.05731328 </v>
   <v>      -0.00029338       0.01686299       0.08957920 </v>
   <v>      -0.00184926       0.02099467       0.04700055 </v>
   <v>       0.16699996       0.24800544      -0.04511194 </v>
   <v>      -0.27157866       0.00569064      -0.10320515 </v>
   <v>       0.18894605      -0.05050002      -0.26802685 </v>
   <v>       0.02415737      -0.10660080       0.03353250 </v>
   <v>      -0.16701622      -0.12229284      -0.15878758 </v>
   <v>       0.18007088      -0.04829195      -0.38414868 </v>
   <v>       0.14707448      -0.16902717      -0.20525151 </v>
   <v>      -0.13466428       0.06559537      -0.04390088 </v>
   <v>      -0.16185831       0.17491846      -0.58744502 </v>
   <v>      -0.02288021       0.42519391      -0.15433504 </v>
   <v>      -0.06578934      -0.05844491      -0.89486977 </v>
   <v>       0.16510375      -0.33397165       0.69735683 </v>
   <v>       0.36787178      -0.26849502      -0.72635547 </v>
   <v>      -0.40094902       0.07475396      -0.96342691 </v>
   <v>       0.09183507      -0.16521373       1.03105589 </v>
   <v>       0.17526993      -0.32585051      -0.17743482 </v>
   <v>      -0.29852060       0.25093362      -0.15130135 </v>
   <v>       0.10705752       0.42702461       0.54808328 </v>
   <v>       0.26725465      -0.05516657       0.09798715 </v>
   <v>      -0.10894765       0.22711708      -0.02680524 </v>
   <v>      -0.19585427       0.05868964      -0.06251229 </v>
   <v>      -0.07648156      -0.32011130       0.47702566 </v>
   <v>      -0.07797724      -0.17663861       0.47669435 </v>
   <v>      -0.01913089       0.76657756       1.20061852 </v>
   <v>       0.13531857       0.13125770      -0.45513737 </v>
   <v>      -0.07859632      -0.00224141       0.31543585 </v>
   <v>      -0.07138257      -0.18015579       0.15895946 </v>
  </varray>
  <varray name="stress" >
   <v>     -38.37870101       0.39121417       0.23851366 </v>
   <v>       0.39121414     -40.49603031      -0.43467201 </v>
   <v>       0.23851366      -0.43467212       0.06198934 </v>
  </varray>
  <energy>
   <i name="e_fr_energy">   -230.18852365 </i>
   <i name="e_wo_entrp">   -230.17841583 </i>
   <i name="e_0_energy">     -0.03032348 </i>
  </energy>
  <time name="totalsc">  210.85  214.85</time>
 </calculation>
 <calculation>
  <scstep>
   <time name="dav">   11.50   11.61</time>
   <time name="total">   12.38   12.54</time>
   <energy>
    <i name="alphaZ">    975.10247152 </i>
    <i name="ewald">  92258.97646810 </i>
    <i name="hartreedc">-120968.27416264 </i>
    <i name="XCdc">    178.76295572 </i>
    <i name="pawpsdc">  30207.67020406 </i>
    <i name="pawaedc"> -29294.48203643 </i>
    <i name="eentropy">     -0.03103923 </i>
    <i name="bandstr">   -847.97111545 </i>
    <i name="atom">  27259.89416086 </i>
    <i name="e_fr_energy">   -230.35209349 </i>
    <i name="e_wo_entrp">   -230.32105426 </i>
    <i name="e_0_energy">   -230.34174708 </i>
   </energy>
  </scstep>
  <scstep>
   <time name="diag">    1.94    1.95</time>
   <time name="diis">    6.74    6.79</time>
   <time name="orth">    0.27    0.27</time>
   <time name="total">    9.87    9.94</time>
   <energy>
    <i name="e_fr_energy">   -230.39101272 </i>
    <i name="e_wo_entrp">   -230.35398044 </i>
    <i name="e_0_energy">   -230.37866863 </i>
   </energy>
  </scstep>
  <scstep>
   <time name="diag">    1.93    1.94</time>
   <time name="diis">    6.91    6.97</time>
   <time name="orth">    0.26    0.27</time>
   <time name="total">    9.94   10.02</time>
   <energy>
    <i name="e_fr_energy">   -230.39773304 </i>
    <i name="e_wo_entrp">   -230.37123118 </i>
    <i name="e_0_energy">   -230.38889909 </i>
   </energy>
  </scstep>
  <scstep>
   <time name="diag">    1.81    1.83</time>
   <time name="diis">    6.75    6.80</time>
   <time name="orth">    0.27    0.27</time>
   <time name="total">    9.68    9.76</time>
   <energy>
    <i name="e_fr_energy">   -230.38349501 </i>
    <i name="e_wo_entrp">   -230.35082087 </i>
    <i name="e_0_energy">   -230.37260363 </i>
   </energy>
  </scstep>
  <scstep>
   <time name="diag">    1.95    1.96</time>
   <time name="diis">    6.71    6.77</time>
   <time name="orth">    0.27    0.27</time>
   <time name="total">    9.82    9.89</time>
   <energy>
    <i name="e_fr_energy">   -230.38181141 </i>
    <i name="e_wo_entrp">   -230.34924534 </i>
    <i name="e_0_energy">   -230.37095606 </i>
   </energy>
  </scstep>
  <scstep>
   <time name="diag">    1.94    1.95</time>
   <time name="diis">    6.76    6.81</time>
   <time name="orth">    0.26    0.26</time>
   <time name="total">    9.94   10.01</time>
   <energy>
    <i name="e_fr_energy">   -230.38207462 </i>
    <i name="e_wo_entrp">   -230.35014403 </i>
    <i name="e_0_energy">   -230.37143109 </i>
   </energy>
  </scstep>
  <scstep>
   <time name="diag">    1.91    1.92</time>
   <time name="diis">    6.60    6.65</time>
   <time name="orth">    0.26    0.26</time>
   <time name="total">    9.63    9.70</time>
   <energy>
    <i name="e_fr_energy">   -230.38137083 </i>
    <i name="e_wo_entrp">   -230.34913115 </i>
    <i name="e_0_energy">   -230.37062427 </i>
   </energy>
  </scstep>
  <scstep>
   <time name="diag">    1.99    2.00</time>
   <time name="diis">    6.04    6.09</time>
   <time name="orth">    0.26    0.26</time>
   <time name="total">    9.12    9.19</time>
   <energy>
    <i name="e_fr_energy">   -230.38113552 </i>
    <i name="e_wo_entrp">   -230.34846147 </i>
    <i name="e_0_energy">   -230.37024417 </i>
   </energy>
  </scstep>
  <scstep>
   <time name="diag">    1.90    1.92</time>
   <time name="diis">    3.96    3.99</time>
   <time name="orth">    0.27    0.27</time>
   <time name="total">    6.31    6.35</time>
   <energy>
    <i name="alphaZ">    975.10247152 </i>
    <i name="ewald">  92258.97646810 </i>
    <i name="hartreedc">-120966.30314303 </i>
    <i name="XCdc">    178.73753646 </i>
    <i name="pawpsdc">  30191.55342190 </i>
    <i name="pawaedc"> -29278.27244508 </i>
    <i name="eentropy">     -0.03216737 </i>
    <i name="bandstr">   -850.03745232 </i>
    <i name="atom">  27259.89416086 </i>
    <i name="e_fr_energy">   -230.38114896 </i>
    <i name="e_wo_entrp">   -230.34898158 </i>
    <i name="e_0_energy">   -230.37042650 </i>
   </energy>
  </scstep>
  <structure>
   <crystal>
    <varray name="basis" >
     <v>       7.29695512      -4.21289900       0.00000000 </v>
     <v>       0.00000000       8.42579800       0.00000000 </v>
     <v>       0.00000000       0.00000000      21.87963500 </v>
    </varray>
    <i name="volume">   1345.21837528 </i>
    <varray name="rec_basis" >
     <v>       0.13704346       0.00000000       0.00000000 </v>
     <v>       0.06852173       0.11868312       0.00000000 </v>
     <v>       0.00000000       0.00000000       0.04570460 </v>
    </varray>
   </crystal>
   <varray name="positions" >
    <v>       0.69586631       0.43200309       0.47260857 </v>
    <v>       0.90959178       0.38501693       0.46087849 </v>
    <v>       0.67144407       0.46221949       0.52318064 </v>
    <v>       0.98675500       0.32859100       0.07437600 </v>
    <v>       0.32008800       0.32859100       0.07437600 </v>
    <v>       0.65342200       0.32859100       0.07437600 </v>
    <v>       0.98675500       0.66192500       0.07437600 </v>
    <v>       0.32008800       0.66192500       0.07437600 </v>
    <v>       0.65342200       0.66192500       0.07437600 </v>
    <v>       0.32008800       0.99525800       0.07437600 </v>
    <v>       0.65342200       0.99525800       0.07437600 </v>
    <v>       0.98675500       0.99525800       0.07437600 </v>
    <v>       0.20897700       0.10636900       0.17918600 </v>
    <v>       0.54231100       0.10636900       0.17918600 </v>
    <v>       0.87564400       0.10636900       0.17918600 </v>
    <v>       0.20897700       0.43970300       0.17918600 </v>
    <v>       0.54231100       0.43970300       0.17918600 </v>
    <v>       0.87564400       0.43970300       0.17918600 </v>
    <v>       0.20897700       0.77303600       0.17918600 </v>
    <v>       0.54231100       0.77303600       0.17918600 </v>
    <v>       0.87564400       0.77303600       0.17918600 </v>
    <v>       0.09862076       0.54660870       0.28353780 </v>
    <v>       0.42983204       0.88190592       0.28474315 </v>
    <v>       0.76089055       0.21811471       0.28121642 </v>
    <v>       0.09358578       0.22024945       0.28498793 </v>
    <v>       0.43463553       0.21731698       0.28544904 </v>
    <v>       0.09534604       0.88155934       0.27890821 </v>
    <v>       0.76178571       0.88541059       0.28152858 </v>
    <v>       0.43435516       0.54798862       0.28298927 </v>
    <v>       0.76635447       0.54750236       0.28081842 </v>
    <v>       0.32015061       0.65975073       0.38663433 </v>
    <v>       0.65452146       0.99014239       0.38636884 </v>
    <v>       0.32480379       0.32795697       0.38806027 </v>
    <v>       0.99000834       0.99201978       0.38403185 </v>
    <v>       0.31588200       0.98993289       0.38539001 </v>
    <v>       0.64514018       0.32309977       0.39131870 </v>
    <v>       0.99075995       0.66565126       0.38803940 </v>
    <v>       0.99709318       0.31769683       0.38999195 </v>
    <v>       0.65892909       0.66704912       0.38510732 </v>
   </varray>
  </structure>
  <varray name="forces" >
   <v>      -0.94577850      -0.27451586       0.62475403 </v>
   <v>       0.54360191       0.35598944       0.42131779 </v>
   <v>       0.61035544      -0.40708581      -1.38660059 </v>
   <v>      -0.00938383      -0.03922217       0.15152300 </v>
   <v>      -0.03097139      -0.06785369       0.22339735 </v>
   <v>      -0.03068986       0.01150313       0.09714850 </v>
   <v>      -0.00489391       0.03531564       0.11584889 </v>
   <v>       0.00459288       0.03053186       0.17647290 </v>
   <v>       0.05606725      -0.00688128       0.12872655 </v>
   <v>       0.05597963      -0.05015822       0.05685810 </v>
   <v>      -0.00062461       0.02111978       0.09759694 </v>
   <v>       0.00536988       0.01854840       0.03916125 </v>
   <v>       0.11627179       0.18691768      -0.07348883 </v>
   <v>      -0.21290948       0.01348614      -0.10333084 </v>
   <v>       0.17273007      -0.04070800      -0.27859207 </v>
   <v>       0.01600213      -0.08618433      -0.00642663 </v>
   <v>      -0.12730561      -0.10461015      -0.14295709 </v>
   <v>       0.13626628      -0.04702217      -0.29448554 </v>
   <v>       0.10413341      -0.12400426      -0.20942891 </v>
   <v>      -0.11305479       0.05054990      -0.09004736 </v>
   <v>      -0.10281068       0.15515475      -0.54612801 </v>
   <v>      -0.04453742       0.28027320      -0.10815171 </v>
   <v>      -0.02936271      -0.01715687      -0.66471970 </v>
   <v>       0.11895272      -0.20317462       0.61673399 </v>
   <v>       0.25439999      -0.20556693      -0.49308233 </v>
   <v>      -0.26354556       0.03285304      -0.65691164 </v>
   <v>       0.09052291      -0.11595926       0.76540021 </v>
   <v>       0.15706744      -0.25192946      -0.09052616 </v>
   <v>      -0.23110000       0.20775580      -0.10798444 </v>
   <v>       0.02379387       0.26963212       0.43088440 </v>
   <v>       0.24537470      -0.02875870       0.03828206 </v>
   <v>      -0.12044377       0.18890985      -0.06715327 </v>
   <v>      -0.18818838       0.01468857      -0.11132808 </v>
   <v>      -0.07838801      -0.16601424       0.40828261 </v>
   <v>       0.05085187      -0.12659588       0.35078375 </v>
   <v>      -0.20515066       0.52231109       0.64613168 </v>
   <v>       0.14262487       0.05626811      -0.35948496 </v>
   <v>      -0.07050947      -0.01444416       0.27029733 </v>
   <v>      -0.09531041      -0.07396242       0.13122685 </v>
  </varray>
  <varray name="stress" >
   <v>     -39.08472865       0.44761583       0.82151779 </v>
   <v>       0.44761593     -41.58076555      -0.64902509 </v>
   <v>       0.82151773      -0.64902509      -2.08099824 </v>
  </varray>
  <energy>
   <i name="e_fr_energy">   -230.38114896 </i>
   <i name="e_wo_entrp">   -230.37042650 </i>
   <i name="e_0_energy">     -0.03216737 </i>
  </energy>
  <time name="totalsc">  102.08  103.19</time>
 </calculation>
 <calculation>
  <scstep>
   <time name="dav">   10.88   11.00</time>
   <time name="total">   11.48   11.72</time>
   <energy>
    <i name="alphaZ">    975.10247152 </i>
    <i name="ewald">  92237.08458832 </i>
    <i name="hartreedc">-120941.43495450 </i>
    <i name="XCdc">    178.83345516 </i>
    <i name="pawpsdc">  30191.47487613 </i>
    <i name="pawaedc"> -29278.19473415 </i>
    <i name="eentropy">     -0.03244527 </i>
    <i name="bandstr">   -853.16214168 </i>
    <i name="atom">  27259.89416086 </i>
    <i name="e_fr_energy">   -230.43472359 </i>
    <i name="e_wo_entrp">   -230.40227832 </i>
    <i name="e_0_energy">   -230.42390850 </i>
   </energy>
  </scstep>
  <scstep>
   <time name="diag">    1.73    1.74</time>
   <time name="diis">    5.97    6.01</time>
   <time name="orth">    0.25    0.25</time>
   <time name="total">    8.61    8.68</time>
   <energy>
    <i name="e_fr_energy">   -230.46654664 </i>
    <i name="e_wo_entrp">   -230.43228674 </i>
    <i name="e_0_energy">   -230.45512667 </i>
   </energy>
  </scstep>
  <scstep>
   <time name="diag">    1.66    1.67</time>
   <time name="diis">    5.58    5.63</time>
   <time name="orth">    0.26    0.26</time>
   <time name="total">    8.17    8.24</time>
   <energy>
    <i name="e_fr_energy">   -230.46790795 </i>
    <i name="e_wo_entrp">   -230.43914000 </i>
    <i name="e_0_energy">   -230.45831864 </i>
   </energy>
  </scstep>
  <scstep>
   <time name="diag">    1.90    1.92</time>
   <time name="diis">    5.59    5.64</time>
   <time name="orth">    0.28    0.28</time>
   <time name="total">    8.47    8.54</time>
   <energy>
    <i name="e_fr_energy">   -230.46194550 </i>
    <i name="e_wo_entrp">   -230.42841323 </i>
    <i name="e_0_energy">   -230.45076808 </i>
   </energy>
  </scstep>
  <scstep>
   <time name="diag">    1.58    1.59</time>
   <time name="diis">    6.12    6.16</time>
   <time name="orth">    0.26    0.26</time>
   <time name="total">    8.75    8.82</time>
   <energy>
    <i name="e_fr_energy">   -230.46160641 </i>
    <i name="e_wo_entrp">   -230.42913189 </i>
    <i name="e_0_energy">   -230.45078157 </i>
   </energy>
  </scstep>
  <scstep>
   <time name="diag">    1.84    1.86</time>
   <time name="diis">    6.44    6.50</time>
   <time name="orth">    0.26    0.26</time>
   <time name="total">    9.41    9.49</time>
   <energy>
    <i name="e_fr_energy">   -230.46053731 </i>
    <i name="e_wo_entrp">   -230.42765404 </i>
    <i name="e_0_energy">   -230.44957622 </i>
   </energy>
  </scstep>
  <scstep>
   <time name="diag">    1.80    1.82</time>
   <time name="diis">    6.13    6.18</time>
   <time name="orth">    0.26    0.26</time>
   <time name="total">    8.91    8.99</time>
   <energy>
    <i name="e_fr_energy">   -230.45983120 </i>
    <i name="e_wo_entrp">   -230.42787227 </i>
    <i name="e_0_energy">   -230.44917822 </i>
   </energy>
  </scstep>
  <scstep>
   <time name="diag">    1.78    1.80</time>
   <time name="diis">    3.96    4.00</time>
   <time name="orth">    0.26    0.26</time>
   <time name="total">    6.77    6.82</time>
   <energy>
    <i name="e_fr_energy">   -230.45967992 </i>
    <i name="e_wo_entrp">   -230.42670932 </i>
    <i name="e_0_energy">   -230.44868972 </i>
   </energy>
  </scstep>
  <scstep>
   <time name="diag">    1.62    1.63</time>
   <time name="diis">    3.79    3.82</time>
   <time name="orth">    0.28    0.28</time>
   <time name="total">    5.88    5.92</time>
   <energy>
    <i name="alphaZ">    975.10247152 </i>
    <i name="ewald">  92237.08458832 </i>
    <i name="hartreedc">-120948.07630002 </i>
    <i name="XCdc">    178.92075230 </i>
    <i name="pawpsdc">  30193.79174231 </i>
    <i name="pawaedc"> -29280.51037861 </i>
    <i name="eentropy">     -0.03244659 </i>
    <i name="bandstr">   -846.63422029 </i>
    <i name="atom">  27259.89416086 </i>
    <i name="e_fr_energy">   -230.45963019 </i>
    <i name="e_wo_entrp">   -230.42718361 </i>
    <i name="e_0_energy">   -230.44881467 </i>
   </energy>
  </scstep>
  <structure>
   <crystal>
    <varray name="basis" >
     <v>       7.29695512      -4.21289900       0.00000000 </v>
     <v>       0.00000000       8.42579800       0.00000000 </v>
     <v>       0.00000000       0.00000000      21.87963500 </v>
    </varray>
    <i name="volume">   1345.21837528 </i>
    <varray name="rec_basis" >
     <v>       0.13704346       0.00000000       0.00000000 </v>
     <v>       0.06852173       0.11868312       0.00000000 </v>
     <v>       0.00000000       0.00000000       0.04570460 </v>
    </varray>
   </crystal>
   <varray name="positions" >
    <v>       0.69384809       0.43048666       0.47305320 </v>
    <v>       0.91075179       0.38625481       0.46117833 </v>
    <v>       0.67274652       0.46211840       0.52219383 </v>
    <v>       0.98675500       0.32859100       0.07437600 </v>
    <v>       0.32008800       0.32859100       0.07437600 </v>
    <v>       0.65342200       0.32859100       0.07437600 </v>
    <v>       0.98675500       0.66192500       0.07437600 </v>
    <v>       0.32008800       0.66192500       0.07437600 </v>
    <v>       0.65342200       0.66192500       0.07437600 </v>
    <v>       0.32008800       0.99525800       0.07437600 </v>
    <v>       0.65342200       0.99525800       0.07437600 </v>
    <v>       0.98675500       0.99525800       0.07437600 </v>
    <v>       0.20897700       0.10636900       0.17918600 </v>
    <v>       0.54231100       0.10636900       0.17918600 </v>
    <v>       0.87564400       0.10636900       0.17918600 </v>
    <v>       0.20897700       0.43970300       0.17918600 </v>
    <v>       0.54231100       0.43970300       0.17918600 </v>
    <v>       0.87564400       0.43970300       0.17918600 </v>
    <v>       0.20897700       0.77303600       0.17918600 </v>
    <v>       0.54231100       0.77303600       0.17918600 </v>
    <v>       0.87564400       0.77303600       0.17918600 </v>
    <v>       0.09852572       0.54707914       0.28346083 </v>
    <v>       0.42976938       0.88184288       0.28427009 </v>
    <v>       0.76114439       0.21786616       0.28165533 </v>
    <v>       0.09412865       0.22014100       0.28463702 </v>
    <v>       0.43407314       0.21709650       0.28498154 </v>
    <v>       0.09553921       0.88144163       0.27945293 </v>
    <v>       0.76212089       0.88511260       0.28146415 </v>
    <v>       0.43386200       0.54812599       0.28291242 </v>
    <v>       0.76640524       0.54802603       0.28112507 </v>
    <v>       0.32067422       0.65995939       0.38666157 </v>
    <v>       0.65426444       0.99036299       0.38632105 </v>
    <v>       0.32440221       0.32778332       0.38798104 </v>
    <v>       0.98984106       0.99162934       0.38432242 </v>
    <v>       0.31599051       0.98975319       0.38563966 </v>
    <v>       0.64470241       0.32384613       0.39177854 </v>
    <v>       0.99106430       0.66590742       0.38778357 </v>
    <v>       0.99694272       0.31759491       0.39018431 </v>
    <v>       0.65872571       0.66681074       0.38520072 </v>
   </varray>
  </structure>
  <varray name="forces" >
   <v>      -0.53741257      -1.24345310      -2.34727163 </v>
   <v>       0.60118415       0.30173478       0.27102167 </v>
   <v>       0.12959378       0.62611785       1.77250928 </v>
   <v>      -0.00721736      -0.03987223       0.15060297 </v>
   <v>      -0.03190496      -0.06398144       0.21109240 </v>
   <v>      -0.03209743       0.00844712       0.10286180 </v>
   <v>      -0.00276496       0.03874626       0.11818446 </v>
   <v>       0.00236894       0.02629614       0.17268393 </v>
   <v>       0.04909139      -0.00840092       0.12901462 </v>
   <v>       0.05115918      -0.04702952       0.05721760 </v>
   <v>       0.00103149       0.02563349       0.10259034 </v>
   <v>       0.01002865       0.01950376       0.03775897 </v>
   <v>       0.08901325       0.15264796      -0.08942368 </v>
   <v>      -0.17557973       0.02083922      -0.10666915 </v>
   <v>       0.16110371      -0.02745868      -0.27131219 </v>
   <v>       0.00896042      -0.07332423      -0.03253214 </v>
   <v>      -0.10573303      -0.09316777      -0.13718252 </v>
   <v>       0.10941081      -0.04703835      -0.24303700 </v>
   <v>       0.07760987      -0.09852546      -0.21674559 </v>
   <v>      -0.09958883       0.04251798      -0.11892855 </v>
   <v>      -0.07027949       0.14041261      -0.51805072 </v>
   <v>      -0.04972480       0.19598488      -0.08679798 </v>
   <v>      -0.01355482      -0.00406224      -0.54380782 </v>
   <v>       0.09656239      -0.14480055       0.54578942 </v>
   <v>       0.18667989      -0.16693059      -0.36603982 </v>
   <v>      -0.18865082       0.01665746      -0.51181265 </v>
   <v>       0.08487042      -0.08821813       0.63380080 </v>
   <v>       0.14015323      -0.20211501      -0.04548162 </v>
   <v>      -0.19657571       0.17897081      -0.08698087 </v>
   <v>      -0.01549942       0.19334335       0.35342562 </v>
   <v>       0.22193225      -0.01471132       0.01621960 </v>
   <v>      -0.11638880       0.16826968      -0.07383370 </v>
   <v>      -0.18748958       0.00017575      -0.13630983 </v>
   <v>      -0.07686555      -0.09686751       0.37117476 </v>
   <v>       0.09884324      -0.10389355       0.28969355 </v>
   <v>      -0.19747621       0.43770378       0.51763634 </v>
   <v>       0.13694697       0.00473748      -0.30232865 </v>
   <v>      -0.05110535      -0.01515766       0.28458752 </v>
   <v>      -0.10063459      -0.01973209       0.09668045 </v>
  </varray>
  <varray name="stress" >
   <v>     -39.26586848       0.13778047       0.18765731 </v>
   <v>       0.13778040     -41.59267909       0.72435209 </v>
   <v>       0.18765737       0.72435195       1.68279051 </v>
  </varray>
  <energy>
   <i name="e_fr_energy">   -230.45963019 </i>
   <i name="e_wo_entrp">   -230.44881467 </i>
   <i name="e_0_energy">     -0.03244659 </i>
  </energy>
  <time name="totalsc">   91.45   92.78</time>
 </calculation>
 <calculation>
  <scstep>
