metal                                   
           1
     7.296955   -4.212899    0.000000
     0.000000    8.425798    0.000000
     0.000000    0.000000   21.879635
   C    O    Pt
   1   2  36
Direct configuration=     1
   0.69826843  0.43488578  0.47351572
   0.90827011  0.38347151  0.46039655
   0.67013188  0.46174166  0.52340425
   0.98675500  0.32859100  0.07437600
   0.32008800  0.32859100  0.07437600
   0.65342200  0.32859100  0.07437600
   0.98675500  0.66192500  0.07437600
   0.32008800  0.66192500  0.07437600
   0.65342200  0.66192500  0.07437600
   0.32008800  0.99525800  0.07437600
   0.65342200  0.99525800  0.07437600
   0.98675500  0.99525800  0.07437600
   0.20897700  0.10636900  0.17918600
   0.54231100  0.10636900  0.17918600
   0.87564400  0.10636900  0.17918600
   0.20897700  0.43970300  0.17918600
   0.54231100  0.43970300  0.17918600
   0.87564400  0.43970300  0.17918600
   0.20897700  0.77303600  0.17918600
   0.54231100  0.77303600  0.17918600
   0.87564400  0.77303600  0.17918600
   0.09868127  0.54566516  0.28367391
   0.43000602  0.88212676  0.28553239
   0.76045393  0.21866127  0.28060137
   0.09261293  0.22037795  0.28562855
   0.43569585  0.21767594  0.28629875
   0.09510317  0.88181629  0.27799886
   0.76132221  0.88592511  0.28168507
   0.43514460  0.54780865  0.28312271
   0.76607135  0.54638281  0.28033503
   0.31944385  0.65952369  0.38654791
   0.65480957  0.98976630  0.38639248
   0.32532174  0.32808153  0.38811540
   0.99021060  0.99285404  0.38361113
   0.31608821  0.99044054  0.38496958
   0.64519078  0.32136942  0.39025980
   0.99040210  0.66517172  0.38844082
   0.99730103  0.31780589  0.38971374
   0.65911787  0.66755610  0.38496713
Direct configuration=     2
   0.69586631  0.43200309  0.47260857
   0.90959178  0.38501693  0.46087849
   0.67144407  0.46221949  0.52318064
   0.98675500  0.32859100  0.07437600
   0.32008800  0.32859100  0.07437600
   0.65342200  0.32859100  0.07437600
   0.98675500  0.66192500  0.07437600
   0.32008800  0.66192500  0.07437600
   0.65342200  0.66192500  0.07437600
   0.32008800  0.99525800  0.07437600
   0.65342200  0.99525800  0.07437600
   0.98675500  0.99525800  0.07437600
   0.20897700  0.10636900  0.17918600
   0.54231100  0.10636900  0.17918600
   0.87564400  0.10636900  0.17918600
   0.20897700  0.43970300  0.17918600
   0.54231100  0.43970300  0.17918600
   0.87564400  0.43970300  0.17918600
   0.20897700  0.77303600  0.17918600
   0.54231100  0.77303600  0.17918600
   0.87564400  0.77303600  0.17918600
   0.09862076  0.54660870  0.28353780
   0.42983204  0.88190592  0.28474315
   0.76089055  0.21811471  0.28121642
   0.09358578  0.22024945  0.28498793
   0.43463553  0.21731698  0.28544904
   0.09534604  0.88155934  0.27890821
   0.76178571  0.88541059  0.28152858
   0.43435516  0.54798862  0.28298927
   0.76635447  0.54750236  0.28081842
   0.32015061  0.65975073  0.38663433
   0.65452146  0.99014239  0.38636884
   0.32480379  0.32795697  0.38806027
   0.99000834  0.99201978  0.38403185
   0.31588200  0.98993289  0.38539001
   0.64514018  0.32309977  0.39131870
   0.99075995  0.66565126  0.38803940
   0.99709318  0.31769683  0.38999195
   0.65892909  0.66704912  0.38510732
Direct configuration=     3
   0.69384809  0.43048666  0.47305320
   0.91075179  0.38625481  0.46117833
   0.67274652  0.46211840  0.52219383
   0.98675500  0.32859100  0.07437600
   0.32008800  0.32859100  0.07437600
   0.65342200  0.32859100  0.07437600
   0.98675500  0.66192500  0.07437600
   0.32008800  0.66192500  0.07437600
   0.65342200  0.66192500  0.07437600
   0.32008800  0.99525800  0.07437600
   0.65342200  0.99525800  0.07437600
   0.98675500  0.99525800  0.07437600
   0.20897700  0.10636900  0.17918600
   0.54231100  0.10636900  0.17918600
   0.87564400  0.10636900  0.17918600
   0.20897700  0.43970300  0.17918600
   0.54231100  0.43970300  0.17918600
   0.87564400  0.43970300  0.17918600
   0.20897700  0.77303600  0.17918600
   0.54231100  0.77303600  0.17918600
   0.87564400  0.77303600  0.17918600
   0.09852572  0.54707914  0.28346083
   0.42976938  0.88184288  0.28427009
   0.76114439  0.21786616  0.28165533
   0.09412865  0.22014100  0.28463702
   0.43407314  0.21709650  0.28498154
   0.09553921  0.88144163  0.27945293
   0.76212089  0.88511260  0.28146415
   0.43386200  0.54812599  0.28291242
   0.76640524  0.54802603  0.28112507
   0.32067422  0.65995939  0.38666157
   0.65426444  0.99036299  0.38632105
   0.32440221  0.32778332  0.38798104
   0.98984106  0.99162934  0.38432242
   0.31599051  0.98975319  0.38563966
   0.64470241  0.32384613  0.39177854
   0.99106430  0.66590742  0.38778357
   0.99694272  0.31759491  0.39018431
   0.65872571  0.66681074  0.38520072
