 vasp.5.4.4 16052018 (build Apr 24 2014 20:13:14) complex standard
 Contain Constrained Minimization Technique (TS), Periodic NBO, VASPsol, libbeef, VASP2WANNIER90, Constrained Cell Relaxation
 executed on Center for Computational Chemistry by phu@node09 date 2025.09.27 17:19:26
 running on    8 total cores
 distrk:  each k-point on    8 cores,    1 groups
 distr:  one band on NCORES_PER_BAND=   2 cores,    4 groups


--------------------------------------------------------------------------------------------------------


 INCAR:
 POTCAR:   PAW_PBE C 08Apr2002                    
 POTCAR:   PAW_PBE O 08Apr2002                    
 POTCAR:    PAW_PBE Pt 04Feb2005                  
 POTCAR:   PAW_PBE C 08Apr2002                    
   VRHFIN =C: s2p2                                                              
   LEXCH  = PE                                                                  
   EATOM  =   147.1560 eV,   10.8157 Ry                                         
                                                                                
   TITEL  = PAW_PBE C 08Apr2002                                                 
   LULTRA =        F    use ultrasoft PP ?                                      
   IUNSCR =        0    unscreen: 0-lin 1-nonlin 2-no                           
   RPACOR =     .000    partial core radius                                     
   POMASS =   12.011; ZVAL   =    4.000    mass and valenz                      
   RCORE  =    1.500    outmost cutoff radius                                   
   RWIGS  =    1.630; RWIGS  =     .863    wigner-seitz radius (au A)           
   ENMAX  =  400.000; ENMIN  =  300.000 eV                                      
   ICORE  =        2    local potential                                         
   LCOR   =        T    correct aug charges                                     
   LPAW   =        T    paw PP                                                  
   EAUG   =  644.873                                                            
   DEXC   =     .000                                                            
   RMAX   =    2.266    core radius for proj-oper                               
   RAUG   =    1.300    factor for augmentation sphere                          
   RDEP   =    1.501    radius for radial grids                                 
   RDEPT  =    1.300    core radius for aug-charge                              
   QCUT   =   -5.516; QGAM   =   11.032    optimization parameters              
                                                                                
   Description                                                                  
     l     E      TYP  RCUT    TYP  RCUT                                        
     0   .000     23  1.200                                                     
     0   .000     23  1.200                                                     
     1   .000     23  1.500                                                     
     1  2.500     23  1.500                                                     
     2   .000      7  1.500                                                     
  local pseudopotential read in
  atomic valenz-charges read in
  non local Contribution for L=           0  read in
    real space projection operators read in
  non local Contribution for L=           0  read in
    real space projection operators read in
  non local Contribution for L=           1  read in
    real space projection operators read in
  non local Contribution for L=           1  read in
    real space projection operators read in
    PAW grid and wavefunctions read in
 
   number of l-projection  operators is LMAX  =           4
   number of lm-projection operators is LMMAX =           8
 
 POTCAR:   PAW_PBE O 08Apr2002                    
   VRHFIN =O: s2p4                                                              
   LEXCH  = PE                                                                  
   EATOM  =   432.3788 eV,   31.7789 Ry                                         
                                                                                
   TITEL  = PAW_PBE O 08Apr2002                                                 
   LULTRA =        F    use ultrasoft PP ?                                      
   IUNSCR =        0    unscreen: 0-lin 1-nonlin 2-no                           
   RPACOR =     .000    partial core radius                                     
   POMASS =   16.000; ZVAL   =    6.000    mass and valenz                      
   RCORE  =    1.520    outmost cutoff radius                                   
   RWIGS  =    1.550; RWIGS  =     .820    wigner-seitz radius (au A)           
   ENMAX  =  400.000; ENMIN  =  300.000 eV                                      
   ICORE  =        2    local potential                                         
   LCOR   =        T    correct aug charges                                     
   LPAW   =        T    paw PP                                                  
   EAUG   =  605.392                                                            
   DEXC   =     .000                                                            
   RMAX   =    2.264    core radius for proj-oper                               
   RAUG   =    1.300    factor for augmentation sphere                          
   RDEP   =    1.550    radius for radial grids                                 
   QCUT   =   -5.520; QGAM   =   11.041    optimization parameters              
                                                                                
   Description                                                                  
     l     E      TYP  RCUT    TYP  RCUT                                        
     0   .000     23  1.200                                                     
     0  -.700     23  1.200                                                     
     1   .000     23  1.520                                                     
     1   .600     23  1.520                                                     
     2   .000      7  1.500                                                     
  local pseudopotential read in
  atomic valenz-charges read in
  non local Contribution for L=           0  read in
    real space projection operators read in
  non local Contribution for L=           0  read in
    real space projection operators read in
  non local Contribution for L=           1  read in
    real space projection operators read in
  non local Contribution for L=           1  read in
    real space projection operators read in
    PAW grid and wavefunctions read in
 
   number of l-projection  operators is LMAX  =           4
   number of lm-projection operators is LMMAX =           8
 
 POTCAR:    PAW_PBE Pt 04Feb2005                  
   VRHFIN =Pt: s1d9                                                             
   LEXCH  = PE                                                                  
   EATOM  =   729.1182 eV,   53.5887 Ry                                         
                                                                                
   TITEL  = PAW_PBE Pt 04Feb2005                                                
   LULTRA =        F    use ultrasoft PP ?                                      
   IUNSCR =        1    unscreen: 0-lin 1-nonlin 2-no                           
   RPACOR =    2.330    partial core radius                                     
   POMASS =  195.080; ZVAL   =   10.000    mass and valenz                      
   RCORE  =    2.600    outmost cutoff radius                                   
   RWIGS  =    2.750; RWIGS  =    1.455    wigner-seitz radius (au A)           
   ENMAX  =  230.283; ENMIN  =  172.712 eV                                      
   ICORE  =        3    local potential                                         
   LCOR   =        T    correct aug charges                                     
   LPAW   =        T    paw PP                                                  
   EAUG   =  358.966                                                            
   DEXC   =     .000                                                            
   RMAX   =    3.038    core radius for proj-oper                               
   RAUG   =    1.300    factor for augmentation sphere                          
   RDEP   =    2.761    radius for radial grids                                 
   QCUT   =   -4.114; QGAM   =    8.228    optimization parameters              
                                                                                
   Description                                                                  
     l     E      TYP  RCUT    TYP  RCUT                                        
     2   .000     23  2.500                                                     
     2   .000     23  2.500                                                     
     0   .000     23  2.500                                                     
     0   .000     23  2.500                                                     
     1  -.200     23  2.600                                                     
     1  1.500     23  2.600                                                     
     3   .000     23  2.500                                                     
  local pseudopotential read in
  partial core-charges read in
  atomic valenz-charges read in
  non local Contribution for L=           2  read in
    real space projection operators read in
  non local Contribution for L=           2  read in
    real space projection operators read in
  non local Contribution for L=           0  read in
    real space projection operators read in
  non local Contribution for L=           0  read in
    real space projection operators read in
  non local Contribution for L=           1  read in
    real space projection operators read in
  non local Contribution for L=           1  read in
    real space projection operators read in
    PAW grid and wavefunctions read in
 
   number of l-projection  operators is LMAX  =           6
   number of lm-projection operators is LMMAX =          18
 
 Optimization of the real space projectors (new method)

 maximal supplied QI-value         = 25.13
 optimisation between [QCUT,QGAM] = [ 10.81, 21.61] = [ 32.71,130.83] Ry 
 Optimized for a Real-space Cutoff    1.23 Angstroem

   l    n(q)    QCUT    max X(q) W(low)/X(q) W(high)/X(q)  e(spline) 
   0      8    10.807     5.582    0.53E-04    0.84E-04    0.44E-07
   0      8    10.807    69.432    0.35E-03    0.71E-03    0.24E-06
   1      7    10.807     2.780    0.44E-04    0.88E-04    0.89E-07
   1      7    10.807     4.549    0.14E-03    0.28E-03    0.13E-06
 Optimization of the real space projectors (new method)

 maximal supplied QI-value         = 24.76
 optimisation between [QCUT,QGAM] = [ 10.64, 21.54] = [ 31.73,129.89] Ry 
 Optimized for a Real-space Cutoff    1.23 Angstroem

   l    n(q)    QCUT    max X(q) W(low)/X(q) W(high)/X(q)  e(spline) 
   0      8    10.645     4.192    0.69E-04    0.93E-04    0.58E-07
   0      8    10.645     8.473    0.40E-03    0.65E-03    0.17E-06
   1      7    10.645     2.474    0.80E-04    0.12E-03    0.30E-07
   1      7    10.645     3.912    0.24E-03    0.53E-03    0.16E-06
 Optimization of the real space projectors (new method)

 maximal supplied QI-value         = 14.36
 optimisation between [QCUT,QGAM] = [ 10.77, 21.69] = [ 32.49,131.70] Ry 
 Optimized for a Real-space Cutoff    1.46 Angstroem

   l    n(q)    QCUT    max X(q) W(low)/X(q) W(high)/X(q)  e(spline) 
   2      9    10.771     3.903    0.38E-04    0.12E-03    0.82E-07
   2      9    10.771    18.372    0.13E-03    0.32E-03    0.28E-06
   0     10    10.771    13.697    0.11E-04    0.86E-05    0.85E-08
   0     10    10.771    65.529    0.40E-04    0.12E-03    0.14E-06
   1      9    10.771     7.604    0.48E-04    0.31E-04    0.38E-07
   1      9    10.771    12.136    0.35E-03    0.16E-03    0.23E-06
 PAW_PBE C 08Apr2002                    :
 energy of atom  1       EATOM= -147.1560
 kinetic energy error for atom=    0.0116 (will be added to EATOM!!)
 PAW_PBE O 08Apr2002                    :
 energy of atom  2       EATOM= -432.3788
 kinetic energy error for atom=    0.0389 (will be added to EATOM!!)
  PAW_PBE Pt 04Feb2005                  :
 energy of atom  3       EATOM= -729.1182
 kinetic energy error for atom=    0.0051 (will be added to EATOM!!)
 
 
 POSCAR: C    O    Pt                            
  positions in direct lattice
  No initial velocities read in
 exchange correlation table for  LEXCH =        8
   RHO(1)=    0.500       N(1)  =     2000
   RHO(2)=  100.500       N(2)  =     4000

 VTST: version 3.2, (02/03/18)

 CHAIN: initializing optimizer
 
 OPT: Using VASP QUASI-newton optimizer
 CHAIN: Read ICHAIN            0
 
 POSCAR: C    O    Pt                            
  positions in direct lattice
  No initial velocities read in
 


--------------------------------------------------------------------------------------------------------


 ion  position               nearest neighbor table
   1  0.697  0.433  0.471-   3 1.16  36 1.84  39 2.72
   2  0.911  0.383  0.462-  38 1.90  36 2.51  37 2.71
   3  0.669  0.460  0.521-   1 1.16
   4  0.987  0.329  0.074-  15 2.81  16 2.81  12 2.81   5 2.81  11 2.81   6 2.81  18 2.81   8 2.81
                             7 2.81
   5  0.320  0.329  0.074-  13 2.81  10 2.81   4 2.81  12 2.81  16 2.81  17 2.81   8 2.81   9 2.81
                             6 2.81
   6  0.653  0.329  0.074-  14 2.81  18 2.81  11 2.81   4 2.81  17 2.81   7 2.81  10 2.81   9 2.81
                             5 2.81
   7  0.987  0.662  0.074-  18 2.81  21 2.81  19 2.81  12 2.81   8 2.81  10 2.81   9 2.81   6 2.81
                             4 2.81
   8  0.320  0.662  0.074-  16 2.81  19 2.81  10 2.81   7 2.81  20 2.81   4 2.81  11 2.81   5 2.81
                             9 2.81
   9  0.653  0.662  0.074-  17 2.81  20 2.81  21 2.81  11 2.81  12 2.81   7 2.81   6 2.81   5 2.81
                             8 2.81
  10  0.320  0.995  0.074-  13 2.81  19 2.81   5 2.81   8 2.81  12 2.81   7 2.81  14 2.81   6 2.81
                            11 2.81
  11  0.653  0.995  0.074-  14 2.81  20 2.81  15 2.81   9 2.81   6 2.81  12 2.81   4 2.81   8 2.81
                            10 2.81
  12  0.987  0.995  0.074-  15 2.81  21 2.81  13 2.81   7 2.81   4 2.81  10 2.81   5 2.81  11 2.81
                             9 2.81
  13  0.209  0.106  0.179-  25 2.78  10 2.81   5 2.81  12 2.81  19 2.81  15 2.81  21 2.81  16 2.81
                            17 2.81  14 2.81  27 2.81  26 2.84
  14  0.542  0.106  0.179-   6 2.81  11 2.81  20 2.81  15 2.81  10 2.81  18 2.81  19 2.81  17 2.81
                            13 2.81  26 2.82  23 2.82  24 2.87
  15  0.876  0.106  0.179-  28 2.74  25 2.77   4 2.81  12 2.81  11 2.81  21 2.81  13 2.81  20 2.81
                            14 2.81  16 2.81  18 2.81  24 2.88
  16  0.209  0.440  0.179-  29 2.74  25 2.74   8 2.81   4 2.81  19 2.81  18 2.81   5 2.81  15 2.81
                            20 2.81  13 2.81  17 2.81  22 2.84
  17  0.542  0.440  0.179-  29 2.73   9 2.81  20 2.81  21 2.81  18 2.81   6 2.81   5 2.81  14 2.81
                            13 2.81  16 2.81  26 2.81  30 2.82
  18  0.876  0.440  0.179-   7 2.81   6 2.81  21 2.81  19 2.81  16 2.81  17 2.81   4 2.81  14 2.81
                            15 2.81  22 2.81  30 2.82  24 2.89
  19  0.209  0.773  0.179-  23 2.80  10 2.81   8 2.81   7 2.81  16 2.81  13 2.81  21 2.81  18 2.81
                            14 2.81  20 2.81  22 2.82  27 2.82
  20  0.542  0.773  0.179-  29 2.72  28 2.75  23 2.80  11 2.81   9 2.81  17 2.81  14 2.81  21 2.81
                            15 2.81   8 2.81  16 2.81  19 2.81
  21  0.876  0.773  0.179-  28 2.75  27 2.79   7 2.81  12 2.81   9 2.81  18 2.81  15 2.81  19 2.81
                            13 2.81  17 2.81  20 2.81  30 2.81
  22  0.095  0.552  0.285-  37 2.69  31 2.75  30 2.78  23 2.79  27 2.80  25 2.80  38 2.81  18 2.81
                            19 2.82  24 2.82  16 2.84  29 2.86
  23  0.429  0.880  0.284-  31 2.73  29 2.77  35 2.79  22 2.79  20 2.80  19 2.80  28 2.80  24 2.82
                            14 2.82  26 2.84  32 2.84  27 2.84
  24  0.762  0.215  0.288-  38 2.76  26 2.77  28 2.79  32 2.81  25 2.81  23 2.82  22 2.82  30 2.83
                            14 2.87  15 2.88  36 2.88  18 2.89
  25  0.099  0.222  0.281-  16 2.74  15 2.77  33 2.77  13 2.78  22 2.80  38 2.80  29 2.81  24 2.81
                            28 2.82  27 2.83  26 2.85  34 2.93
  26  0.436  0.220  0.285-  33 2.64  24 2.77  30 2.78  35 2.80  17 2.81  29 2.82  14 2.82  23 2.84
                            13 2.84  25 2.85  27 2.86  36 2.86
  27  0.094  0.884  0.284-  37 2.73  28 2.78  30 2.79  21 2.79  22 2.80  34 2.81  13 2.81  19 2.82
                            25 2.83  35 2.84  23 2.84  26 2.86
  28  0.765  0.886  0.280-  15 2.74  20 2.75  21 2.75  27 2.78  24 2.79  29 2.80  23 2.80  30 2.81
                            25 2.82  32 2.88  34 2.90  39 2.96
  29  0.434  0.553  0.279-  20 2.72  17 2.73  16 2.74  23 2.77  31 2.79  30 2.79  28 2.80  25 2.81
                            26 2.82  33 2.82  22 2.86  39 2.98
  30  0.764  0.552  0.285-  37 2.74  26 2.78  22 2.78  27 2.79  29 2.79  28 2.81  21 2.81  17 2.82
                            18 2.82  24 2.83  39 2.86  36 2.97
  31  0.323  0.659  0.384-  23 2.73  22 2.75  32 2.76  29 2.79  39 2.80  38 2.81  35 2.82  37 2.83
                            33 2.84
  32  0.651  0.986  0.391-  39 2.76  31 2.76  35 2.78  34 2.80  24 2.81  23 2.84  36 2.85  38 2.86
                            28 2.88
  33  0.325  0.323  0.383-  26 2.64  36 2.70  25 2.77  35 2.77  29 2.82  38 2.84  31 2.84  39 2.84
                            34 2.85
  34  0.985  0.989  0.391-  39 2.76  37 2.77  32 2.80  27 2.81  38 2.81  35 2.85  33 2.85  28 2.90
                            25 2.93
  35  0.325  0.995  0.388-  36 2.71  33 2.77  32 2.78  23 2.79  26 2.80  37 2.81  31 2.82  27 2.84
                            34 2.85
  36  0.642  0.319  0.396-   1 1.84   2 2.51  33 2.70  35 2.71  39 2.83  32 2.85  26 2.86  24 2.88
                            38 2.92  37 2.92  30 2.97
  37  0.990  0.663  0.385-  22 2.69   2 2.71  27 2.73  30 2.74  34 2.77  39 2.81  35 2.81  31 2.83
                            38 2.85  36 2.92
  38  0.990  0.325  0.388-   2 1.90  24 2.76  25 2.80  22 2.81  31 2.81  34 2.81  33 2.84  37 2.85
                            32 2.86  36 2.92
  39  0.657  0.662  0.393-   1 2.72  34 2.76  32 2.76  31 2.80  37 2.81  36 2.83  33 2.84  30 2.86
                            28 2.96  29 2.98
 

IMPORTANT INFORMATION: All symmetrisations will be switched off!
NOSYMM: (Re-)initialisation of all symmetry stuff for point group C_1.

 
 
 KPOINTS: mesh auto                               

Automatic generation of k-mesh.
Space group operators:
 irot       det(A)        alpha          n_x          n_y          n_z        tau_x        tau_y        tau_z
    1     1.000000     0.000000     1.000000     0.000000     0.000000     0.000000     0.000000     0.000000
 
 Subroutine IBZKPT returns following result:
 ===========================================
 
 Found      4 irreducible k-points:
 
 Following reciprocal coordinates:
            Coordinates               Weight
  0.000000  0.000000  0.000000      1.000000
  0.500000  0.000000  0.000000      1.000000
 -0.000000  0.500000  0.000000      1.000000
  0.500000  0.500000  0.000000      1.000000
 
 Following cartesian coordinates:
            Coordinates               Weight
  0.000000  0.000000  0.000000      1.000000
  0.068522  0.000000  0.000000      1.000000
  0.034261  0.059342  0.000000      1.000000
  0.102783  0.059342  0.000000      1.000000
 


--------------------------------------------------------------------------------------------------------




 Dimension of arrays:
   k-points           NKPTS =      4   k-points in BZ     NKDIM =      4   number of bands    NBANDS=    228
   number of dos      NEDOS =    301   number of ions     NIONS =     39
   non local maximal  LDIM  =      6   non local SUM 2l+1 LMDIM =     18
   total plane-waves  NPLWV = 276480
   max r-space proj   IRMAX =   2756   max aug-charges    IRDMAX=  12646
   dimension x,y,z NGX =    48 NGY =   48 NGZ =  120
   dimension x,y,z NGXF=    96 NGYF=   96 NGZF=  240
   support grid    NGXF=    96 NGYF=   96 NGZF=  240
   ions per type =               1   2  36
   NGX,Y,Z   is equivalent  to a cutoff of   9.47,  9.47,  9.12 a.u.
   NGXF,Y,Z  is equivalent  to a cutoff of  18.94, 18.94, 18.24 a.u.

 SYSTEM =  metal                                   
 POSCAR =  C    O    Pt                            

 Startparameter for this run:
   NWRITE =      2    write-flag & timer
   PREC   = normal    normal or accurate (medium, high low for compatibility)
   ISTART =      0    job   : 0-new  1-cont  2-samecut
   ICHARG =      2    charge: 1-file 2-atom 10-const
   ISPIN  =      1    spin polarized calculation?
   LNONCOLLINEAR =      F non collinear calculations
   LSORBIT =      F    spin-orbit coupling
   INIWAV =      1    electr: 0-lowe 1-rand  2-diag
   LASPH  =      F    aspherical Exc in radial PAW
   METAGGA=      F    non-selfconsistent MetaGGA calc.

 Electronic Relaxation 1
   ENCUT  =  450.0 eV  33.07 Ry    5.75 a.u.  14.57 14.57 37.84*2*pi/ulx,y,z
   ENINI  =  450.0     initial cutoff
   ENAUG  =  644.9 eV  augmentation charge cutoff
   NELM   =     60;   NELMIN=  8; NELMDL= -5     # of ELM steps 
   EDIFF  = 0.1E-03   stopping-criterion for ELM
   LREAL  =      T    real-space projection
   NLSPLINE    = F    spline interpolate recip. space projectors
   LCOMPAT=      F    compatible to vasp.4.4
   GGA_COMPAT  = T    GGA compatible to vasp.4.4-vasp.4.6
   LMAXPAW     = -100 max onsite density
   LMAXMIX     =    2 max onsite mixed and CHGCAR
   VOSKOWN=      0    Vosko Wilk Nusair interpolation
   ROPT   =   -0.00050  -0.00050  -0.00050
 Ionic relaxation
   EDIFFG = -.5E-01   stopping-criterion for IOM
   NSW    =   5000    number of steps for IOM
   NBLOCK =      1;   KBLOCK =   5000    inner block; outer block 
   IBRION =      1    ionic relax: 0-MD 1-quasi-New 2-CG
   NFREE  =      0    steps in history (QN), initial steepest desc. (CG)
   ISIF   =      2    stress and relaxation
   IWAVPR =     11    prediction:  0-non 1-charg 2-wave 3-comb
   ISYM   =      0    0-nonsym 1-usesym 2-fastsym
   LCORR  =      T    Harris-Foulkes like correction to forces

   POTIM  = 0.2000    time-step for ionic-motion
   TEIN   =    0.0    initial temperature
   TEBEG  =    0.0;   TEEND  =   0.0 temperature during run
   SMASS  =  -3.00    Nose mass-parameter (am)
   estimated Nose-frequenzy (Omega)   =  0.10E-29 period in steps =****** mass=  -0.162E-26a.u.
   SCALEE = 1.0000    scale energy and forces
   NPACO  =    256;   APACO  = 16.0  distance and # of slots for P.C.
   PSTRESS=    0.0 pullay stress

  Mass of Ions in am
   POMASS =  12.01 16.00195.08
  Ionic Valenz
   ZVAL   =   4.00  6.00 10.00
  Atomic Wigner-Seitz radii
   RWIGS  =  -1.00 -1.00 -1.00
  virtual crystal weights 
   VCA    =   1.00  1.00  1.00
   NELECT =     376.0000    total number of electrons
   NUPDOWN=      -1.0000    fix difference up-down

 DOS related values:
   EMIN   =  10.00;   EMAX   =-10.00  energy-range for DOS
   EFERMI =   0.00
   ISMEAR =     1;   SIGMA  =   0.20  broadening in eV -4-tet -1-fermi 0-gaus

 Electronic relaxation 2 (details)
   IALGO  =     68    algorithm
   LDIAG  =      T    sub-space diagonalisation (order eigenvalues)
   LSUBROT=      F    optimize rotation matrix (better conditioning)
   TURBO    =      0    0=normal 1=particle mesh
   IRESTART =      0    0=no restart 2=restart with 2 vectors
   NREBOOT  =      0    no. of reboots
   NMIN     =      0    reboot dimension
   EREF     =   0.00    reference energy to select bands
   IMIX   =      4    mixing-type and parameters
     AMIX     =   0.40;   BMIX     =  1.00
     AMIX_MAG =   1.60;   BMIX_MAG =  1.00
     AMIN     =   0.10
     WC   =   100.;   INIMIX=   1;  MIXPRE=   1;  MAXMIX= -45

 Intra band minimization:
   WEIMIN = 0.0010     energy-eigenvalue tresh-hold
   EBREAK =  0.11E-06  absolut break condition
   DEPER  =   0.30     relativ break condition  

   TIME   =   0.40     timestep for ELM

  volume/ion in A,a.u.               =      34.49       232.77
  Fermi-wavevector in a.u.,A,eV,Ry     =   1.070385  2.022734 15.588510  1.145723
  Thomas-Fermi vector in A             =   2.206093
 
 Write flags
   LWAVE        =      F    write WAVECAR
   LDOWNSAMPLE  =      F    k-point downsampling of WAVECAR
   LCHARG       =      F    write CHGCAR
   LVTOT        =      F    write LOCPOT, total local potential
   LVHAR        =      F    write LOCPOT, Hartree potential only
   LELF         =      F    write electronic localiz. function (ELF)
   LORBIT       =      0    0 simple, 1 ext, 2 COOP (PROOUT), +10 PAW based schemes


 Dipole corrections
   LMONO  =      F    monopole corrections only (constant potential shift)
   LDIPOL =      F    correct potential (dipole corrections)
   IDIPOL =      0    1-x, 2-y, 3-z, 4-all directions 
   EPSILON=  1.0000000 bulk dielectric constant

 Exchange correlation treatment:
   GGA     =    --    GGA type
   LEXCH   =     8    internal setting for exchange type
   VOSKOWN=      0    Vosko Wilk Nusair interpolation
   LHFCALC =     F    Hartree Fock is set to
   LHFONE  =     F    Hartree Fock one center treatment
   AEXX    =    0.0000 exact exchange contribution

 Linear response parameters
   LEPSILON=     F    determine dielectric tensor
   LRPA    =     F    only Hartree local field effects (RPA)
   LNABLA  =     F    use nabla operator in PAW spheres
   LVEL    =     F    velocity operator in full k-point grid
   LINTERFAST=   F  fast interpolation
   KINTER  =     0    interpolate to denser k-point grid
   CSHIFT  =0.1000    complex shift for real part using Kramers Kronig
   OMEGAMAX=  -1.0    maximum frequency
   DEG_THRESHOLD= 0.2000000E-02 threshold for treating states as degnerate
   RTIME   =   -0.100 relaxation time in fs
  (WPLASMAI=    0.000 imaginary part of plasma frequency in eV, 0.658/RTIME)
   DFIELD  = 0.0000000 0.0000000 0.0000000 field for delta impulse in time
 
 Orbital magnetization related:
   ORBITALMAG=     F  switch on orbital magnetization
   LCHIMAG   =     F  perturbation theory with respect to B field
   DQ        =  0.001000  dq finite difference perturbation B field
   LLRAUG    =     F  two centre corrections for induced B field



--------------------------------------------------------------------------------------------------------


 quasi-Newton-method for relaxation of ions
   using selective dynamics as specified on POSCAR
 charge density and potential will be updated during run
 non-spin polarized calculation
 RMM-DIIS sequential band-by-band and
  variant of blocked Davidson during initial phase
 perform sub-space diagonalisation
    before iterative eigenvector-optimisation
 modified Broyden-mixing scheme, WC =      100.0
 initial mixing is a Kerker type mixing with AMIX =  0.4000 and BMIX =      1.0000
 Hartree-type preconditioning will be used
 using additional bands           40
 real space projection scheme for non local part
 use partial core corrections
 calculate Harris-corrections to forces 
   (improved forces if not selfconsistent)
 use gradient corrections 
 use of overlap-Matrix (Vanderbilt PP)
 Methfessel and Paxton  Order N= 1 SIGMA  =   0.20


--------------------------------------------------------------------------------------------------------


  energy-cutoff  :      450.00
  volume of cell :     1345.22
      direct lattice vectors                 reciprocal lattice vectors
     7.296955120 -4.212899000  0.000000000     0.137043463  0.000000000  0.000000000
     0.000000000  8.425798000  0.000000000     0.068521732  0.118683121  0.000000000
     0.000000000  0.000000000 21.879635000     0.000000000  0.000000000  0.045704602

  length of vectors
     8.425798004  8.425798000 21.879635000     0.137043463  0.137043463  0.045704602


 
 k-points in units of 2pi/SCALE and weight: mesh auto                               
   0.00000000  0.00000000  0.00000000       0.250
   0.06852173  0.00000000  0.00000000       0.250
   0.03426087  0.05934156  0.00000000       0.250
   0.10278260  0.05934156  0.00000000       0.250
 
 k-points in reciprocal lattice and weights: mesh auto                               
   0.00000000  0.00000000  0.00000000       0.250
   0.50000000  0.00000000  0.00000000       0.250
  -0.00000000  0.50000000  0.00000000       0.250
   0.50000000  0.50000000  0.00000000       0.250
 
 position of ions in fractional coordinates (direct lattice) 
   0.69734458  0.43346697  0.47131055
   0.91104120  0.38276265  0.46229948
   0.66920803  0.46032285  0.52119908
   0.98675500  0.32859100  0.07437600
   0.32008800  0.32859100  0.07437600
   0.65342200  0.32859100  0.07437600
   0.98675500  0.66192500  0.07437600
   0.32008800  0.66192500  0.07437600
   0.65342200  0.66192500  0.07437600
   0.32008800  0.99525800  0.07437600
   0.65342200  0.99525800  0.07437600
   0.98675500  0.99525800  0.07437600
   0.20897700  0.10636900  0.17918600
   0.54231100  0.10636900  0.17918600
   0.87564400  0.10636900  0.17918600
   0.20897700  0.43970300  0.17918600
   0.54231100  0.43970300  0.17918600
   0.87564400  0.43970300  0.17918600
   0.20897700  0.77303600  0.17918600
   0.54231100  0.77303600  0.17918600
   0.87564400  0.77303600  0.17918600
   0.09470608  0.55223004  0.28473395
   0.42947976  0.87992463  0.28385856
   0.76195711  0.21539228  0.28785614
   0.09873957  0.22199802  0.28133872
   0.43596423  0.22034263  0.28489486
   0.09380744  0.88361494  0.28402146
   0.76522174  0.88601493  0.28033574
   0.43405997  0.55336620  0.27935475
   0.76417584  0.55176453  0.28454026
   0.32341976  0.65861300  0.38435847
   0.65056644  0.98605671  0.39082092
   0.32514047  0.32258668  0.38260457
   0.98471572  0.98857847  0.39056572
   0.32540196  0.99468211  0.38845277
   0.64174582  0.31940904  0.39618348
   0.98973860  0.66280425  0.38455818
   0.99003413  0.32513935  0.38823022
   0.65712792  0.66216004  0.39337020
 
 position of ions in cartesian coordinates  (Angst):
   5.08849208  0.71446284 10.31210282
   6.64782672 -0.61304380 10.11494387
   4.88318097  1.05928150 11.40364569
   7.20030695 -1.38845776  1.62731973
   2.33566777  1.42014298  1.62731973
   4.76799101  0.01584050  1.62731973
   7.20030695  1.42014719  1.62731973
   2.33566777  4.22874793  1.62731973
   4.76799101  2.82444545  1.62731973
   2.33566777  7.03734445  1.62731973
   4.76799101  5.63304198  1.62731973
   7.20030695  4.22874371  1.62731973
   1.52489579  0.01584471  3.92052428
   3.95721903 -1.38845776  3.92052428
   6.38953497 -2.79275602  3.92052428
   1.52489579  2.82444966  3.92052428
   3.95721903  1.42014719  3.92052428
   6.38953497  0.01584893  3.92052428
   1.52489579  5.63304619  3.92052428
   3.95721903  4.22874371  3.92052428
   6.38953497  2.82444545  3.92052428
   0.69106601  4.25399165  6.22987487
   3.13389453  5.60471232  6.21072166
   5.55996680 -1.39519653  6.29818727
   0.72049818  1.45453061  6.15558842
   3.18121145  0.01988923  6.23339565
   0.68450867  7.04995974  6.21428592
   5.58378867  4.24158096  6.13364358
   3.16731609  2.83390106  6.11217986
   5.57615682  1.42966083  6.22563714
   2.35997947  4.18680534  8.40962294
   4.74715410  5.56754398  8.55101912
   2.37253545  1.34826621  8.37124829
   7.18542642  4.18105461  8.54543529
   2.37444353  7.01010495  8.49920482
   4.68279048 -0.01233431  8.66835001
   7.22207812  1.41498599  8.41399270
   7.22423465 -1.43135536  8.49433556
   4.79503290  2.81081321  8.60679645
 


--------------------------------------------------------------------------------------------------------


 k-point  1 :   0.0000 0.0000 0.0000  plane waves:   29241
 k-point  2 :   0.5000 0.0000 0.0000  plane waves:   29108
 k-point  3 :  -0.0000 0.5000 0.0000  plane waves:   29108
 k-point  4 :   0.5000 0.5000 0.0000  plane waves:   29108

 maximum and minimum number of plane-waves per node :     14624    14548

 maximum number of plane-waves:     29241
 maximum index in each direction: 
   IXMAX=   14   IYMAX=   14   IZMAX=   37
   IXMIN=  -15   IYMIN=  -15   IZMIN=  -37


 real space projection operators:
  total allocation   :      13551.73 KBytes
  max/ min on nodes  :       6781.44       6770.30


 parallel 3D FFT for wavefunctions:
    minimum data exchange during FFTs selected (reduces bandwidth)
 parallel 3D FFT for charge:
    minimum data exchange during FFTs selected (reduces bandwidth)


 total amount of memory used by VASP MPI-rank0   131947. kBytes
=======================================================================

   base      :      30000. kBytes
   nonlr-proj:      10139. kBytes
   fftplans  :      13556. kBytes
   grid      :      23353. kBytes
   one-center:        311. kBytes
   wavefun   :      54588. kBytes
 
     INWAV:  cpu time    0.0001: real time    0.0001
 Broyden mixing: mesh for mixing (old mesh)
   NGX = 29   NGY = 29   NGZ = 75
  (NGX  = 96   NGY  = 96   NGZ  =240)
  gives a total of  63075 points

 initial charge density was supplied:
 charge density of overlapping atoms calculated
 number of electron     376.0000000 magnetization 
 keeping initial charge density in first step


--------------------------------------------------------------------------------------------------------


 Maximum index for non-local projection operator         1316
 Maximum index for augmentation-charges         1558 (set IRDMAX)


--------------------------------------------------------------------------------------------------------


 First call to EWALD:  gamma=   0.161
 Maximum number of real-space cells 4x 4x 2
 Maximum number of reciprocal cells 2x 2x 5

    FEWALD:  cpu time    0.0023: real time    0.0023


--------------------------------------- Iteration      1(   1)  ---------------------------------------


    POTLOK:  cpu time    0.1845: real time    0.2359
    SETDIJ:  cpu time    0.0192: real time    0.0194
     EDDAV:  cpu time   11.7337: real time   11.8113
       DOS:  cpu time    0.0010: real time    0.0010
    --------------------------------------------
      LOOP:  cpu time   11.9384: real time   12.0675

 eigenvalue-minimisations  :  1824
 total energy-change (2. order) : 0.2424078E+04  (-0.1595498E+05)
 number of electron     376.0000000 magnetization 
 augmentation part      376.0000000 magnetization 

 Free energy of the ion-electron system (eV)
  ---------------------------------------------------
  alpha Z        PSCENC =       975.10247152
  Ewald energy   TEWEN  =     91555.91572140
  -Hartree energ DENC   =   -120642.21525091
  -exchange      EXHF   =         0.00000000
  -V(xc)+E(xc)   XCENC  =       189.93874775
  PAW double counting   =     24789.08602224   -23775.73976456
  entropy T*S    EENTRO =        -0.02075075
  eigenvalues    EBANDS =      2072.11683417
  atomic energy  EATOM  =     27259.89416086
  Solvation  Ediel_sol  =         0.00000000
  ---------------------------------------------------
  free energy    TOTEN  =      2424.07819172 eV

  energy without entropy =     2424.09894247  energy(sigma->0) =     2424.08510864


--------------------------------------------------------------------------------------------------------




--------------------------------------- Iteration      1(   2)  ---------------------------------------


     EDDAV:  cpu time   13.3317: real time   13.4264
       DOS:  cpu time    0.0010: real time    0.0010
    --------------------------------------------
      LOOP:  cpu time   13.3327: real time   13.4274

 eigenvalue-minimisations  :  2120
 total energy-change (2. order) :-0.2487646E+04  (-0.2311244E+04)
 number of electron     376.0000000 magnetization 
 augmentation part      376.0000000 magnetization 

 Free energy of the ion-electron system (eV)
  ---------------------------------------------------
  alpha Z        PSCENC =       975.10247152
  Ewald energy   TEWEN  =     91555.91572140
  -Hartree energ DENC   =   -120642.21525091
  -exchange      EXHF   =         0.00000000
  -V(xc)+E(xc)   XCENC  =       189.93874775
  PAW double counting   =     24789.08602224   -23775.73976456
  entropy T*S    EENTRO =        -0.00286095
  eigenvalues    EBANDS =      -415.54724407
  atomic energy  EATOM  =     27259.89416086
  Solvation  Ediel_sol  =         0.00000000
  ---------------------------------------------------
  free energy    TOTEN  =       -63.56799673 eV

  energy without entropy =      -63.56513577  energy(sigma->0) =      -63.56704308


--------------------------------------------------------------------------------------------------------




--------------------------------------- Iteration      1(   3)  ---------------------------------------


     EDDAV:  cpu time   12.9632: real time   13.0510
       DOS:  cpu time    0.0012: real time    0.0012
    --------------------------------------------
      LOOP:  cpu time   12.9643: real time   13.0522

 eigenvalue-minimisations  :  2160
 total energy-change (2. order) :-0.1773307E+03  (-0.1611113E+03)
 number of electron     376.0000000 magnetization 
 augmentation part      376.0000000 magnetization 

 Free energy of the ion-electron system (eV)
  ---------------------------------------------------
  alpha Z        PSCENC =       975.10247152
  Ewald energy   TEWEN  =     91555.91572140
  -Hartree energ DENC   =   -120642.21525091
  -exchange      EXHF   =         0.00000000
  -V(xc)+E(xc)   XCENC  =       189.93874775
  PAW double counting   =     24789.08602224   -23775.73976456
  entropy T*S    EENTRO =         0.01603764
  eigenvalues    EBANDS =      -592.89688273
  atomic energy  EATOM  =     27259.89416086
  Solvation  Ediel_sol  =         0.00000000
  ---------------------------------------------------
  free energy    TOTEN  =      -240.89873679 eV

  energy without entropy =     -240.91477443  energy(sigma->0) =     -240.90408267


--------------------------------------------------------------------------------------------------------




--------------------------------------- Iteration      1(   4)  ---------------------------------------


     EDDAV:  cpu time   13.4389: real time   13.5330
       DOS:  cpu time    0.0011: real time    0.0011
    --------------------------------------------
      LOOP:  cpu time   13.4400: real time   13.5341

 eigenvalue-minimisations  :  2384
 total energy-change (2. order) :-0.7679894E+01  (-0.7412818E+01)
 number of electron     376.0000000 magnetization 
 augmentation part      376.0000000 magnetization 

 Free energy of the ion-electron system (eV)
  ---------------------------------------------------
  alpha Z        PSCENC =       975.10247152
  Ewald energy   TEWEN  =     91555.91572140
  -Hartree energ DENC   =   -120642.21525091
  -exchange      EXHF   =         0.00000000
  -V(xc)+E(xc)   XCENC  =       189.93874775
  PAW double counting   =     24789.08602224   -23775.73976456
  entropy T*S    EENTRO =         0.01185303
  eigenvalues    EBANDS =      -600.57259259
  atomic energy  EATOM  =     27259.89416086
  Solvation  Ediel_sol  =         0.00000000
  ---------------------------------------------------
  free energy    TOTEN  =      -248.57863126 eV

  energy without entropy =     -248.59048429  energy(sigma->0) =     -248.58258227


--------------------------------------------------------------------------------------------------------




--------------------------------------- Iteration      1(   5)  ---------------------------------------


     EDDAV:  cpu time   11.1528: real time   11.2461
       DOS:  cpu time    0.0011: real time    0.0011
    CHARGE:  cpu time    0.4322: real time    0.4348
    MIXING:  cpu time    0.0081: real time    0.0082
    --------------------------------------------
      LOOP:  cpu time   11.5943: real time   11.6903

 eigenvalue-minimisations  :  2304
 total energy-change (2. order) :-0.2089916E+00  (-0.2072372E+00)
 number of electron     376.0000031 magnetization 
 augmentation part      105.7708780 magnetization 

 Broyden mixing:
  rms(total) = 0.27682E+01    rms(broyden)= 0.27677E+01
  rms(prec ) = 0.30840E+01
  weight for this iteration     100.00

 Free energy of the ion-electron system (eV)
  ---------------------------------------------------
  alpha Z        PSCENC =       975.10247152
  Ewald energy   TEWEN  =     91555.91572140
  -Hartree energ DENC   =   -120642.21525091
  -exchange      EXHF   =         0.00000000
  -V(xc)+E(xc)   XCENC  =       189.93874775
  PAW double counting   =     24789.08602224   -23775.73976456
  entropy T*S    EENTRO =         0.01159967
  eigenvalues    EBANDS =      -600.78133085
  atomic energy  EATOM  =     27259.89416086
  Solvation  Ediel_sol  =         0.00000000
  ---------------------------------------------------
  free energy    TOTEN  =      -248.78762288 eV

  energy without entropy =     -248.79922255  energy(sigma->0) =     -248.79148944


--------------------------------------------------------------------------------------------------------




--------------------------------------- Iteration      1(   6)  ---------------------------------------


    POTLOK:  cpu time    0.1731: real time    0.1741
    SETDIJ:  cpu time    0.0103: real time    0.0103
    EDDIAG:  cpu time    1.2780: real time    1.2859
  RMM-DIIS:  cpu time    4.6152: real time    4.6430
    ORTHCH:  cpu time    0.2543: real time    0.2558
       DOS:  cpu time    0.0013: real time    0.0013
    CHARGE:  cpu time    0.4935: real time    0.4962
    MIXING:  cpu time    0.0069: real time    0.0070
    --------------------------------------------
      LOOP:  cpu time    6.8326: real time    6.8737

 eigenvalue-minimisations  :  1829
 total energy-change (2. order) : 0.2805471E+01  (-0.5713025E+01)
 number of electron     376.0000048 magnetization 
 augmentation part      112.9520737 magnetization 

 Broyden mixing:
  rms(total) = 0.29404E+01    rms(broyden)= 0.29393E+01
  rms(prec ) = 0.39117E+01
  weight for this iteration     100.00

 eigenvalues of (default mixing * dielectric matrix)
  average eigenvalue GAMMA=   0.4939
  0.4939

 Free energy of the ion-electron system (eV)
  ---------------------------------------------------
  alpha Z        PSCENC =       975.10247152
  Ewald energy   TEWEN  =     91555.91572140
  -Hartree energ DENC   =   -120176.42441081
  -exchange      EXHF   =         0.00000000
  -V(xc)+E(xc)   XCENC  =       182.91986805
  PAW double counting   =     26741.53953363   -25782.11256292
  entropy T*S    EENTRO =        -0.13903369
  eigenvalues    EBANDS =     -1002.67790015
  atomic energy  EATOM  =     27259.89416086
  Solvation  Ediel_sol  =         0.00000000
  ---------------------------------------------------
  free energy    TOTEN  =      -245.98215210 eV

  energy without entropy =     -245.84311842  energy(sigma->0) =     -245.93580754


--------------------------------------------------------------------------------------------------------




--------------------------------------- Iteration      1(   7)  ---------------------------------------


    POTLOK:  cpu time    0.1342: real time    0.1348
    SETDIJ:  cpu time    0.0116: real time    0.0116
    EDDIAG:  cpu time    1.3939: real time    1.4009
  RMM-DIIS:  cpu time    4.7755: real time    4.8024
    ORTHCH:  cpu time    0.2144: real time    0.2156
       DOS:  cpu time    0.0011: real time    0.0011
    CHARGE:  cpu time    0.3971: real time    0.3993
    MIXING:  cpu time    0.0055: real time    0.0055
    --------------------------------------------
      LOOP:  cpu time    6.9333: real time    6.9712

 eigenvalue-minimisations  :  1831
 total energy-change (2. order) : 0.3597897E+01  (-0.3328854E+01)
 number of electron     376.0000047 magnetization 
 augmentation part      111.3789740 magnetization 

 Broyden mixing:
  rms(total) = 0.20234E+01    rms(broyden)= 0.20225E+01
  rms(prec ) = 0.32753E+01
  weight for this iteration     100.00

 eigenvalues of (default mixing * dielectric matrix)
  average eigenvalue GAMMA=   0.5941
  0.9323  0.2558

 Free energy of the ion-electron system (eV)
  ---------------------------------------------------
  alpha Z        PSCENC =       975.10247152
  Ewald energy   TEWEN  =     91555.91572140
  -Hartree energ DENC   =   -120372.12212387
  -exchange      EXHF   =         0.00000000
  -V(xc)+E(xc)   XCENC  =       180.55091321
  PAW double counting   =     27401.68074376   -26449.64915485
  entropy T*S    EENTRO =        -0.08912151
  eigenvalues    EBANDS =      -793.66786529
  atomic energy  EATOM  =     27259.89416086
  Solvation  Ediel_sol  =         0.00000000
  ---------------------------------------------------
  free energy    TOTEN  =      -242.38425476 eV

  energy without entropy =     -242.29513326  energy(sigma->0) =     -242.35454760


--------------------------------------------------------------------------------------------------------




--------------------------------------- Iteration      1(   8)  ---------------------------------------


    POTLOK:  cpu time    0.1298: real time    0.1305
    SETDIJ:  cpu time    0.0126: real time    0.0127
    EDDIAG:  cpu time    1.3449: real time    1.3521
  RMM-DIIS:  cpu time    4.7933: real time    4.8240
    ORTHCH:  cpu time    0.2485: real time    0.2499
       DOS:  cpu time    0.0011: real time    0.0011
    CHARGE:  cpu time    0.3974: real time    0.3998
    MIXING:  cpu time    0.0046: real time    0.0046
    --------------------------------------------
      LOOP:  cpu time    6.9321: real time    6.9746

 eigenvalue-minimisations  :  1826
 total energy-change (2. order) :-0.1672751E+01  (-0.9436424E+00)
 number of electron     376.0000035 magnetization 
 augmentation part      112.0844378 magnetization 

 Broyden mixing:
  rms(total) = 0.22517E+01    rms(broyden)= 0.22515E+01
  rms(prec ) = 0.41030E+01
  weight for this iteration     100.00

 eigenvalues of (default mixing * dielectric matrix)
  average eigenvalue GAMMA=   0.5364
  1.1659  0.2903  0.1530

 Free energy of the ion-electron system (eV)
  ---------------------------------------------------
  alpha Z        PSCENC =       975.10247152
  Ewald energy   TEWEN  =     91555.91572140
  -Hartree energ DENC   =   -120313.27029242
  -exchange      EXHF   =         0.00000000
  -V(xc)+E(xc)   XCENC  =       179.46831667
  PAW double counting   =     28068.57425632   -27127.03520070
  entropy T*S    EENTRO =        -0.11586398
  eigenvalues    EBANDS =      -842.59057527
  atomic energy  EATOM  =     27259.89416086
  Solvation  Ediel_sol  =         0.00000000
  ---------------------------------------------------
  free energy    TOTEN  =      -244.05700560 eV

  energy without entropy =     -243.94114161  energy(sigma->0) =     -244.01838427


--------------------------------------------------------------------------------------------------------




--------------------------------------- Iteration      1(   9)  ---------------------------------------


    POTLOK:  cpu time    0.1253: real time    0.1262
    SETDIJ:  cpu time    0.0106: real time    0.0106
    EDDIAG:  cpu time    1.0941: real time    1.1006
  RMM-DIIS:  cpu time    4.5644: real time    4.5911
    ORTHCH:  cpu time    0.2281: real time    0.2295
       DOS:  cpu time    0.0011: real time    0.0011
    CHARGE:  cpu time    0.3775: real time    0.3799
    MIXING:  cpu time    0.0048: real time    0.0048
    --------------------------------------------
      LOOP:  cpu time    6.4060: real time    6.4438

 eigenvalue-minimisations  :  1831
 total energy-change (2. order) : 0.1220284E+02  (-0.4628860E+00)
 number of electron     376.0000041 magnetization 
 augmentation part      112.6925721 magnetization 

 Broyden mixing:
  rms(total) = 0.91261E+00    rms(broyden)= 0.91224E+00
  rms(prec ) = 0.12917E+01
  weight for this iteration     100.00

 eigenvalues of (default mixing * dielectric matrix)
  average eigenvalue GAMMA=   0.5234
  1.2865  0.3388  0.3388  0.1296

 Free energy of the ion-electron system (eV)
  ---------------------------------------------------
  alpha Z        PSCENC =       975.10247152
  Ewald energy   TEWEN  =     91555.91572140
  -Hartree energ DENC   =   -120270.48000889
  -exchange      EXHF   =         0.00000000
  -V(xc)+E(xc)   XCENC  =       178.90510046
  PAW double counting   =     28708.26086290   -27776.62080509
  entropy T*S    EENTRO =        -0.03810261
  eigenvalues    EBANDS =      -862.79356676
  atomic energy  EATOM  =     27259.89416086
  Solvation  Ediel_sol  =         0.00000000
  ---------------------------------------------------
  free energy    TOTEN  =      -231.85416621 eV

  energy without entropy =     -231.81606360  energy(sigma->0) =     -231.84146534


--------------------------------------------------------------------------------------------------------




--------------------------------------- Iteration      1(  10)  ---------------------------------------


    POTLOK:  cpu time    0.1314: real time    0.1321
    SETDIJ:  cpu time    0.0126: real time    0.0126
    EDDIAG:  cpu time    1.2199: real time    1.2274
  RMM-DIIS:  cpu time    5.2141: real time    5.2476
    ORTHCH:  cpu time    0.2432: real time    0.2447
       DOS:  cpu time    0.0012: real time    0.0012
    CHARGE:  cpu time    0.4771: real time    0.4800
    MIXING:  cpu time    0.0063: real time    0.0064
    --------------------------------------------
      LOOP:  cpu time    7.3058: real time    7.3522

 eigenvalue-minimisations  :  1831
 total energy-change (2. order) : 0.1090104E+01  (-0.1657908E+00)
 number of electron     376.0000041 magnetization 
 augmentation part      112.7658585 magnetization 

 Broyden mixing:
  rms(total) = 0.56848E+00    rms(broyden)= 0.56838E+00
  rms(prec ) = 0.73402E+00
  weight for this iteration     100.00

 eigenvalues of (default mixing * dielectric matrix)
  average eigenvalue GAMMA=   0.5440
  1.3990  0.5232  0.4235  0.1325  0.2419

 Free energy of the ion-electron system (eV)
  ---------------------------------------------------
  alpha Z        PSCENC =       975.10247152
  Ewald energy   TEWEN  =     91555.91572140
  -Hartree energ DENC   =   -120263.97175493
  -exchange      EXHF   =         0.00000000
  -V(xc)+E(xc)   XCENC  =       178.77166771
  PAW double counting   =     29049.83230325   -28122.83742347
  entropy T*S    EENTRO =         0.00687450
  eigenvalues    EBANDS =      -863.47808290
  atomic energy  EATOM  =     27259.89416086
  Solvation  Ediel_sol  =         0.00000000
  ---------------------------------------------------
  free energy    TOTEN  =      -230.76406205 eV

  energy without entropy =     -230.77093655  energy(sigma->0) =     -230.76635355


--------------------------------------------------------------------------------------------------------




--------------------------------------- Iteration      1(  11)  ---------------------------------------


    POTLOK:  cpu time    0.1451: real time    0.1460
    SETDIJ:  cpu time    0.0107: real time    0.0107
    EDDIAG:  cpu time    1.4942: real time    1.5030
  RMM-DIIS:  cpu time    4.7314: real time    4.7593
    ORTHCH:  cpu time    0.2194: real time    0.2207
       DOS:  cpu time    0.0011: real time    0.0011
    CHARGE:  cpu time    0.3553: real time    0.3574
    MIXING:  cpu time    0.0053: real time    0.0053
    --------------------------------------------
      LOOP:  cpu time    6.9624: real time    7.0034

 eigenvalue-minimisations  :  1831
 total energy-change (2. order) : 0.4542993E+00  (-0.4895561E-01)
 number of electron     376.0000043 magnetization 
 augmentation part      112.8927570 magnetization 

 Broyden mixing:
  rms(total) = 0.31117E+00    rms(broyden)= 0.31090E+00
  rms(prec ) = 0.40023E+00
  weight for this iteration     100.00

 eigenvalues of (default mixing * dielectric matrix)
  average eigenvalue GAMMA=   0.5792
  1.5459  0.8168  0.3759  0.3759  0.1312  0.2296

 Free energy of the ion-electron system (eV)
  ---------------------------------------------------
  alpha Z        PSCENC =       975.10247152
  Ewald energy   TEWEN  =     91555.91572140
  -Hartree energ DENC   =   -120258.55339788
  -exchange      EXHF   =         0.00000000
  -V(xc)+E(xc)   XCENC  =       178.76901297
  PAW double counting   =     29363.03898649   -28440.07364342
  entropy T*S    EENTRO =        -0.02852960
  eigenvalues    EBANDS =      -864.37454513
  atomic energy  EATOM  =     27259.89416086
  Solvation  Ediel_sol  =         0.00000000
  ---------------------------------------------------
  free energy    TOTEN  =      -230.30976279 eV

  energy without entropy =     -230.28123318  energy(sigma->0) =     -230.30025292


--------------------------------------------------------------------------------------------------------




--------------------------------------- Iteration      1(  12)  ---------------------------------------


    POTLOK:  cpu time    0.1207: real time    0.1214
    SETDIJ:  cpu time    0.0095: real time    0.0095
    EDDIAG:  cpu time    1.1189: real time    1.1259
  RMM-DIIS:  cpu time    4.6153: real time    4.6444
    ORTHCH:  cpu time    0.2311: real time    0.2324
       DOS:  cpu time    0.0012: real time    0.0012
    CHARGE:  cpu time    0.3706: real time    0.3728
    MIXING:  cpu time    0.0046: real time    0.0047
    --------------------------------------------
      LOOP:  cpu time    6.4718: real time    6.5123

 eigenvalue-minimisations  :  1837
 total energy-change (2. order) : 0.1392035E+00  (-0.2014852E-01)
 number of electron     376.0000043 magnetization 
 augmentation part      112.9663612 magnetization 

 Broyden mixing:
  rms(total) = 0.20901E+00    rms(broyden)= 0.20896E+00
  rms(prec ) = 0.25449E+00
  weight for this iteration     100.00

 eigenvalues of (default mixing * dielectric matrix)
  average eigenvalue GAMMA=   0.6436
  1.8358  1.0293  0.4973  0.4973  0.1316  0.2638  0.2499

 Free energy of the ion-electron system (eV)
  ---------------------------------------------------
  alpha Z        PSCENC =       975.10247152
  Ewald energy   TEWEN  =     91555.91572140
  -Hartree energ DENC   =   -120247.84775954
  -exchange      EXHF   =         0.00000000
  -V(xc)+E(xc)   XCENC  =       178.72131596
  PAW double counting   =     29625.36870818   -28705.60814836
  entropy T*S    EENTRO =        -0.03960832
  eigenvalues    EBANDS =      -871.67742101
  atomic energy  EATOM  =     27259.89416086
  Solvation  Ediel_sol  =         0.00000000
  ---------------------------------------------------
  free energy    TOTEN  =      -230.17055930 eV

  energy without entropy =     -230.13095098  energy(sigma->0) =     -230.15735653


--------------------------------------------------------------------------------------------------------




--------------------------------------- Iteration      1(  13)  ---------------------------------------


    POTLOK:  cpu time    0.1140: real time    0.1148
    SETDIJ:  cpu time    0.0095: real time    0.0095
    EDDIAG:  cpu time    1.0129: real time    1.0183
  RMM-DIIS:  cpu time    4.2510: real time    4.2761
    ORTHCH:  cpu time    0.2195: real time    0.2208
       DOS:  cpu time    0.0012: real time    0.0012
    CHARGE:  cpu time    0.4040: real time    0.4068
    MIXING:  cpu time    0.0055: real time    0.0055
    --------------------------------------------
      LOOP:  cpu time    6.0177: real time    6.0529

 eigenvalue-minimisations  :  1835
 total energy-change (2. order) :-0.9070171E-03  (-0.1391096E-01)
 number of electron     376.0000042 magnetization 
 augmentation part      112.9796665 magnetization 

 Broyden mixing:
  rms(total) = 0.20146E+00    rms(broyden)= 0.20145E+00
  rms(prec ) = 0.24851E+00
  weight for this iteration     100.00

 eigenvalues of (default mixing * dielectric matrix)
  average eigenvalue GAMMA=   0.6827
  2.0979  1.1023  0.8626  0.4394  0.1316  0.3377  0.2666  0.2236

 Free energy of the ion-electron system (eV)
  ---------------------------------------------------
  alpha Z        PSCENC =       975.10247152
  Ewald energy   TEWEN  =     91555.91572140
  -Hartree energ DENC   =   -120245.71447447
  -exchange      EXHF   =         0.00000000
  -V(xc)+E(xc)   XCENC  =       178.63483590
  PAW double counting   =     29868.32188315   -28951.46904869
  entropy T*S    EENTRO =        -0.02365976
  eigenvalues    EBANDS =      -870.83335624
  atomic energy  EATOM  =     27259.89416086
  Solvation  Ediel_sol  =         0.00000000
  ---------------------------------------------------
  free energy    TOTEN  =      -230.17146632 eV

  energy without entropy =     -230.14780656  energy(sigma->0) =     -230.16357974


--------------------------------------------------------------------------------------------------------




--------------------------------------- Iteration      1(  14)  ---------------------------------------


    POTLOK:  cpu time    0.1280: real time    0.1290
    SETDIJ:  cpu time    0.0103: real time    0.0104
    EDDIAG:  cpu time    1.3510: real time    1.3592
  RMM-DIIS:  cpu time    4.2708: real time    4.2976
    ORTHCH:  cpu time    0.2133: real time    0.2145
       DOS:  cpu time    0.0012: real time    0.0012
    CHARGE:  cpu time    0.3280: real time    0.3297
    MIXING:  cpu time    0.0052: real time    0.0052
    --------------------------------------------
      LOOP:  cpu time    6.3079: real time    6.3468

 eigenvalue-minimisations  :  1831
 total energy-change (2. order) : 0.5467733E-01  (-0.7846021E-02)
 number of electron     376.0000043 magnetization 
 augmentation part      112.9604184 magnetization 

 Broyden mixing:
  rms(total) = 0.82411E-01    rms(broyden)= 0.82400E-01
  rms(prec ) = 0.96489E-01
  weight for this iteration     100.00

 eigenvalues of (default mixing * dielectric matrix)
  average eigenvalue GAMMA=   0.7253
  2.3944  1.2560  0.9517  0.5346  0.4629  0.1316  0.3199  0.2526  0.2239

 Free energy of the ion-electron system (eV)
  ---------------------------------------------------
  alpha Z        PSCENC =       975.10247152
  Ewald energy   TEWEN  =     91555.91572140
  -Hartree energ DENC   =   -120251.35728015
  -exchange      EXHF   =         0.00000000
  -V(xc)+E(xc)   XCENC  =       178.55511005
  PAW double counting   =     30049.71568013   -29134.98164181
  entropy T*S    EENTRO =        -0.02592859
  eigenvalues    EBANDS =      -862.93508240
  atomic energy  EATOM  =     27259.89416086
  Solvation  Ediel_sol  =         0.00000000
  ---------------------------------------------------
  free energy    TOTEN  =      -230.11678899 eV

  energy without entropy =     -230.09086040  energy(sigma->0) =     -230.10814613


--------------------------------------------------------------------------------------------------------




--------------------------------------- Iteration      1(  15)  ---------------------------------------


    POTLOK:  cpu time    0.1145: real time    0.1152
    SETDIJ:  cpu time    0.0099: real time    0.0099
    EDDIAG:  cpu time    1.0316: real time    1.0372
  RMM-DIIS:  cpu time    4.8997: real time    4.9311
    ORTHCH:  cpu time    0.2675: real time    0.2689
       DOS:  cpu time    0.0011: real time    0.0011
    CHARGE:  cpu time    0.4389: real time    0.4413
    MIXING:  cpu time    0.0141: real time    0.0142
    --------------------------------------------
      LOOP:  cpu time    6.7773: real time    6.8190

 eigenvalue-minimisations  :  1832
 total energy-change (2. order) : 0.4700409E-02  (-0.3340394E-02)
 number of electron     376.0000042 magnetization 
 augmentation part      112.9504332 magnetization 

 Broyden mixing:
  rms(total) = 0.62003E-01    rms(broyden)= 0.61953E-01
  rms(prec ) = 0.73854E-01
  weight for this iteration     100.00

 eigenvalues of (default mixing * dielectric matrix)
  average eigenvalue GAMMA=   0.7093
  2.4953  1.2843  0.8995  0.6812  0.4605  0.1316  0.3597  0.3077  0.2498  0.2232

 Free energy of the ion-electron system (eV)
  ---------------------------------------------------
  alpha Z        PSCENC =       975.10247152
  Ewald energy   TEWEN  =     91555.91572140
  -Hartree energ DENC   =   -120251.77642743
  -exchange      EXHF   =         0.00000000
  -V(xc)+E(xc)   XCENC  =       178.52689823
  PAW double counting   =     30143.93847566   -29230.22050566
  entropy T*S    EENTRO =        -0.02057879
  eigenvalues    EBANDS =      -861.47230438
  atomic energy  EATOM  =     27259.89416086
  Solvation  Ediel_sol  =         0.00000000
  ---------------------------------------------------
  free energy    TOTEN  =      -230.11208858 eV

  energy without entropy =     -230.09150979  energy(sigma->0) =     -230.10522899


--------------------------------------------------------------------------------------------------------




--------------------------------------- Iteration      1(  16)  ---------------------------------------


    POTLOK:  cpu time    0.1583: real time    0.1592
    SETDIJ:  cpu time    0.0174: real time    0.0175
    EDDIAG:  cpu time    1.3096: real time    1.3171
  RMM-DIIS:  cpu time    4.4057: real time    4.4321
    ORTHCH:  cpu time    0.2036: real time    0.2047
       DOS:  cpu time    0.0011: real time    0.0011
    CHARGE:  cpu time    0.3127: real time    0.3144
    MIXING:  cpu time    0.0063: real time    0.0063
    --------------------------------------------
      LOOP:  cpu time    6.4147: real time    6.4525

 eigenvalue-minimisations  :  1830
 total energy-change (2. order) : 0.4411703E-02  (-0.8311229E-03)
 number of electron     376.0000042 magnetization 
 augmentation part      112.9533704 magnetization 

 Broyden mixing:
  rms(total) = 0.33246E-01    rms(broyden)= 0.33243E-01
  rms(prec ) = 0.40379E-01
  weight for this iteration     100.00

 eigenvalues of (default mixing * dielectric matrix)
  average eigenvalue GAMMA=   0.6826
  2.5098  1.2786  0.7997  0.7997  0.5149  0.4139  0.1316  0.3181  0.2230  0.2462
  0.2731

 Free energy of the ion-electron system (eV)
  ---------------------------------------------------
  alpha Z        PSCENC =       975.10247152
  Ewald energy   TEWEN  =     91555.91572140
  -Hartree energ DENC   =   -120252.57103453
  -exchange      EXHF   =         0.00000000
  -V(xc)+E(xc)   XCENC  =       178.53766572
  PAW double counting   =     30165.57735448   -29252.07037168
  entropy T*S    EENTRO =        -0.02456753
  eigenvalues    EBANDS =      -860.46907713
  atomic energy  EATOM  =     27259.89416086
  Solvation  Ediel_sol  =         0.00000000
  ---------------------------------------------------
  free energy    TOTEN  =      -230.10767688 eV

  energy without entropy =     -230.08310935  energy(sigma->0) =     -230.09948770


--------------------------------------------------------------------------------------------------------




--------------------------------------- Iteration      1(  17)  ---------------------------------------


    POTLOK:  cpu time    0.1118: real time    0.1125
    SETDIJ:  cpu time    0.0099: real time    0.0099
    EDDIAG:  cpu time    1.5096: real time    1.5184
  RMM-DIIS:  cpu time    4.6806: real time    4.7090
    ORTHCH:  cpu time    0.2133: real time    0.2144
       DOS:  cpu time    0.0011: real time    0.0011
    CHARGE:  cpu time    0.3479: real time    0.3497
    MIXING:  cpu time    0.0070: real time    0.0070
    --------------------------------------------
      LOOP:  cpu time    6.8813: real time    6.9220

 eigenvalue-minimisations  :  1820
 total energy-change (2. order) : 0.1369092E-02  (-0.2063719E-03)
 number of electron     376.0000043 magnetization 
 augmentation part      112.9552341 magnetization 

 Broyden mixing:
  rms(total) = 0.14482E-01    rms(broyden)= 0.14473E-01
  rms(prec ) = 0.17092E-01
  weight for this iteration     100.00

 eigenvalues of (default mixing * dielectric matrix)
  average eigenvalue GAMMA=   0.7155
  2.5044  1.2520  1.0255  1.0255  0.7705  0.4627  0.1316  0.3833  0.3215  0.2528
  0.2218  0.2343

 Free energy of the ion-electron system (eV)
  ---------------------------------------------------
  alpha Z        PSCENC =       975.10247152
  Ewald energy   TEWEN  =     91555.91572140
  -Hartree energ DENC   =   -120252.95519557
  -exchange      EXHF   =         0.00000000
  -V(xc)+E(xc)   XCENC  =       178.54599066
  PAW double counting   =     30167.40112233   -29253.88694669
  entropy T*S    EENTRO =        -0.02418221
  eigenvalues    EBANDS =      -860.09945009
  atomic energy  EATOM  =     27259.89416086
  Solvation  Ediel_sol  =         0.00000000
  ---------------------------------------------------
  free energy    TOTEN  =      -230.10630779 eV

  energy without entropy =     -230.08212558  energy(sigma->0) =     -230.09824705


--------------------------------------------------------------------------------------------------------




--------------------------------------- Iteration      1(  18)  ---------------------------------------


    POTLOK:  cpu time    0.1279: real time    0.1285
    SETDIJ:  cpu time    0.0105: real time    0.0105
    EDDIAG:  cpu time    1.0950: real time    1.1006
  RMM-DIIS:  cpu time    4.1176: real time    4.1393
    ORTHCH:  cpu time    0.2063: real time    0.2073
       DOS:  cpu time    0.0011: real time    0.0011
    CHARGE:  cpu time    0.3405: real time    0.3424
    MIXING:  cpu time    0.0073: real time    0.0073
    --------------------------------------------
      LOOP:  cpu time    5.9060: real time    5.9371

 eigenvalue-minimisations  :  1782
 total energy-change (2. order) :-0.2515488E-03  (-0.8917716E-04)
 number of electron     376.0000042 magnetization 
 augmentation part      112.9524310 magnetization 

 Broyden mixing:
  rms(total) = 0.13016E-01    rms(broyden)= 0.13014E-01
  rms(prec ) = 0.15763E-01
  weight for this iteration     100.00

 eigenvalues of (default mixing * dielectric matrix)
  average eigenvalue GAMMA=   0.7465
  2.4768  1.7907  1.3278  0.8735  0.8735  0.1316  0.4546  0.4231  0.3363  0.3151
  0.2499  0.2206  0.2308

 Free energy of the ion-electron system (eV)
  ---------------------------------------------------
  alpha Z        PSCENC =       975.10247152
  Ewald energy   TEWEN  =     91555.91572140
  -Hartree energ DENC   =   -120253.84318136
  -exchange      EXHF   =         0.00000000
  -V(xc)+E(xc)   XCENC  =       178.55370032
  PAW double counting   =     30164.86460189   -29251.26643249
  entropy T*S    EENTRO =        -0.02411423
  eigenvalues    EBANDS =      -859.30348725
  atomic energy  EATOM  =     27259.89416086
  Solvation  Ediel_sol  =         0.00000000
  ---------------------------------------------------
  free energy    TOTEN  =      -230.10655934 eV

  energy without entropy =     -230.08244510  energy(sigma->0) =     -230.09852126


--------------------------------------------------------------------------------------------------------




--------------------------------------- Iteration      1(  19)  ---------------------------------------


    POTLOK:  cpu time    0.1199: real time    0.1207
    SETDIJ:  cpu time    0.0097: real time    0.0098
    EDDIAG:  cpu time    1.1919: real time    1.1986
  RMM-DIIS:  cpu time    3.2628: real time    3.2844
    ORTHCH:  cpu time    0.2276: real time    0.2294
       DOS:  cpu time    0.0011: real time    0.0011
    --------------------------------------------
      LOOP:  cpu time    4.8132: real time    4.8440

 eigenvalue-minimisations  :  1375
 total energy-change (2. order) :-0.4473857E-04  (-0.4385325E-04)
 number of electron     376.0000042 magnetization 
 augmentation part      112.9524310 magnetization 

 Free energy of the ion-electron system (eV)
  ---------------------------------------------------
  alpha Z        PSCENC =       975.10247152
  Ewald energy   TEWEN  =     91555.91572140
  -Hartree energ DENC   =   -120255.25077811
  -exchange      EXHF   =         0.00000000
  -V(xc)+E(xc)   XCENC  =       178.56344701
  PAW double counting   =     30162.27918281   -29248.59448320
  entropy T*S    EENTRO =        -0.02425612
  eigenvalues    EBANDS =      -857.99207025
  atomic energy  EATOM  =     27259.89416086
  Solvation  Ediel_sol  =         0.00000000
  ---------------------------------------------------
  free energy    TOTEN  =      -230.10660407 eV

  energy without entropy =     -230.08234795  energy(sigma->0) =     -230.09851870


--------------------------------------------------------------------------------------------------------




 average (electrostatic) potential at core
  the test charge radii are     0.6991  0.7215  1.2059
  (the norm of the test charge is              1.0000)
       1 -56.3128       2 -74.7259       3 -76.1750       4 -72.3415       5 -72.3198
       6 -72.3258       7 -72.3206       8 -72.3610       9 -72.3380      10 -72.3063
      11 -72.3443      12 -72.3047      13 -72.8657      14 -72.9911      15 -72.9668
      16 -73.0357      17 -73.0409      18 -72.9337      19 -72.9972      20 -73.0751
      21 -72.9709      22 -73.0287      23 -72.9745      24 -72.8697      25 -73.0018
      26 -73.0305      27 -73.0052      28 -72.9367      29 -72.9995      30 -72.8986
      31 -72.4339      32 -72.3294      33 -72.5712      34 -72.2920      35 -72.3830
      36 -73.4884      37 -72.5917      38 -73.3163      39 -72.2963
 
 
 
 E-fermi :   1.0849     XC(G=0):  -6.6121     alpha+bet : -6.8913


 k-point     1 :       0.0000    0.0000    0.0000
  band No.  band energies     occupation 
      1     -22.0789      2.00000
      2     -16.9964      2.00000
      3      -9.1497      2.00000
      4      -8.1316      2.00000
      5      -6.8162      2.00000
      6      -6.0480      2.00000
      7      -5.9290      2.00000
      8      -5.8470      2.00000
      9      -5.7227      2.00000
     10      -5.6903      2.00000
     11      -5.6605      2.00000
     12      -5.6350      2.00000
     13      -5.6127      2.00000
     14      -5.5785      2.00000
     15      -5.5232      2.00000
     16      -5.3883      2.00000
     17      -5.1005      2.00000
     18      -5.0923      2.00000
     19      -5.0761      2.00000
     20      -5.0610      2.00000
     21      -5.0374      2.00000
     22      -5.0145      2.00000
     23      -4.7264      2.00000
     24      -4.6356      2.00000
     25      -4.5739      2.00000
     26      -4.5452      2.00000
     27      -4.5390      2.00000
     28      -4.5056      2.00000
     29      -4.4215      2.00000
     30      -4.3782      2.00000
     31      -4.3644      2.00000
     32      -4.3539      2.00000
     33      -4.3388      2.00000
     34      -4.2790      2.00000
     35      -4.1785      2.00000
     36      -4.1616      2.00000
     37      -4.1454      2.00000
     38      -4.1092      2.00000
     39      -4.0993      2.00000
     40      -4.0703      2.00000
     41      -4.0546      2.00000
     42      -4.0422      2.00000
     43      -4.0391      2.00000
     44      -4.0003      2.00000
     45      -3.9978      2.00000
     46      -3.9849      2.00000
     47      -3.7354      2.00000
     48      -3.5672      2.00000
     49      -3.5169      2.00000
     50      -3.4606      2.00000
     51      -3.4484      2.00000
     52      -3.4344      2.00000
     53      -3.4132      2.00000
     54      -3.3867      2.00000
     55      -3.3501      2.00000
     56      -3.3208      2.00000
     57      -3.2720      2.00000
     58      -3.2156      2.00000
     59      -3.1836      2.00000
     60      -3.1634      2.00000
     61      -3.0613      2.00000
     62      -3.0077      2.00000
     63      -2.9219      2.00000
     64      -2.6784      2.00000
     65      -2.6684      2.00000
     66      -2.5917      2.00000
     67      -2.5449      2.00000
     68      -2.5267      2.00000
     69      -2.4945      2.00000
     70      -2.4725      2.00000
     71      -2.4583      2.00000
     72      -2.4227      2.00000
     73      -2.4166      2.00000
     74      -2.4043      2.00000
     75      -2.3962      2.00000
     76      -2.3805      2.00000
     77      -2.3654      2.00000
     78      -2.3603      2.00000
     79      -2.3281      2.00000
     80      -2.3263      2.00000
     81      -2.3152      2.00000
     82      -2.3065      2.00000
     83      -2.2844      2.00000
     84      -2.2550      2.00000
     85      -2.2354      2.00000
     86      -2.1532      2.00000
     87      -2.1397      2.00000
     88      -2.1187      2.00000
     89      -2.1139      2.00000
     90      -2.0816      2.00000
     91      -2.0451      2.00000
     92      -2.0097      2.00000
     93      -1.9928      2.00000
     94      -1.9763      2.00000
     95      -1.9592      2.00000
     96      -1.8998      2.00000
     97      -1.8866      2.00000
     98      -1.8585      2.00000
     99      -1.8199      2.00000
    100      -1.7720      2.00000
    101      -1.7074      2.00000
    102      -1.6447      2.00000
    103      -1.6335      2.00000
    104      -1.6022      2.00000
    105      -1.5678      2.00000
    106      -1.5491      2.00000
    107      -1.5479      2.00000
    108      -1.5333      2.00000
    109      -1.5014      2.00000
    110      -1.4962      2.00000
    111      -1.4737      2.00000
    112      -1.4650      2.00000
    113      -1.4520      2.00000
    114      -1.3241      2.00000
    115      -1.3048      2.00000
    116      -1.1916      2.00000
    117      -1.1391      2.00000
    118      -1.0948      2.00000
    119      -1.0268      2.00000
    120      -0.9818      2.00000
    121      -0.9642      2.00000
    122      -0.9435      2.00000
    123      -0.9108      2.00000
    124      -0.8876      2.00000
    125      -0.8440      2.00000
    126      -0.8215      2.00000
    127      -0.7895      2.00000
    128      -0.7576      2.00000
    129      -0.7068      2.00000
    130      -0.6894      2.00000
    131      -0.6747      2.00000
    132      -0.6438      2.00000
    133      -0.6050      2.00000
    134      -0.5867      2.00000
    135      -0.5215      2.00000
    136      -0.4827      2.00000
    137      -0.4305      2.00000
    138      -0.4044      2.00000
    139      -0.3716      2.00000
    140      -0.3672      2.00000
    141      -0.2652      2.00000
    142      -0.2557      2.00000
    143      -0.2197      2.00000
    144      -0.1764      2.00000
    145      -0.1601      2.00000
    146      -0.1279      2.00000
    147      -0.0989      2.00000
    148      -0.0538      2.00000
    149       0.0149      2.00000
    150       0.0342      2.00000
    151       0.0594      2.00000
    152       0.0794      2.00000
    153       0.1072      2.00000
    154       0.1275      2.00000
    155       0.1531      2.00000
    156       0.2043      2.00000
    157       0.2091      2.00000
    158       0.2448      2.00000
    159       0.2591      2.00000
    160       0.2914      2.00000
    161       0.2936      2.00000
    162       0.3049      2.00000
    163       0.3232      2.00000
    164       0.3284      2.00000
    165       0.3412      2.00000
    166       0.3591      2.00000
    167       0.3927      2.00001
    168       0.4107      2.00002
    169       0.4502      2.00007
    170       0.4726      2.00013
    171       0.4919      2.00023
    172       0.5402      2.00081
    173       0.5730      2.00177
    174       0.6002      2.00324
    175       0.6182      2.00472
    176       0.6345      2.00652
    177       0.6494      2.00865
    178       0.6609      2.01064
    179       0.6752      2.01363
    180       0.7052      2.02187
    181       0.7403      2.03510
    182       0.7544      2.04133
    183       0.7767      2.05160
    184       0.7951      2.05969
    185       0.8025      2.06265
    186       0.8050      2.06359
    187       0.8138      2.06655
    188       0.8188      2.06794
    189       0.8274      2.06981
    190       0.8397      2.07092
    191       0.8536      2.06935
    192       0.8637      2.06582
    193       0.8826      2.05255
    194       0.9262      1.97669
    195       0.9445      1.92119
    196       1.0645      1.17148
    197       1.0800      1.04111
    198       1.1696      0.34921
    199       1.1840      0.26476
    200       1.2095      0.13972
    201       1.2175      0.10729
    202       1.2376      0.03987
    203       1.2452      0.01900
    204       1.4709     -0.01992
    205       1.5178     -0.00907
    206       1.9017     -0.00000
    207       2.0040     -0.00000
    208       2.0407     -0.00000
    209       2.0824     -0.00000
    210       2.1917     -0.00000
    211       2.6256     -0.00000
    212       3.6110     -0.00000
    213       3.9847     -0.00000
    214       4.3360     -0.00000
    215       4.3787     -0.00000
    216       4.4246     -0.00000
    217       4.6068     -0.00000
    218       4.9861     -0.00000
    219       5.5049     -0.00000
    220       5.6022     -0.00000
    221       5.8602     -0.00000
    222       5.8723     -0.00000
    223       5.8949     -0.00000
    224       5.9398     -0.00000
    225       5.9752     -0.00000
    226       6.0967     -0.00000
    227       6.5523      0.00000
    228       6.8300      0.00000

 k-point     2 :       0.5000    0.0000    0.0000
  band No.  band energies     occupation 
      1     -22.0788      2.00000
      2     -16.9960      2.00000
      3      -9.1400      2.00000
      4      -7.2910      2.00000
      5      -7.2309      2.00000
      6      -6.1499      2.00000
      7      -6.0311      2.00000
      8      -5.9314      2.00000
      9      -5.8590      2.00000
     10      -5.7783      2.00000
     11      -5.6622      2.00000
     12      -5.5467      2.00000
     13      -5.4185      2.00000
     14      -5.2720      2.00000
     15      -4.9879      2.00000
     16      -4.9660      2.00000
     17      -4.9193      2.00000
     18      -4.8819      2.00000
     19      -4.8594      2.00000
     20      -4.8539      2.00000
     21      -4.8409      2.00000
     22      -4.8222      2.00000
     23      -4.7809      2.00000
     24      -4.7699      2.00000
     25      -4.7571      2.00000
     26      -4.7191      2.00000
     27      -4.7085      2.00000
     28      -4.6604      2.00000
     29      -4.6384      2.00000
     30      -4.5792      2.00000
     31      -4.3828      2.00000
     32      -4.3749      2.00000
     33      -4.3441      2.00000
     34      -4.3097      2.00000
     35      -4.2878      2.00000
     36      -4.1834      2.00000
     37      -4.0864      2.00000
     38      -4.0346      2.00000
     39      -4.0060      2.00000
     40      -3.9908      2.00000
     41      -3.9758      2.00000
     42      -3.9190      2.00000
     43      -3.9084      2.00000
     44      -3.8553      2.00000
     45      -3.7941      2.00000
     46      -3.7270      2.00000
     47      -3.6807      2.00000
     48      -3.6563      2.00000
     49      -3.6132      2.00000
     50      -3.6020      2.00000
     51      -3.4797      2.00000
     52      -3.4781      2.00000
     53      -3.4457      2.00000
     54      -3.3760      2.00000
     55      -3.3390      2.00000
     56      -3.3377      2.00000
     57      -3.2606      2.00000
     58      -3.2366      2.00000
     59      -3.1908      2.00000
     60      -3.1782      2.00000
     61      -3.1438      2.00000
     62      -3.0825      2.00000
     63      -3.0351      2.00000
     64      -3.0171      2.00000
     65      -2.9801      2.00000
     66      -2.9370      2.00000
     67      -2.9096      2.00000
     68      -2.8826      2.00000
     69      -2.8551      2.00000
     70      -2.7984      2.00000
[...]
     89      -2.1693      2.00000
     90      -2.1490      2.00000
     91      -2.1310      2.00000
     92      -2.1044      2.00000
     93      -2.0839      2.00000
     94      -2.0149      2.00000
     95      -1.9994      2.00000
     96      -1.9646      2.00000
     97      -1.9149      2.00000
     98      -1.8998      2.00000
     99      -1.8606      2.00000
    100      -1.8344      2.00000
    101      -1.7917      2.00000
    102      -1.7598      2.00000
    103      -1.7529      2.00000
    104      -1.7307      2.00000
    105      -1.6919      2.00000
    106      -1.6870      2.00000
    107      -1.6685      2.00000
    108      -1.6480      2.00000
    109      -1.6075      2.00000
    110      -1.5530      2.00000
    111      -1.5271      2.00000
    112      -1.4671      2.00000
    113      -1.4286      2.00000
    114      -1.3565      2.00000
    115      -1.3082      2.00000
    116      -1.3036      2.00000
    117      -1.2426      2.00000
    118      -1.2117      2.00000
    119      -1.1644      2.00000
    120      -1.1023      2.00000
    121      -1.0901      2.00000
    122      -1.0697      2.00000
    123      -1.0498      2.00000
    124      -1.0262      2.00000
    125      -0.9951      2.00000
    126      -0.9751      2.00000
    127      -0.9576      2.00000
    128      -0.9231      2.00000
    129      -0.9201      2.00000
    130      -0.9126      2.00000
    131      -0.8743      2.00000
    132      -0.8079      2.00000
    133      -0.7633      2.00000
    134      -0.7439      2.00000
    135      -0.7231      2.00000
    136      -0.7068      2.00000
    137      -0.6854      2.00000
    138      -0.6623      2.00000
    139      -0.6017      2.00000
    140      -0.5631      2.00000
    141      -0.4889      2.00000
    142      -0.4642      2.00000
    143      -0.3985      2.00000
    144      -0.3187      2.00000
    145      -0.2521      2.00000
    146      -0.1996      2.00000
    147      -0.1912      2.00000
    148      -0.1460      2.00000
    149      -0.0908      2.00000
    150      -0.0627      2.00000
    151      -0.0510      2.00000
    152       0.0344      2.00000
    153       0.0559      2.00000
    154       0.0780      2.00000
    155       0.0841      2.00000
    156       0.0919      2.00000
    157       0.1094      2.00000
    158       0.1636      2.00000
    159       0.1785      2.00000
    160       0.2050      2.00000
    161       0.2120      2.00000
    162       0.2730      2.00000
    163       0.3164      2.00000
    164       0.3424      2.00000
    165       0.3505      2.00000
    166       0.3918      2.00001
    167       0.4952      2.00024
    168       0.5549      2.00114
    169       0.5990      2.00311
    170       0.6136      2.00423
    171       0.6207      2.00490
    172       0.6716      2.01268
    173       0.7075      2.02242
    174       0.7719      2.04907
    175       0.7809      2.05322
    176       0.8061      2.06374
    177       0.8327      2.07046
    178       0.8648      2.06560
    179       0.8986      2.03391
    180       0.9248      1.98181
    181       0.9303      1.96726
    182       1.0057      1.61928
    183       1.0371      1.39674
    184       1.0650      1.17279
    185       1.0768      1.07343
    186       1.0930      0.93679
    187       1.1227      0.69143
    188       1.1354      0.59190
    189       1.1592      0.42070
    190       1.1651      0.38177
    191       1.2946     -0.05844
    192       1.3110     -0.06758
    193       1.3547     -0.06711
    194       1.3946     -0.05118
    195       1.4030     -0.04728
    196       1.5002     -0.01253
    197       1.5689     -0.00333
    198       1.7287     -0.00005
    199       1.8106     -0.00000
    200       1.9728     -0.00000
    201       2.2618     -0.00000
    202       2.3492     -0.00000
    203       2.7925     -0.00000
    204       2.9180     -0.00000
    205       2.9387     -0.00000
    206       2.9651     -0.00000
    207       3.0053     -0.00000
    208       3.2105     -0.00000
    209       3.3437     -0.00000
    210       3.4982     -0.00000
    211       3.5399     -0.00000
    212       3.5950     -0.00000
    213       3.6909     -0.00000
    214       3.8175     -0.00000
    215       3.8896     -0.00000
    216       4.1253     -0.00000
    217       4.2206     -0.00000
    218       4.3829     -0.00000
    219       4.4088     -0.00000
    220       4.5981     -0.00000
    221       4.6255     -0.00000
    222       4.7862     -0.00000
    223       5.1021     -0.00000
    224       5.5537     -0.00000
    225       5.7651     -0.00000
    226       6.5379     -0.00000
    227       6.5594      0.00000
    228       6.6274      0.00000


--------------------------------------------------------------------------------------------------------


 soft charge-density along one line, spin component           1
         0         1         2         3         4         5         6         7         8         9
 total charge-density along one line
 
 pseudopotential strength for first ion, spin component:           1
 10.094   0.015   0.003   0.008  -0.000  -0.003  -0.007   0.000
  0.015  -0.002  -0.000  -0.000  -0.000  -0.000  -0.000   0.000
  0.003  -0.000  -4.247  -0.005   0.001  -0.009  -0.002   0.000
  0.008  -0.000  -0.005  -4.261   0.003  -0.002  -0.015   0.001
 -0.000  -0.000   0.001   0.003  -4.246   0.000   0.001  -0.008
 -0.003  -0.000  -0.009  -0.002   0.000  -0.770  -0.000   0.000
 -0.007  -0.000  -0.002  -0.015   0.001  -0.000  -0.770   0.000
  0.000   0.000   0.000   0.001  -0.008   0.000   0.000  -0.770
 total augmentation occupancy for first ion, spin component:           1
  1.629  -0.818  -0.013  -0.020  -0.049   0.023   0.073  -0.026
 -0.818   1.098  -0.159  -0.478   0.108  -0.066  -0.204   0.037
 -0.013  -0.159   0.841   0.178   0.009   0.109   0.049  -0.004
 -0.020  -0.478   0.178   1.290  -0.019   0.049   0.240  -0.011
 -0.049   0.108   0.009  -0.019   0.786  -0.004  -0.012   0.095
  0.023  -0.066   0.109   0.049  -0.004   0.018   0.018  -0.003
  0.073  -0.204   0.049   0.240  -0.012   0.018   0.067  -0.007
 -0.026   0.037  -0.004  -0.011   0.095  -0.003  -0.007   0.013


------------------------ aborting loop because EDIFF is reached ----------------------------------------


    CHARGE:  cpu time    0.4620: real time    0.4646
    FORLOC:  cpu time    0.0528: real time    0.0531
    FORNL :  cpu time    1.8240: real time    1.8360
    STRESS:  cpu time    6.1717: real time    6.2096
    FORCOR:  cpu time    0.1579: real time    0.1588
    FORHAR:  cpu time    0.0789: real time    0.0794
    MIXING:  cpu time    0.0056: real time    0.0056
    OFIELD:  cpu time    0.0000: real time    0.0000

  FORCE on cell =-STRESS in cart. coord.  units (eV):
  Direction    XX          YY          ZZ          XY          YZ          ZX
  --------------------------------------------------------------------------------------
  Alpha Z   975.10247   975.10247   975.10247
  Ewald  111308.84575111368.45534************  -175.30886   238.62176   -79.10321
  Hartree118069.38748118088.93314************  -116.14455    99.55673   -45.60801
  E(xc)   -1665.98658 -1665.69812 -1673.27833    -0.39529     0.60638    -0.19125
  Local  ************************240101.38446   282.35346  -315.23648   119.69847
  n-local   123.84977   123.49906    92.89698    -0.90266     2.40260     0.19489
  augment  1895.73805  1893.70609  1931.78716     2.17005    -4.51165     0.53968
  Kinetic  5524.77669  5515.77774  5597.22991     8.61992   -20.85149     5.76933
  Fock        0.00000     0.00000     0.00000     0.00000     0.00000     0.00000
  -------------------------------------------------------------------------------------
  Total     -35.41640   -38.24593    -3.48931     0.39207     0.58785     1.29989
  in kB     -42.18152   -45.55154    -4.15583     0.46697     0.70014     1.54819
  external pressure =      -30.63 kB  Pullay stress =        0.00 kB


 VOLUME and BASIS-vectors are now :
 -----------------------------------------------------------------------------
  energy-cutoff  :      450.00
  volume of cell :     1345.22
      direct lattice vectors                 reciprocal lattice vectors
     7.296955120 -4.212899000  0.000000000     0.137043463  0.000000000  0.000000000
     0.000000000  8.425798000  0.000000000     0.068521732  0.118683121  0.000000000
     0.000000000  0.000000000 21.879635000     0.000000000  0.000000000  0.045704602

  length of vectors
     8.425798004  8.425798000 21.879635000     0.137043463  0.137043463  0.045704602


 FORCES acting on ions
    electron-ion (+dipol)            ewald-force                    non-local-force                 convergence-correction
 -----------------------------------------------------------------------------------------------
   -.633E-01 0.174E+01 -.900E+03   -.623E+00 -.505E+01 0.891E+03   -.200E+00 0.374E+01 0.108E+02   0.834E-02 -.297E-01 -.690E-01
   -.824E+02 0.492E+02 -.161E+04   0.821E+02 -.453E+02 0.164E+04   0.860E+00 -.359E+01 -.246E+02   -.132E-01 0.362E-02 -.410E-01
   0.585E+02 -.921E+02 -.155E+04   -.671E+02 0.110E+03 0.161E+04   0.932E+01 -.181E+02 -.562E+02   0.526E-02 -.280E-02 -.233E-01
   0.919E+00 -.275E+00 0.234E+04   -.927E+00 0.276E+00 -.234E+04   0.158E-01 -.229E-01 -.119E+01   0.808E-02 -.313E-01 -.333E-01
   0.270E+00 0.920E+00 0.234E+04   -.240E+00 -.955E+00 -.234E+04   -.903E-02 -.192E-01 -.111E+01   -.516E-01 0.455E-02 -.413E-01
   -.367E+00 0.885E+00 0.234E+04   0.278E+00 -.864E+00 -.234E+04   0.265E-01 -.195E-01 -.113E+01   0.352E-01 0.123E-01 -.414E-01
   -.655E-01 0.288E+00 0.234E+04   0.851E-01 -.269E+00 -.234E+04   -.333E-02 0.989E-03 -.118E+01   0.322E-02 0.505E-01 -.281E-01
   0.599E+00 -.864E+00 0.234E+04   -.590E+00 0.833E+00 -.234E+04   -.127E-01 0.383E-01 -.126E+01   -.982E-02 0.544E-02 -.416E-01
   -.654E+00 0.316E+00 0.234E+04   0.610E+00 -.384E+00 -.234E+04   0.116E-01 0.218E-01 -.122E+01   0.622E-01 0.404E-01 -.394E-01
   -.993E-01 -.256E+00 0.234E+04   0.230E+00 0.115E+00 -.234E+04   -.684E-01 0.962E-01 -.113E+01   -.689E-01 -.100E-01 -.355E-01
   -.178E+00 -.116E+01 0.234E+04   0.145E+00 0.125E+01 -.234E+04   -.749E-02 -.216E-01 -.126E+01   0.471E-01 -.528E-01 -.403E-01
   -.352E+00 0.229E-02 0.234E+04   0.410E+00 -.112E-02 -.234E+04   -.137E-01 0.246E-02 -.105E+01   -.255E-01 -.190E-01 -.251E-01
   -.249E+01 0.385E+01 0.857E+03   0.242E+01 -.390E+01 -.856E+03   0.154E+00 -.861E-02 -.434E+00   -.659E-01 -.917E-02 -.345E-01
   -.349E+01 -.519E+00 0.856E+03   0.341E+01 0.616E+00 -.856E+03   0.158E+00 -.350E-01 -.124E+00   -.352E-03 -.195E-01 -.838E-02
   0.301E+01 -.791E+01 0.860E+03   -.290E+01 0.791E+01 -.860E+03   -.839E-01 0.156E+00 -.351E+00   0.289E-01 -.353E-01 -.584E-01
   0.583E+01 -.183E+01 0.867E+03   -.592E+01 0.182E+01 -.866E+03   -.554E-02 0.110E+00 -.451E+00   -.277E-01 -.433E-02 -.174E-01
   -.284E+01 0.885E+01 0.866E+03   0.282E+01 -.889E+01 -.866E+03   0.850E-01 -.850E-01 -.419E+00   0.149E-01 0.248E-01 -.451E-02
   0.398E+01 0.455E+01 0.856E+03   -.399E+01 -.459E+01 -.856E+03   -.116E+00 -.180E-01 -.490E-01   0.353E-01 0.177E-01 -.166E-01
   0.580E+00 -.358E+01 0.859E+03   -.565E+00 0.367E+01 -.859E+03   -.493E-01 -.782E-02 -.254E+00   -.413E-01 0.131E-01 -.279E-01
   -.584E+00 -.761E+01 0.870E+03   0.567E+00 0.767E+01 -.869E+03   0.415E-01 0.988E-01 -.612E+00   0.242E-01 -.546E-02 -.395E-01
   -.390E+01 0.367E+01 0.863E+03   0.399E+01 -.357E+01 -.863E+03   -.258E-01 -.997E-01 -.337E+00   0.319E-01 0.177E-01 -.662E-01
   -.515E+01 0.289E+01 -.625E+03   0.502E+01 -.291E+01 0.624E+03   0.228E+00 -.253E+00 -.466E-01   -.145E-01 0.122E-01 0.289E-01
   -.651E+00 -.784E+01 -.639E+03   0.698E+00 0.789E+01 0.639E+03   0.823E-01 0.196E+00 0.225E+00   -.330E-01 0.159E-02 0.131E-01
   0.741E+00 0.613E+01 -.666E+03   -.108E+01 -.592E+01 0.666E+03   0.324E+00 -.192E+00 -.479E+00   0.146E-01 0.378E-01 0.387E-01
   0.272E+01 0.164E+02 -.624E+03   -.318E+01 -.157E+02 0.625E+03   0.224E+00 -.752E+00 -.152E+00   0.155E-01 0.112E-01 -.219E-01
   0.137E+02 0.914E+01 -.628E+03   -.131E+02 -.928E+01 0.628E+03   -.802E+00 -.114E+00 -.370E+00   0.566E-02 0.112E-01 0.534E-01
   -.119E+02 -.140E+02 -.641E+03   0.117E+02 0.139E+02 0.640E+03   0.400E+00 0.443E-01 0.139E+00   -.386E-02 -.187E-01 -.161E-01
   -.352E+01 -.226E+01 -.634E+03   0.355E+01 0.231E+01 0.633E+03   -.935E-01 -.116E+00 0.120E+01   0.175E-01 -.130E-01 -.537E-01
   -.132E+01 -.147E+01 -.613E+03   0.148E+01 0.147E+01 0.612E+03   -.157E+00 -.853E-01 0.954E+00   -.182E-01 -.108E-01 0.146E-02
   0.382E+01 -.239E+01 -.638E+03   -.386E+01 0.233E+01 0.638E+03   -.174E-01 -.418E-02 0.234E+00   0.172E-01 -.203E-01 0.251E-01
   -.177E+02 -.476E+01 -.214E+04   0.185E+02 0.498E+01 0.214E+04   -.670E+00 -.170E+00 0.160E+01   -.350E-01 -.183E-02 -.124E-02
   0.165E+02 0.359E+02 -.217E+04   -.169E+02 -.369E+02 0.217E+04   0.507E+00 0.923E+00 0.113E+01   -.115E-01 0.597E-01 0.322E-01
   0.494E+02 -.170E+02 -.210E+04   -.496E+02 0.168E+02 0.210E+04   -.195E+00 0.462E+00 0.154E+01   0.383E-01 -.223E-01 -.451E-02
   -.229E+02 -.733E+01 -.219E+04   0.224E+02 0.689E+01 0.219E+04   0.543E+00 0.575E+00 0.882E+00   0.233E-01 -.107E-01 0.232E-01
   0.373E+02 0.193E+02 -.218E+04   -.373E+02 -.196E+02 0.217E+04   -.469E+00 0.815E-01 0.991E+00   0.328E-01 0.229E-01 0.692E-02
   0.764E+02 0.615E+02 -.199E+04   -.793E+02 -.599E+02 0.199E+04   0.269E+01 -.142E+01 -.382E+01   0.219E-01 -.586E-02 0.295E-01
   -.681E+02 -.587E+02 -.207E+04   0.693E+02 0.611E+02 0.206E+04   -.992E+00 -.222E+01 0.271E+01   -.290E-01 -.502E-01 -.537E-02
   -.795E+02 0.104E+03 -.200E+04   0.798E+02 -.105E+03 0.201E+04   -.547E-01 0.361E-01 -.811E+00   -.334E-01 0.714E-01 0.146E-01
   0.227E+02 -.755E+02 -.214E+04   -.224E+02 0.771E+02 0.214E+04   -.360E+00 -.132E+01 0.744E+00   -.538E-02 -.665E-01 0.380E-01
 -----------------------------------------------------------------------------------------------
   -.112E+02 0.222E+02 0.775E+02   0.497E-13 0.711E-13 -.123E-10   0.113E+02 -.221E+02 -.770E+02   0.332E-02 -.216E-01 -.531E+00
 
 
 POSITION                                       TOTAL-FORCE (eV/Angst)
 -----------------------------------------------------------------------------------
      5.06731      0.70724     10.31685        -0.879000      0.401589      2.339350
      6.66458     -0.60441     10.12995         0.529240      0.275885      0.206762
      4.89653      1.06925     11.43206         0.691677     -0.526586     -1.722582
      7.20031     -1.38846      1.62732         0.014160     -0.055907      0.156381
      2.33567      1.42014      1.62732        -0.032416     -0.052849      0.109776
      4.76799      0.01584      1.62732        -0.029382      0.010369      0.162152
      7.20031      1.42015      1.62732         0.018258      0.068187      0.102969
      2.33567      4.22875      1.62732        -0.014777      0.009583      0.159252
      4.76799      2.82445      1.62732         0.028384     -0.008172      0.123533
      2.33567      7.03734      1.62732        -0.008338     -0.057900      0.032879
      4.76799      5.63304      1.62732         0.005814      0.012276      0.155584
      7.20031      4.22874      1.62732         0.017700     -0.018390      0.018215
      1.52490      0.01584      3.92052         0.022138     -0.069822     -0.122346
      3.95722     -1.38846      3.92052         0.072099      0.039722      0.190261
      6.38953     -2.79276      3.92052         0.059517      0.116484     -0.169764
      1.52490      2.82445      3.92052        -0.127915      0.088159     -0.275597
      3.95722      1.42015      3.92052         0.072323     -0.101381     -0.124441
      6.38953      0.01585      3.92052        -0.092623     -0.037366      0.161994
      1.52490      5.63305      3.92052        -0.076485      0.092745     -0.057302
      3.95722      4.22874      3.92052         0.047662      0.150793     -0.302871
      6.38953      2.82445      3.92052         0.095118      0.016277     -0.263102
      0.69424      4.24042      6.20682         0.085034     -0.260395     -0.405847
      3.13947      5.61861      6.20243         0.094750      0.241652     -0.183973
      5.55693     -1.39281      6.27792        -0.003360      0.057019     -0.464164
      0.71107      1.45241      6.17320        -0.222675     -0.064964      0.365235
      3.17973      0.00542      6.21367        -0.122541     -0.253480     -0.378586
      0.69630      7.05236      6.20667         0.215539     -0.036704     -0.169404
      5.58179      4.23921      6.16103        -0.045963     -0.076798      0.574533
      3.16840      2.82981      6.13634        -0.012581     -0.098924      0.536203
      5.57011      1.42663      6.21863        -0.044642     -0.085417     -0.152570
      2.36595      4.18636      8.42073         0.081666      0.049365      0.239675
      4.74975      5.56173      8.53669         0.048205     -0.035741     -0.377665
      2.35790      1.36211      8.38443        -0.342893      0.272316      0.315210
      7.18713      4.18664      8.53121         0.074909      0.112680     -0.318623
      2.35735      7.00087      8.49724        -0.396941     -0.207126     -0.061828
      4.67339     -0.00963      8.63635        -0.198946      0.168866     -0.623801
      7.23032      1.42488      8.43322         0.206746      0.136078      0.385883
      7.23821     -1.45406      8.50459         0.217513     -0.426222      0.447910
      4.79289      2.81920      8.58293        -0.046974      0.154101     -0.609291
 -----------------------------------------------------------------------------------
    total drift:                                0.049869      0.118824      0.064355
  FORCES: max atom, RMS     2.531101    0.611109
  Number: max atom                 1
  FORCE total and by dimension    3.816371    2.339350


--------------------------------------------------------------------------------------------------------



  FREE ENERGIE OF THE ION-ELECTRON SYSTEM (eV)
  ---------------------------------------------------
  free  energy   TOTEN  =      -230.38375337 eV

  energy  without entropy=     -230.35632247  energy(sigma->0) =     -230.37460974
 
 d Force = 0.6848471E-01[-0.404E-02, 0.141E+00]  d Energy = 0.6569174E-01 0.279E-02
 d Force = 0.1289229E+02[ 0.125E+02, 0.133E+02]  d Ewald  = 0.1288887E+02 0.342E-02


--------------------------------------------------------------------------------------------------------


    POTLOK:  cpu time    0.1424: real time    0.2737


--------------------------------------------------------------------------------------------------------


 stress matrix after NEB project (eV)
    -35.41640      0.39207      1.29989
      0.39207    -38.24593      0.58785
      1.29989      0.58785     -3.48931
  FORCES: max atom, RMS     2.531101    0.611109
  FORCE total and by dimension    3.816371    2.339350
  Stress total and by dimension   52.284093   38.245934
 Quasi-Newton relaxation of ions (Broydens 2nd method)
  g(Force)  = 0.281E+00   g(Stress)= 0.000E+00

 retain information from N=  2 steps
 eigenvalues of (default step * inverse Hessian matrix)
  average eigenvalue of G=   0.8999
 eigenvalue spectrum of G is  0.8999  0.8999
  RESET_HESSIAN           0


--------------------------------------------------------------------------------------------------------


    WAVPRE:  cpu time    0.0737: real time    0.3894
    FEWALD:  cpu time    0.0044: real time    0.0044

 real space projection operators:
  total allocation   :      13543.30 KBytes
  max/ min on nodes  :       6780.86       6762.44

    ORTHCH:  cpu time    1.0395: real time    1.0565
     LOOP+:  cpu time   61.9923: real time   63.1227


--------------------------------------- Iteration      4(   1)  ---------------------------------------


    POTLOK:  cpu time    0.1802: real time    0.2122
    SETDIJ:  cpu time    0.0185: real time    0.0188
