 running on    8 total cores
 distrk:  each k-point on    8 cores,    1 groups
 distr:  one band on    2 cores,    4 groups
 using from now: INCAR     
 vasp.5.4.4 16052018 (build Apr 24 2014 20:13:14) complex standard
 Contain Constrained Minimization Technique (TS), Periodic NBO, VASPsol, libbeef, VASP2WANNIER90, Constrained Cell Relaxation
 POSCAR found type information on POSCAR  C  O  Pt
 POSCAR found :  3 types and      39 ions
 scaLAPACK will be used
 LDA part: xc-table for Pade appr. of Perdew
 POSCAR found type information on POSCAR  C  O  Pt
 POSCAR found :  3 types and      39 ions
 POSCAR, INCAR and KPOINTS ok, starting setup
 FFT: planning ...
 WAVECAR not read
 entering main loop
       N       E                     dE             d eps       ncg     rms          rms(c)
DAV:   1     0.242407819172E+04    0.24241E+04   -0.15955E+05  1824   0.129E+03
DAV:   2    -0.635679967276E+02   -0.24876E+04   -0.23112E+04  2120   0.286E+02
DAV:   3    -0.240898736788E+03   -0.17733E+03   -0.16111E+03  2160   0.691E+01
DAV:   4    -0.248578631259E+03   -0.76799E+01   -0.74128E+01  2384   0.137E+01
DAV:   5    -0.248787622877E+03   -0.20899E+00   -0.20724E+00  2304   0.233E+00    0.277E+01
RMM:   6    -0.245982152105E+03    0.28055E+01   -0.57130E+01  1829   0.151E+01    0.294E+01
RMM:   7    -0.242384254765E+03    0.35979E+01   -0.33289E+01  1831   0.912E+00    0.202E+01
RMM:   8    -0.244057005595E+03   -0.16728E+01   -0.94364E+00  1826   0.477E+00    0.225E+01
RMM:   9    -0.231854166211E+03    0.12203E+02   -0.46289E+00  1831   0.351E+00    0.913E+00
RMM:  10    -0.230764062047E+03    0.10901E+01   -0.16579E+00  1831   0.209E+00    0.568E+00
RMM:  11    -0.230309762788E+03    0.45430E+00   -0.48956E-01  1831   0.112E+00    0.311E+00
RMM:  12    -0.230170559304E+03    0.13920E+00   -0.20149E-01  1837   0.705E-01    0.209E+00
RMM:  13    -0.230171466321E+03   -0.90702E-03   -0.13911E-01  1835   0.612E-01    0.201E+00
RMM:  14    -0.230116788991E+03    0.54677E-01   -0.78460E-02  1831   0.494E-01    0.824E-01
RMM:  15    -0.230112088582E+03    0.47004E-02   -0.33404E-02  1832   0.321E-01    0.620E-01
RMM:  16    -0.230107676879E+03    0.44117E-02   -0.83112E-03  1830   0.155E-01    0.332E-01
RMM:  17    -0.230106307787E+03    0.13691E-02   -0.20637E-03  1820   0.790E-02    0.145E-01
RMM:  18    -0.230106559336E+03   -0.25155E-03   -0.89177E-04  1782   0.507E-02    0.130E-01
RMM:  19    -0.230106604075E+03   -0.44739E-04   -0.43853E-04  1375   0.374E-02
   1 F= -.23010660E+03 E0= -.23009852E+03  d E =-.230107E+03
 BRION: g(F)=  0.268E+00 g(S)=  0.000E+00
 bond charge predicted
       N       E                     dE             d eps       ncg     rms          rms(c)
DAV:   1    -0.230279234453E+03   -0.17268E+00   -0.26690E+01  1852   0.943E+00    0.642E-01
RMM:   2    -0.230335986794E+03   -0.56752E-01   -0.48537E-01  1831   0.148E+00    0.117E+00
RMM:   3    -0.230331468346E+03    0.45184E-02   -0.33633E-02  1891   0.322E-01    0.901E-01
RMM:   4    -0.230323349177E+03    0.81192E-02   -0.82267E-03  1844   0.154E-01    0.555E-01
RMM:   5    -0.230319255773E+03    0.40934E-02   -0.33423E-03  1836   0.964E-02    0.336E-01
RMM:   6    -0.230319219056E+03    0.36717E-04   -0.48541E-03  1825   0.117E-01    0.293E-01
RMM:   7    -0.230318619904E+03    0.59915E-03   -0.42267E-03  1825   0.110E-01    0.192E-01
RMM:   8    -0.230318184680E+03    0.43522E-03   -0.11638E-03  1817   0.581E-02    0.100E-01
RMM:   9    -0.230318068655E+03    0.11603E-03   -0.24323E-04  1052   0.285E-02    0.519E-02
RMM:  10    -0.230318061628E+03    0.70271E-05   -0.81394E-05   961   0.179E-02
   2 F= -.23031806E+03 E0= -.23030946E+03  d E =-.211458E+00
 BRION: g(F)=  0.209E+00 g(S)=  0.000E+00 retain N=  1 mean eig= 0.89
 eig:   0.886
 bond charge predicted
       N       E                     dE             d eps       ncg     rms          rms(c)
DAV:   1    -0.230366053435E+03   -0.47985E-01   -0.95772E+00  1840   0.576E+00    0.540E-01
RMM:   2    -0.230391752249E+03   -0.25699E-01   -0.28955E-01  1838   0.969E-01    0.512E-01
RMM:   3    -0.230387637430E+03    0.41148E-02   -0.13930E-02  1839   0.206E-01    0.411E-01
RMM:   4    -0.230385804020E+03    0.18334E-02   -0.60148E-03  1835   0.133E-01    0.317E-01
RMM:   5    -0.230385706454E+03    0.97566E-04   -0.49112E-03  1832   0.118E-01    0.329E-01
RMM:   6    -0.230386275300E+03   -0.56885E-03   -0.18173E-03  1820   0.686E-02    0.405E-01
RMM:   7    -0.230384052540E+03    0.22228E-02   -0.91060E-04  1754   0.481E-02    0.167E-01
RMM:   8    -0.230383852033E+03    0.20051E-03   -0.41417E-04  1310   0.345E-02    0.101E-01
RMM:   9    -0.230383753371E+03    0.98663E-04   -0.12266E-04   981   0.215E-02
   3 F= -.23038375E+03 E0= -.23037461E+03  d E =-.656917E-01
 BRION: g(F)=  0.281E+00 g(S)=  0.000E+00 retain N=  2 mean eig= 0.90
 eig:   0.900  0.900
 bond charge predicted
       N       E                     dE             d eps       ncg     rms          rms(c)
[mpiexec@node09] Sending Ctrl-C to processes as requested
[mpiexec@node09] Press Ctrl-C again to force abort
