metal                                   
           1
     7.296955   -4.212899    0.000000
     0.000000    8.425798    0.000000
     0.000000    0.000000   21.879635
   C    O    Pt
   1   2  36
Direct configuration=     1
   0.69734458  0.43346697  0.47131055
   0.91104120  0.38276265  0.46229948
   0.66920803  0.46032285  0.52119908
   0.98675500  0.32859100  0.07437600
   0.32008800  0.32859100  0.07437600
   0.65342200  0.32859100  0.07437600
   0.98675500  0.66192500  0.07437600
   0.32008800  0.66192500  0.07437600
   0.65342200  0.66192500  0.07437600
   0.32008800  0.99525800  0.07437600
   0.65342200  0.99525800  0.07437600
   0.98675500  0.99525800  0.07437600
   0.20897700  0.10636900  0.17918600
   0.54231100  0.10636900  0.17918600
   0.87564400  0.10636900  0.17918600
   0.20897700  0.43970300  0.17918600
   0.54231100  0.43970300  0.17918600
   0.87564400  0.43970300  0.17918600
   0.20897700  0.77303600  0.17918600
   0.54231100  0.77303600  0.17918600
   0.87564400  0.77303600  0.17918600
   0.09470608  0.55223004  0.28473395
   0.42947976  0.87992463  0.28385856
   0.76195711  0.21539228  0.28785614
   0.09873957  0.22199802  0.28133872
   0.43596423  0.22034263  0.28489486
   0.09380744  0.88361494  0.28402146
   0.76522174  0.88601493  0.28033574
   0.43405997  0.55336620  0.27935475
   0.76417584  0.55176453  0.28454026
   0.32341976  0.65861300  0.38435847
   0.65056644  0.98605671  0.39082092
   0.32514047  0.32258668  0.38260457
   0.98471572  0.98857847  0.39056572
   0.32540196  0.99468211  0.38845277
   0.64174582  0.31940904  0.39618348
   0.98973860  0.66280425  0.38455818
   0.99003413  0.32513935  0.38823022
   0.65712792  0.66216004  0.39337020
Direct configuration=     2
   0.69541556  0.43271711  0.47218589
   0.91237005  0.38407942  0.46284017
   0.67061784  0.46136946  0.52152459
   0.98675500  0.32859100  0.07437600
   0.32008800  0.32859100  0.07437600
   0.65342200  0.32859100  0.07437600
   0.98675500  0.66192500  0.07437600
   0.32008800  0.66192500  0.07437600
   0.65342200  0.66192500  0.07437600
   0.32008800  0.99525800  0.07437600
   0.65342200  0.99525800  0.07437600
   0.98675500  0.99525800  0.07437600
   0.20897700  0.10636900  0.17918600
   0.54231100  0.10636900  0.17918600
   0.87564400  0.10636900  0.17918600
   0.20897700  0.43970300  0.17918600
   0.54231100  0.43970300  0.17918600
   0.87564400  0.43970300  0.17918600
   0.20897700  0.77303600  0.17918600
   0.54231100  0.77303600  0.17918600
   0.87564400  0.77303600  0.17918600
   0.09497868  0.55125652  0.28400148
   0.43002768  0.88136177  0.28360351
   0.76161435  0.21540653  0.28725651
   0.09789387  0.22143405  0.28187896
   0.43593563  0.21912560  0.28427773
   0.09492938  0.88445482  0.28378656
   0.76504255  0.88576175  0.28117172
   0.43419763  0.55311186  0.28008010
   0.76351776  0.55121006  0.28432322
   0.32401460  0.65882081  0.38469957
   0.65081542  0.98564533  0.39040804
   0.32382311  0.32304801  0.38300052
   0.98483276  0.98908281  0.39013967
   0.32389456  0.99321638  0.38839996
   0.64068366  0.31877728  0.39501597
   0.99045941  0.66402936  0.38515973
   0.99141958  0.32393620  0.38842787
   0.65693362  0.66275026  0.39268568
Direct configuration=     3
   0.69444235  0.43115903  0.47152750
   0.91333684  0.38493536  0.46298529
   0.67103725  0.46242014  0.52249787
   0.98675500  0.32859100  0.07437600
   0.32008800  0.32859100  0.07437600
   0.65342200  0.32859100  0.07437600
   0.98675500  0.66192500  0.07437600
   0.32008800  0.66192500  0.07437600
   0.65342200  0.66192500  0.07437600
   0.32008800  0.99525800  0.07437600
   0.65342200  0.99525800  0.07437600
   0.98675500  0.99525800  0.07437600
   0.20897700  0.10636900  0.17918600
   0.54231100  0.10636900  0.17918600
   0.87564400  0.10636900  0.17918600
   0.20897700  0.43970300  0.17918600
   0.54231100  0.43970300  0.17918600
   0.87564400  0.43970300  0.17918600
   0.20897700  0.77303600  0.17918600
   0.54231100  0.77303600  0.17918600
   0.87564400  0.77303600  0.17918600
   0.09514077  0.55083664  0.28368003
   0.43024317  0.88195548  0.28347975
   0.76154112  0.21546794  0.28692994
   0.09744756  0.22109987  0.28214362
   0.43576116  0.21852379  0.28399313
   0.09542355  0.88470734  0.28367345
   0.76494846  0.88559733  0.28158761
   0.43420787  0.55295420  0.28045913
   0.76334716  0.55098996  0.28422003
   0.32423773  0.65896917  0.38486608
   0.65092270  0.98554459  0.39016619
   0.32313434  0.32322650  0.38320683
   0.98494856  0.98935808  0.38991574
   0.32305900  0.99241481  0.38836278
   0.64045768  0.31908607  0.39472103
   0.99086783  0.66454355  0.38543690
   0.99194889  0.32340200  0.38869879
   0.65683368  0.66300877  0.39227946
