       N       E                     dE             d eps       ncg     rms          rms(c)
DAV:   1     0.241907688810E+04    0.24191E+04   -0.15951E+05  1824   0.129E+03
DAV:   2    -0.618168803165E+02   -0.24809E+04   -0.23035E+04  2104   0.286E+02
DAV:   3    -0.240478578832E+03   -0.17866E+03   -0.16214E+03  2184   0.690E+01
DAV:   4    -0.248146132369E+03   -0.76676E+01   -0.73758E+01  2376   0.137E+01
DAV:   5    -0.248353434919E+03   -0.20730E+00   -0.20548E+00  2328   0.231E+00    0.274E+01
RMM:   6    -0.250081671028E+03   -0.17282E+01   -0.54893E+01  1833   0.148E+01    0.323E+01
RMM:   7    -0.253683188141E+03   -0.36015E+01   -0.34593E+01  1828   0.900E+00    0.271E+01
RMM:   8    -0.241296941820E+03    0.12386E+02   -0.12073E+01  1830   0.514E+00    0.223E+01
RMM:   9    -0.231478449005E+03    0.98185E+01   -0.70547E+00  1830   0.450E+00    0.848E+00
RMM:  10    -0.230254493836E+03    0.12240E+01   -0.18697E+00  1830   0.227E+00    0.436E+00
RMM:  11    -0.230057598211E+03    0.19690E+00   -0.43914E-01  1833   0.100E+00    0.339E+00
RMM:  12    -0.229923813991E+03    0.13378E+00   -0.18011E-01  1841   0.673E-01    0.195E+00
RMM:  13    -0.229947763127E+03   -0.23949E-01   -0.13613E-01  1832   0.627E-01    0.206E+00
RMM:  14    -0.229897514691E+03    0.50248E-01   -0.11159E-01  1830   0.573E-01    0.105E+00
RMM:  15    -0.229882460450E+03    0.15054E-01   -0.27345E-02  1830   0.284E-01    0.625E-01
RMM:  16    -0.229876701753E+03    0.57587E-02   -0.61229E-03  1832   0.134E-01    0.221E-01
RMM:  17    -0.229876527222E+03    0.17453E-03   -0.15313E-03  1828   0.645E-02    0.155E-01
RMM:  18    -0.229877008283E+03   -0.48106E-03   -0.10518E-03  1783   0.538E-02    0.139E-01
RMM:  19    -0.229876879386E+03    0.12890E-03   -0.38873E-04  1313   0.347E-02    0.726E-02
RMM:  20    -0.229876938215E+03   -0.58829E-04   -0.13350E-04  1019   0.210E-02
   1 F= -.22987694E+03 E0= -.22987193E+03  d E =-.229877E+03
       N       E                     dE             d eps       ncg     rms          rms(c)
DAV:   1    -0.230122870426E+03   -0.24599E+00   -0.33912E+01  1856   0.106E+01    0.919E-01
RMM:   2    -0.230301415170E+03   -0.17854E+00   -0.64850E-01  1835   0.168E+00    0.279E+00
RMM:   3    -0.230183338176E+03    0.11808E+00   -0.59411E-02  1860   0.416E-01    0.930E-01
RMM:   4    -0.230171896156E+03    0.11442E-01   -0.18719E-02  1844   0.233E-01    0.586E-01
RMM:   5    -0.230169202546E+03    0.26936E-02   -0.76291E-03  1836   0.146E-01    0.477E-01
RMM:   6    -0.230168274503E+03    0.92804E-03   -0.83805E-03  1832   0.156E-01    0.334E-01
RMM:   7    -0.230167216613E+03    0.10579E-02   -0.37802E-03  1833   0.103E-01    0.186E-01
RMM:   8    -0.230166854823E+03    0.36179E-03   -0.11682E-03  1814   0.586E-02    0.113E-01
RMM:   9    -0.230166737803E+03    0.11702E-03   -0.29706E-04  1126   0.309E-02    0.622E-02
RMM:  10    -0.230166733704E+03    0.40985E-05   -0.94092E-05   966   0.195E-02
   2 F= -.23016673E+03 E0= -.23016105E+03  d E =-.289795E+00
       N       E                     dE             d eps       ncg     rms          rms(c)
DAV:   1    -0.230256993157E+03   -0.90255E-01   -0.10349E+01  1848   0.599E+00    0.574E-01
RMM:   2    -0.230310306519E+03   -0.53313E-01   -0.37066E-01  1847   0.974E-01    0.120E+00
RMM:   3    -0.230289249635E+03    0.21057E-01   -0.16055E-02  1840   0.213E-01    0.600E-01
RMM:   4    -0.230284677263E+03    0.45724E-02   -0.54926E-03  1840   0.124E-01    0.376E-01
RMM:   5    -0.230283797537E+03    0.87973E-03   -0.55022E-03  1831   0.119E-01    0.360E-01
RMM:   6    -0.230282948441E+03    0.84910E-03   -0.52649E-03  1829   0.119E-01    0.318E-01
RMM:   7    -0.230281599974E+03    0.13485E-02   -0.17900E-03  1823   0.701E-02    0.998E-02
RMM:   8    -0.230281523341E+03    0.76633E-04   -0.35212E-04  1232   0.332E-02
   3 F= -.23028152E+03 E0= -.23027561E+03  d E =-.114790E+00
       N       E                     dE             d eps       ncg     rms          rms(c)
DAV:   1    -0.230332334547E+03   -0.50735E-01   -0.20763E+02  1824   0.266E+01    0.233E+00
RMM:   2    -0.231899406696E+03   -0.15671E+01   -0.41267E+00  1833   0.419E+00    0.908E+00
RMM:   3    -0.230735905989E+03    0.11635E+01   -0.42338E-01  1845   0.111E+00    0.250E+00
RMM:   4    -0.230643096643E+03    0.92809E-01   -0.13654E-01  1838   0.625E-01    0.149E+00
RMM:   5    -0.230626682377E+03    0.16414E-01   -0.41465E-02  1834   0.336E-01    0.117E+00
RMM:   6    -0.230619892546E+03    0.67898E-02   -0.39048E-02  1832   0.333E-01    0.709E-01
RMM:   7    -0.230618988038E+03    0.90451E-03   -0.26426E-02  1833   0.274E-01    0.599E-01
RMM:   8    -0.230614123245E+03    0.48648E-02   -0.90188E-03  1832   0.162E-01    0.282E-01
RMM:   9    -0.230613024757E+03    0.10985E-02   -0.21783E-03  1828   0.804E-02    0.145E-01
RMM:  10    -0.230612738200E+03    0.28656E-03   -0.62248E-04  1709   0.437E-02    0.885E-02
RMM:  11    -0.230612662781E+03    0.75419E-04   -0.25656E-04  1040   0.289E-02
   4 F= -.23061266E+03 E0= -.23060473E+03  d E =-.331139E+00
       N       E                     dE             d eps       ncg     rms          rms(c)
DAV:   1    -0.230620933330E+03   -0.81951E-02   -0.10317E+01  1824   0.579E+00    0.541E-01
RMM:   2    -0.230683325518E+03   -0.62392E-01   -0.21622E-01  1833   0.936E-01    0.178E+00
RMM:   3    -0.230640861948E+03    0.42464E-01   -0.21032E-02  1855   0.246E-01    0.549E-01
RMM:   4    -0.230637992430E+03    0.28695E-02   -0.65506E-03  1840   0.139E-01    0.387E-01
RMM:   5    -0.230636343174E+03    0.16493E-02   -0.23548E-03  1829   0.802E-02    0.260E-01
RMM:   6    -0.230636189866E+03    0.15331E-03   -0.24251E-03  1824   0.846E-02    0.176E-01
RMM:   7    -0.230635947327E+03    0.24254E-03   -0.13429E-03  1822   0.620E-02    0.114E-01
RMM:   8    -0.230635753820E+03    0.19351E-03   -0.36795E-04  1267   0.345E-02    0.580E-02
RMM:   9    -0.230635713689E+03    0.40131E-04   -0.99183E-05   963   0.189E-02
   5 F= -.23063571E+03 E0= -.23062815E+03  d E =-.230509E-01
       N       E                     dE             d eps       ncg     rms          rms(c)
