metal                                   
           1
     7.296955   -4.212899    0.000000
     0.000000    8.425798    0.000000
     0.000000    0.000000   21.879635
   C    O    Pt
   1   2  36
Direct configuration=     1
   0.70120410  0.43980542  0.47883248
   0.90468877  0.38644951  0.46682779
   0.67306755  0.46666130  0.52872102
   0.98675500  0.32859100  0.07437600
   0.32008800  0.32859100  0.07437600
   0.65342200  0.32859100  0.07437600
   0.98675500  0.66192500  0.07437600
   0.32008800  0.66192500  0.07437600
   0.65342200  0.66192500  0.07437600
   0.32008800  0.99525800  0.07437600
   0.65342200  0.99525800  0.07437600
   0.98675500  0.99525800  0.07437600
   0.20897700  0.10636900  0.17918600
   0.54231100  0.10636900  0.17918600
   0.87564400  0.10636900  0.17918600
   0.20897700  0.43970300  0.17918600
   0.54231100  0.43970300  0.17918600
   0.87564400  0.43970300  0.17918600
   0.20897700  0.77303600  0.17918600
   0.54231100  0.77303600  0.17918600
   0.87564400  0.77303600  0.17918600
   0.09268229  0.54771825  0.28167818
   0.43294942  0.88328118  0.28004662
   0.76610342  0.21892849  0.28041439
   0.09813111  0.22100652  0.28003522
   0.43283883  0.21535413  0.28059823
   0.10212587  0.88502146  0.27767192
   0.75981102  0.87824842  0.27880127
   0.43250814  0.54893712  0.28231771
   0.76265656  0.54741499  0.28034260
   0.32165336  0.66131572  0.38181755
   0.65160252  0.98955264  0.38354176
   0.32522452  0.32402753  0.38952827
   0.98995624  0.98679183  0.39016701
   0.31733639  0.98707748  0.38794024
   0.64535156  0.31878058  0.39364230
   0.99475369  0.66930087  0.38529915
   0.99765431  0.31759052  0.39001514
   0.66018450  0.66805089  0.39051399
Direct configuration=     2
   0.69984722  0.43615886  0.47741744
   0.90579341  0.38702996  0.46606128
   0.67401861  0.46714325  0.52849834
   0.98675500  0.32859100  0.07437600
   0.32008800  0.32859100  0.07437600
   0.65342200  0.32859100  0.07437600
   0.98675500  0.66192500  0.07437600
   0.32008800  0.66192500  0.07437600
   0.65342200  0.66192500  0.07437600
   0.32008800  0.99525800  0.07437600
   0.65342200  0.99525800  0.07437600
   0.98675500  0.99525800  0.07437600
   0.20897700  0.10636900  0.17918600
   0.54231100  0.10636900  0.17918600
   0.87564400  0.10636900  0.17918600
   0.20897700  0.43970300  0.17918600
   0.54231100  0.43970300  0.17918600
   0.87564400  0.43970300  0.17918600
   0.20897700  0.77303600  0.17918600
   0.54231100  0.77303600  0.17918600
   0.87564400  0.77303600  0.17918600
   0.09343493  0.54783200  0.28183173
   0.43248016  0.88348338  0.28035675
   0.76541493  0.21849903  0.28116071
   0.09760202  0.22018786  0.28110723
   0.43303710  0.21573492  0.28138753
   0.10089020  0.88471323  0.27888189
   0.76159246  0.87927041  0.27975125
   0.43228446  0.54827815  0.28255111
   0.76282389  0.54772558  0.28107564
   0.32200471  0.66100057  0.38221138
   0.65217322  0.98976379  0.38350903
   0.32466311  0.32375251  0.38887505
   0.98999219  0.98772235  0.38949666
   0.31783046  0.98782646  0.38760244
   0.64550042  0.32113207  0.39463219
   0.99420291  0.66874327  0.38513135
   0.99682762  0.31801178  0.39072974
   0.65983231  0.66735788  0.38997075
Direct configuration=     3
   0.69867782  0.43511010  0.47796670
   0.90640566  0.38742968  0.46579268
   0.67505310  0.46671215  0.52726580
   0.98675500  0.32859100  0.07437600
   0.32008800  0.32859100  0.07437600
   0.65342200  0.32859100  0.07437600
   0.98675500  0.66192500  0.07437600
   0.32008800  0.66192500  0.07437600
   0.65342200  0.66192500  0.07437600
   0.32008800  0.99525800  0.07437600
   0.65342200  0.99525800  0.07437600
   0.98675500  0.99525800  0.07437600
   0.20897700  0.10636900  0.17918600
   0.54231100  0.10636900  0.17918600
   0.87564400  0.10636900  0.17918600
   0.20897700  0.43970300  0.17918600
   0.54231100  0.43970300  0.17918600
   0.87564400  0.43970300  0.17918600
   0.20897700  0.77303600  0.17918600
   0.54231100  0.77303600  0.17918600
   0.87564400  0.77303600  0.17918600
   0.09374198  0.54783259  0.28189600
   0.43229658  0.88352706  0.28048001
   0.76516797  0.21838562  0.28148395
   0.09735897  0.21988828  0.28154271
   0.43313180  0.21587984  0.28170278
   0.10041932  0.88458220  0.27933631
   0.76224400  0.87967644  0.28011462
   0.43221975  0.54809043  0.28262483
   0.76290647  0.54781714  0.28136192
   0.32217005  0.66090449  0.38240881
   0.65237352  0.98986596  0.38353823
   0.32436605  0.32363777  0.38860686
   0.98997647  0.98813856  0.38922380
   0.31809970  0.98814474  0.38747515
   0.64533334  0.32200058  0.39497384
   0.99403204  0.66851797  0.38508745
   0.99653069  0.31815810  0.39101120
   0.65963764  0.66710364  0.38972203
Direct configuration=     4
   0.69313023  0.42452279  0.47563344
   0.91090430  0.38997189  0.46403736
   0.67894277  0.46765323  0.52534484
   0.98675500  0.32859100  0.07437600
   0.32008800  0.32859100  0.07437600
   0.65342200  0.32859100  0.07437600
   0.98675500  0.66192500  0.07437600
   0.32008800  0.66192500  0.07437600
   0.65342200  0.66192500  0.07437600
   0.32008800  0.99525800  0.07437600
   0.65342200  0.99525800  0.07437600
   0.98675500  0.99525800  0.07437600
   0.20897700  0.10636900  0.17918600
   0.54231100  0.10636900  0.17918600
   0.87564400  0.10636900  0.17918600
   0.20897700  0.43970300  0.17918600
   0.54231100  0.43970300  0.17918600
   0.87564400  0.43970300  0.17918600
   0.20897700  0.77303600  0.17918600
   0.54231100  0.77303600  0.17918600
   0.87564400  0.77303600  0.17918600
   0.09561959  0.54774812  0.28229569
   0.43118152  0.88372446  0.28122207
   0.76366298  0.21776246  0.28349724
   0.09580285  0.21808582  0.28418056
   0.43374743  0.21672212  0.28361805
   0.09760756  0.88374676  0.28207302
   0.76614251  0.88216910  0.28227934
   0.43184554  0.54704639  0.28303724
   0.76343023  0.54833682  0.28310506
   0.32321265  0.66037501  0.38367958
   0.65356130  0.99055420  0.38379158
   0.32243834  0.32295793  0.38697326
   0.98980971  0.99071342  0.38757174
   0.31982327  0.99010045  0.38672075
   0.64434760  0.32758053  0.39716562
   0.99308613  0.66711773  0.38484099
   0.99481446  0.31908616  0.39278877
   0.65837218  0.66563483  0.38810011
Direct configuration=     5
   0.69335328  0.42557185  0.47639227
   0.91130531  0.39049571  0.46449805
   0.67868373  0.46765134  0.52573507
   0.98675500  0.32859100  0.07437600
   0.32008800  0.32859100  0.07437600
   0.65342200  0.32859100  0.07437600
   0.98675500  0.66192500  0.07437600
   0.32008800  0.66192500  0.07437600
   0.65342200  0.66192500  0.07437600
   0.32008800  0.99525800  0.07437600
   0.65342200  0.99525800  0.07437600
   0.98675500  0.99525800  0.07437600
   0.20897700  0.10636900  0.17918600
   0.54231100  0.10636900  0.17918600
   0.87564400  0.10636900  0.17918600
   0.20897700  0.43970300  0.17918600
   0.54231100  0.43970300  0.17918600
   0.87564400  0.43970300  0.17918600
   0.20897700  0.77303600  0.17918600
   0.54231100  0.77303600  0.17918600
   0.87564400  0.77303600  0.17918600
   0.09537768  0.54759007  0.28226226
   0.43136412  0.88355205  0.28110449
   0.76397482  0.21802372  0.28329077
   0.09593169  0.21856281  0.28372509
   0.43374365  0.21655605  0.28327763
   0.09817179  0.88376514  0.28153508
   0.76527790  0.88179300  0.28182512
   0.43195198  0.54747805  0.28287783
   0.76336073  0.54809339  0.28280513
   0.32314958  0.66060659  0.38364594
   0.65323272  0.99054655  0.38394675
   0.32247503  0.32314745  0.38724077
   0.98970111  0.99038543  0.38793425
   0.31973836  0.98979699  0.38690304
   0.64344006  0.32589043  0.39613437
   0.99347099  0.66733278  0.38499366
   0.99545109  0.31868934  0.39239361
   0.65837092  0.66602179  0.38821258
