       N       E                     dE             d eps       ncg     rms          rms(c)
DAV:   1     0.242203976487E+04    0.24220E+04   -0.15953E+05  1824   0.129E+03
DAV:   2    -0.619662404597E+02   -0.24840E+04   -0.23053E+04  2112   0.286E+02
DAV:   3    -0.239929411196E+03   -0.17796E+03   -0.16138E+03  2152   0.691E+01
DAV:   4    -0.247749275850E+03   -0.78199E+01   -0.75047E+01  2360   0.138E+01
DAV:   5    -0.247970459126E+03   -0.22118E+00   -0.21912E+00  2368   0.240E+00    0.272E+01
RMM:   6    -0.245314885321E+03    0.26556E+01   -0.54793E+01  1832   0.148E+01    0.288E+01
RMM:   7    -0.245203493197E+03    0.11139E+00   -0.31697E+01  1831   0.891E+00    0.216E+01
RMM:   8    -0.243479114457E+03    0.17244E+01   -0.10194E+01  1826   0.483E+00    0.227E+01
RMM:   9    -0.231671469975E+03    0.11808E+02   -0.60122E+00  1831   0.404E+00    0.896E+00
RMM:  10    -0.230438452247E+03    0.12330E+01   -0.18587E+00  1831   0.223E+00    0.538E+00
RMM:  11    -0.230140490265E+03    0.29796E+00   -0.49149E-01  1831   0.110E+00    0.332E+00
RMM:  12    -0.229971126514E+03    0.16936E+00   -0.21284E-01  1843   0.738E-01    0.174E+00
RMM:  13    -0.229975711853E+03   -0.45853E-02   -0.94174E-02  1833   0.510E-01    0.181E+00
RMM:  14    -0.229940616046E+03    0.35096E-01   -0.71995E-02  1830   0.459E-01    0.975E-01
RMM:  15    -0.229934104405E+03    0.65116E-02   -0.26603E-02  1829   0.283E-01    0.641E-01
RMM:  16    -0.229927362190E+03    0.67422E-02   -0.65503E-03  1827   0.141E-01    0.188E-01
RMM:  17    -0.229927161825E+03    0.20036E-03   -0.12849E-03  1811   0.600E-02    0.145E-01
RMM:  18    -0.229927259791E+03   -0.97966E-04   -0.78915E-04  1764   0.469E-02
   1 F= -.22992726E+03 E0= -.22992034E+03  d E =-.229927E+03
       N       E                     dE             d eps       ncg     rms          rms(c)
DAV:   1    -0.230209832341E+03   -0.28267E+00   -0.42455E+01  1848   0.123E+01    0.109E+00
RMM:   2    -0.230405753302E+03   -0.19592E+00   -0.97221E-01  1832   0.194E+00    0.329E+00
RMM:   3    -0.230305727531E+03    0.10003E+00   -0.80648E-02  1857   0.483E-01    0.132E+00
RMM:   4    -0.230288914071E+03    0.16813E-01   -0.29306E-02  1835   0.286E-01    0.926E-01
RMM:   5    -0.230277541310E+03    0.11373E-01   -0.10500E-02  1836   0.168E-01    0.538E-01
RMM:   6    -0.230275701941E+03    0.18394E-02   -0.78807E-03  1830   0.155E-01    0.325E-01
RMM:   7    -0.230276490197E+03   -0.78826E-03   -0.68047E-03  1827   0.140E-01    0.360E-01
RMM:   8    -0.230274554987E+03    0.19352E-02   -0.25994E-03  1826   0.876E-02    0.116E-01
RMM:   9    -0.230274504484E+03    0.50504E-04   -0.52969E-04  1509   0.400E-02
   2 F= -.23027450E+03 E0= -.23026744E+03  d E =-.347245E+00
       N       E                     dE             d eps       ncg     rms          rms(c)
DAV:   1    -0.230338582720E+03   -0.64028E-01   -0.23849E+01  1840   0.928E+00    0.754E-01
RMM:   2    -0.230417441818E+03   -0.78859E-01   -0.79473E-01  1840   0.147E+00    0.907E-01
RMM:   3    -0.230415550452E+03    0.18914E-02   -0.32960E-02  1877   0.297E-01    0.100E+00
RMM:   4    -0.230404278095E+03    0.11272E-01   -0.77668E-03  1842   0.147E-01    0.570E-01
RMM:   5    -0.230401551590E+03    0.27265E-02   -0.65267E-03  1834   0.130E-01    0.510E-01
RMM:   6    -0.230400616296E+03    0.93529E-03   -0.93382E-03  1831   0.153E-01    0.411E-01
RMM:   7    -0.230398503566E+03    0.21127E-02   -0.46152E-03  1830   0.114E-01    0.216E-01
RMM:   8    -0.230397890516E+03    0.61305E-03   -0.11198E-03  1818   0.580E-02    0.964E-02
RMM:   9    -0.230397794996E+03    0.95520E-04   -0.24437E-04  1049   0.288E-02
   3 F= -.23039779E+03 E0= -.23039023E+03  d E =-.123291E+00
       N       E                     dE             d eps       ncg     rms          rms(c)
DAV:   1    -0.230544834924E+03   -0.14694E+00   -0.30831E+01  1824   0.102E+01    0.955E-01
RMM:   2    -0.230603313805E+03   -0.58479E-01   -0.66585E-01  1834   0.163E+00    0.910E-01
RMM:   3    -0.230612278647E+03   -0.89648E-02   -0.47701E-02  1851   0.379E-01    0.125E+00
RMM:   4    -0.230598156324E+03    0.14122E-01   -0.11092E-02  1853   0.172E-01    0.771E-01
RMM:   5    -0.230591992794E+03    0.61635E-02   -0.11363E-02  1832   0.179E-01    0.531E-01
RMM:   6    -0.230589902426E+03    0.20904E-02   -0.92928E-03  1832   0.164E-01    0.383E-01
RMM:   7    -0.230588494381E+03    0.14080E-02   -0.34790E-03  1826   0.984E-02    0.232E-01
RMM:   8    -0.230587901340E+03    0.59304E-03   -0.13608E-03  1823   0.627E-02    0.128E-01
RMM:   9    -0.230587758040E+03    0.14330E-03   -0.35678E-04  1249   0.334E-02    0.706E-02
RMM:  10    -0.230587726709E+03    0.31330E-04   -0.10538E-04   968   0.202E-02
   4 F= -.23058773E+03 E0= -.23057966E+03  d E =-.189932E+00
       N       E                     dE             d eps       ncg     rms          rms(c)
DAV:   1    -0.230642346895E+03   -0.54589E-01   -0.14581E+01  1832   0.743E+00    0.519E-01
RMM:   2    -0.230674140884E+03   -0.31794E-01   -0.29340E-01  1839   0.108E+00    0.629E-01
RMM:   3    -0.230677137687E+03   -0.29968E-02   -0.17624E-02  1869   0.234E-01    0.812E-01
RMM:   4    -0.230669868577E+03    0.72691E-02   -0.50982E-03  1846   0.119E-01    0.432E-01
RMM:   5    -0.230667475177E+03    0.23934E-02   -0.23309E-03  1835   0.820E-02    0.214E-01
RMM:   6    -0.230667822443E+03   -0.34727E-03   -0.25625E-03  1828   0.837E-02    0.240E-01
RMM:   7    -0.230667492036E+03    0.33041E-03   -0.17273E-03  1822   0.704E-02    0.156E-01
RMM:   8    -0.230667153152E+03    0.33888E-03   -0.47846E-04  1458   0.383E-02    0.539E-02
RMM:   9    -0.230667120922E+03    0.32230E-04   -0.88711E-05   963   0.177E-02
   5 F= -.23066712E+03 E0= -.23065853E+03  d E =-.793942E-01
       N       E                     dE             d eps       ncg     rms          rms(c)
