 vasp.5.4.4 16052018 (build Apr 24 2014 20:13:14) complex standard
 Contain Constrained Minimization Technique (TS), Periodic NBO, VASPsol, libbeef, VASP2WANNIER90, Constrained Cell Relaxation
 executed on Center for Computational Chemistry by phu@node11 date 2025.09.27 23:30:33
 running on    8 total cores
 distrk:  each k-point on    8 cores,    1 groups
 distr:  one band on NCORES_PER_BAND=   2 cores,    4 groups


--------------------------------------------------------------------------------------------------------


 INCAR:
 POTCAR:   PAW_PBE C 08Apr2002                    
 POTCAR:   PAW_PBE O 08Apr2002                    
 POTCAR:    PAW_PBE Pt 04Feb2005                  
 POTCAR:   PAW_PBE C 08Apr2002                    
   VRHFIN =C: s2p2                                                              
   LEXCH  = PE                                                                  
   EATOM  =   147.1560 eV,   10.8157 Ry                                         
                                                                                
   TITEL  = PAW_PBE C 08Apr2002                                                 
   LULTRA =        F    use ultrasoft PP ?                                      
   IUNSCR =        0    unscreen: 0-lin 1-nonlin 2-no                           
   RPACOR =     .000    partial core radius                                     
   POMASS =   12.011; ZVAL   =    4.000    mass and valenz                      
   RCORE  =    1.500    outmost cutoff radius                                   
   RWIGS  =    1.630; RWIGS  =     .863    wigner-seitz radius (au A)           
   ENMAX  =  400.000; ENMIN  =  300.000 eV                                      
   ICORE  =        2    local potential                                         
   LCOR   =        T    correct aug charges                                     
   LPAW   =        T    paw PP                                                  
   EAUG   =  644.873                                                            
   DEXC   =     .000                                                            
   RMAX   =    2.266    core radius for proj-oper                               
   RAUG   =    1.300    factor for augmentation sphere                          
   RDEP   =    1.501    radius for radial grids                                 
   RDEPT  =    1.300    core radius for aug-charge                              
   QCUT   =   -5.516; QGAM   =   11.032    optimization parameters              
                                                                                
   Description                                                                  
     l     E      TYP  RCUT    TYP  RCUT                                        
     0   .000     23  1.200                                                     
     0   .000     23  1.200                                                     
     1   .000     23  1.500                                                     
     1  2.500     23  1.500                                                     
     2   .000      7  1.500                                                     
  local pseudopotential read in
  atomic valenz-charges read in
  non local Contribution for L=           0  read in
    real space projection operators read in
  non local Contribution for L=           0  read in
    real space projection operators read in
  non local Contribution for L=           1  read in
    real space projection operators read in
  non local Contribution for L=           1  read in
    real space projection operators read in
    PAW grid and wavefunctions read in
 
   number of l-projection  operators is LMAX  =           4
   number of lm-projection operators is LMMAX =           8
 
 POTCAR:   PAW_PBE O 08Apr2002                    
   VRHFIN =O: s2p4                                                              
   LEXCH  = PE                                                                  
   EATOM  =   432.3788 eV,   31.7789 Ry                                         
                                                                                
   TITEL  = PAW_PBE O 08Apr2002                                                 
   LULTRA =        F    use ultrasoft PP ?                                      
   IUNSCR =        0    unscreen: 0-lin 1-nonlin 2-no                           
   RPACOR =     .000    partial core radius                                     
   POMASS =   16.000; ZVAL   =    6.000    mass and valenz                      
   RCORE  =    1.520    outmost cutoff radius                                   
   RWIGS  =    1.550; RWIGS  =     .820    wigner-seitz radius (au A)           
   ENMAX  =  400.000; ENMIN  =  300.000 eV                                      
   ICORE  =        2    local potential                                         
   LCOR   =        T    correct aug charges                                     
   LPAW   =        T    paw PP                                                  
   EAUG   =  605.392                                                            
   DEXC   =     .000                                                            
   RMAX   =    2.264    core radius for proj-oper                               
   RAUG   =    1.300    factor for augmentation sphere                          
   RDEP   =    1.550    radius for radial grids                                 
   QCUT   =   -5.520; QGAM   =   11.041    optimization parameters              
                                                                                
   Description                                                                  
     l     E      TYP  RCUT    TYP  RCUT                                        
     0   .000     23  1.200                                                     
     0  -.700     23  1.200                                                     
     1   .000     23  1.520                                                     
     1   .600     23  1.520                                                     
     2   .000      7  1.500                                                     
  local pseudopotential read in
  atomic valenz-charges read in
  non local Contribution for L=           0  read in
    real space projection operators read in
  non local Contribution for L=           0  read in
    real space projection operators read in
  non local Contribution for L=           1  read in
    real space projection operators read in
  non local Contribution for L=           1  read in
    real space projection operators read in
    PAW grid and wavefunctions read in
 
   number of l-projection  operators is LMAX  =           4
   number of lm-projection operators is LMMAX =           8
 
 POTCAR:    PAW_PBE Pt 04Feb2005                  
   VRHFIN =Pt: s1d9                                                             
   LEXCH  = PE                                                                  
   EATOM  =   729.1182 eV,   53.5887 Ry                                         
                                                                                
   TITEL  = PAW_PBE Pt 04Feb2005                                                
   LULTRA =        F    use ultrasoft PP ?                                      
   IUNSCR =        1    unscreen: 0-lin 1-nonlin 2-no                           
   RPACOR =    2.330    partial core radius                                     
   POMASS =  195.080; ZVAL   =   10.000    mass and valenz                      
   RCORE  =    2.600    outmost cutoff radius                                   
   RWIGS  =    2.750; RWIGS  =    1.455    wigner-seitz radius (au A)           
   ENMAX  =  230.283; ENMIN  =  172.712 eV                                      
   ICORE  =        3    local potential                                         
   LCOR   =        T    correct aug charges                                     
   LPAW   =        T    paw PP                                                  
   EAUG   =  358.966                                                            
   DEXC   =     .000                                                            
   RMAX   =    3.038    core radius for proj-oper                               
   RAUG   =    1.300    factor for augmentation sphere                          
   RDEP   =    2.761    radius for radial grids                                 
   QCUT   =   -4.114; QGAM   =    8.228    optimization parameters              
                                                                                
   Description                                                                  
     l     E      TYP  RCUT    TYP  RCUT                                        
     2   .000     23  2.500                                                     
     2   .000     23  2.500                                                     
     0   .000     23  2.500                                                     
     0   .000     23  2.500                                                     
     1  -.200     23  2.600                                                     
     1  1.500     23  2.600                                                     
     3   .000     23  2.500                                                     
  local pseudopotential read in
  partial core-charges read in
  atomic valenz-charges read in
  non local Contribution for L=           2  read in
    real space projection operators read in
  non local Contribution for L=           2  read in
    real space projection operators read in
  non local Contribution for L=           0  read in
    real space projection operators read in
  non local Contribution for L=           0  read in
    real space projection operators read in
  non local Contribution for L=           1  read in
    real space projection operators read in
  non local Contribution for L=           1  read in
    real space projection operators read in
    PAW grid and wavefunctions read in
 
   number of l-projection  operators is LMAX  =           6
   number of lm-projection operators is LMMAX =          18
 
 Optimization of the real space projectors (new method)

 maximal supplied QI-value         = 25.13
 optimisation between [QCUT,QGAM] = [ 10.81, 21.61] = [ 32.71,130.83] Ry 
 Optimized for a Real-space Cutoff    1.23 Angstroem

   l    n(q)    QCUT    max X(q) W(low)/X(q) W(high)/X(q)  e(spline) 
   0      8    10.807     5.582    0.53E-04    0.84E-04    0.44E-07
   0      8    10.807    69.432    0.35E-03    0.71E-03    0.24E-06
   1      7    10.807     2.780    0.44E-04    0.88E-04    0.89E-07
   1      7    10.807     4.549    0.14E-03    0.28E-03    0.13E-06
 Optimization of the real space projectors (new method)

 maximal supplied QI-value         = 24.76
 optimisation between [QCUT,QGAM] = [ 10.64, 21.54] = [ 31.73,129.89] Ry 
 Optimized for a Real-space Cutoff    1.23 Angstroem

   l    n(q)    QCUT    max X(q) W(low)/X(q) W(high)/X(q)  e(spline) 
   0      8    10.645     4.192    0.69E-04    0.93E-04    0.58E-07
   0      8    10.645     8.473    0.40E-03    0.65E-03    0.17E-06
   1      7    10.645     2.474    0.80E-04    0.12E-03    0.30E-07
   1      7    10.645     3.912    0.24E-03    0.53E-03    0.16E-06
 Optimization of the real space projectors (new method)

 maximal supplied QI-value         = 14.36
 optimisation between [QCUT,QGAM] = [ 10.77, 21.69] = [ 32.49,131.70] Ry 
 Optimized for a Real-space Cutoff    1.46 Angstroem

   l    n(q)    QCUT    max X(q) W(low)/X(q) W(high)/X(q)  e(spline) 
   2      9    10.771     3.903    0.38E-04    0.12E-03    0.82E-07
   2      9    10.771    18.372    0.13E-03    0.32E-03    0.28E-06
   0     10    10.771    13.697    0.11E-04    0.86E-05    0.85E-08
   0     10    10.771    65.529    0.40E-04    0.12E-03    0.14E-06
   1      9    10.771     7.604    0.48E-04    0.31E-04    0.38E-07
   1      9    10.771    12.136    0.35E-03    0.16E-03    0.23E-06
 PAW_PBE C 08Apr2002                    :
 energy of atom  1       EATOM= -147.1560
 kinetic energy error for atom=    0.0116 (will be added to EATOM!!)
 PAW_PBE O 08Apr2002                    :
 energy of atom  2       EATOM= -432.3788
 kinetic energy error for atom=    0.0389 (will be added to EATOM!!)
  PAW_PBE Pt 04Feb2005                  :
 energy of atom  3       EATOM= -729.1182
 kinetic energy error for atom=    0.0051 (will be added to EATOM!!)
 
 
 POSCAR: C    O    Pt                            
  positions in direct lattice
  No initial velocities read in
 exchange correlation table for  LEXCH =        8
   RHO(1)=    0.500       N(1)  =     2000
   RHO(2)=  100.500       N(2)  =     4000

 VTST: version 3.2, (02/03/18)

 CHAIN: initializing optimizer
 
 OPT: Using VASP QUASI-newton optimizer
 CHAIN: Read ICHAIN            0
 
 POSCAR: C    O    Pt                            
  positions in direct lattice
  No initial velocities read in
 


--------------------------------------------------------------------------------------------------------


 ion  position               nearest neighbor table
   1  0.699  0.438  0.477-   3 1.16  36 2.09
   2  0.905  0.386  0.462-  38 1.85  36 2.57  37 2.69
   3  0.671  0.465  0.527-   1 1.16
   4  0.987  0.329  0.074-  15 2.81  16 2.81  12 2.81   5 2.81  11 2.81   6 2.81  18 2.81   8 2.81
                             7 2.81
   5  0.320  0.329  0.074-  13 2.81  10 2.81   4 2.81  12 2.81  16 2.81  17 2.81   8 2.81   9 2.81
                             6 2.81
   6  0.653  0.329  0.074-  14 2.81  18 2.81  11 2.81   4 2.81  17 2.81   7 2.81  10 2.81   9 2.81
                             5 2.81
   7  0.987  0.662  0.074-  18 2.81  21 2.81  19 2.81  12 2.81   8 2.81  10 2.81   9 2.81   6 2.81
                             4 2.81
   8  0.320  0.662  0.074-  16 2.81  19 2.81  10 2.81   7 2.81  20 2.81   4 2.81  11 2.81   5 2.81
                             9 2.81
   9  0.653  0.662  0.074-  17 2.81  20 2.81  21 2.81  11 2.81  12 2.81   7 2.81   6 2.81   5 2.81
                             8 2.81
  10  0.320  0.995  0.074-  13 2.81  19 2.81   5 2.81   8 2.81  12 2.81   7 2.81  14 2.81   6 2.81
                            11 2.81
  11  0.653  0.995  0.074-  14 2.81  20 2.81  15 2.81   9 2.81   6 2.81  12 2.81   4 2.81   8 2.81
                            10 2.81
  12  0.987  0.995  0.074-  15 2.81  21 2.81  13 2.81   7 2.81   4 2.81  10 2.81   5 2.81  11 2.81
                             9 2.81
  13  0.209  0.106  0.179-  27 2.74  10 2.81   5 2.81  12 2.81  19 2.81  15 2.81  21 2.81  16 2.81
                            17 2.81  14 2.81  25 2.82  26 2.91
  14  0.542  0.106  0.179-  23 2.76  11 2.81   6 2.81  20 2.81  15 2.81  10 2.81  18 2.81  19 2.81
                            17 2.81  13 2.81  26 2.86  24 2.86
  15  0.876  0.106  0.179-  28 2.75  25 2.79   4 2.81  12 2.81  11 2.81  21 2.81  13 2.81  20 2.81
                            14 2.81  16 2.81  18 2.81  24 2.88
  16  0.209  0.440  0.179-  25 2.79  29 2.80   8 2.81   4 2.81  19 2.81  18 2.81   5 2.81  15 2.81
                            20 2.81  13 2.81  17 2.81  22 2.84
  17  0.542  0.440  0.179-  30 2.75  29 2.79   9 2.81  20 2.81  21 2.81  18 2.81   6 2.81   5 2.81
                            14 2.81  16 2.81  13 2.81  26 2.91
  18  0.876  0.440  0.179-  30 2.69   7 2.81   6 2.81  21 2.81  16 2.81  19 2.81  17 2.81   4 2.81
                            14 2.81  15 2.81  22 2.88  24 2.89
  19  0.209  0.773  0.179-  27 2.68  23 2.75   8 2.81  10 2.81   7 2.81  16 2.81  13 2.81  18 2.81
                            21 2.81  14 2.81  20 2.81  22 2.88
  20  0.542  0.773  0.179-  23 2.74  28 2.77  29 2.78  11 2.81   9 2.81  17 2.81  14 2.81  21 2.81
                            15 2.81   8 2.81  16 2.81  19 2.81
  21  0.876  0.773  0.179-  27 2.74  30 2.75  28 2.77  12 2.81   7 2.81   9 2.81  18 2.81  15 2.81
                            19 2.81  13 2.81  17 2.81  20 2.81
  22  0.101  0.547  0.287-  25 2.73  31 2.73  37 2.76  29 2.79  30 2.80  27 2.80  23 2.81  24 2.84
                            16 2.84  38 2.86  18 2.88  19 2.88
  23  0.431  0.882  0.281-  20 2.74  19 2.75  27 2.75  14 2.76  26 2.78  29 2.79  24 2.79  22 2.81
                            28 2.81  32 2.83  31 2.86  35 2.91
  24  0.761  0.214  0.288-  32 2.72  26 2.74  30 2.77  28 2.78  36 2.79  23 2.79  25 2.79  22 2.84
                            14 2.86  38 2.87  15 2.88  18 2.89
  25  0.096  0.221  0.284-  22 2.73  33 2.74  16 2.79  34 2.79  15 2.79  24 2.79  28 2.80  13 2.82
                            29 2.82  38 2.85  26 2.89  27 2.91
  26  0.436  0.214  0.289-  33 2.65  36 2.67  24 2.74  35 2.76  23 2.78  30 2.81  27 2.82  14 2.86
                            29 2.87  25 2.89  17 2.91  13 2.91
  27  0.102  0.879  0.279-  19 2.68  21 2.74  13 2.74  23 2.75  22 2.80  30 2.81  37 2.82  26 2.82
                            34 2.85  28 2.87  25 2.91  35 2.91
  28  0.766  0.887  0.282-  32 2.73  15 2.75  21 2.77  20 2.77  34 2.77  24 2.78  25 2.80  29 2.80
                            23 2.81  39 2.82  27 2.87  30 2.89
  29  0.434  0.553  0.283-  33 2.75  20 2.78  17 2.79  23 2.79  22 2.79  16 2.80  28 2.80  31 2.81
                            39 2.81  25 2.82  30 2.85  26 2.87
  30  0.768  0.545  0.279-  18 2.69  17 2.75  21 2.75  24 2.77  22 2.80  26 2.81  27 2.81  29 2.85
                            39 2.88  28 2.89  36 2.89  37 2.90
  31  0.320  0.659  0.388-  22 2.73  37 2.78  32 2.80  33 2.80  38 2.81  29 2.81  35 2.82  39 2.84
                            23 2.86
  32  0.657  0.985  0.386-  24 2.72  39 2.72  28 2.73  34 2.75  31 2.80  23 2.83  38 2.83  35 2.90
                            36 2.93
  33  0.321  0.327  0.383-  26 2.65  36 2.71  25 2.74  29 2.75  38 2.78  35 2.80  31 2.80  34 2.84
                            39 2.85
  34  0.985  0.989  0.385-  37 2.73  39 2.74  32 2.75  28 2.77  35 2.79  25 2.79  38 2.79  33 2.84
                            27 2.85
  35  0.317  0.992  0.391-  37 2.70  26 2.76  36 2.77  34 2.79  33 2.80  31 2.82  32 2.90  23 2.91
                            27 2.91
  36  0.642  0.325  0.389-   1 2.09   2 2.57  26 2.67  33 2.71  35 2.77  39 2.78  24 2.79  30 2.89
                            32 2.93  38 2.95  37 2.95
  37  0.997  0.672  0.388-   2 2.69  35 2.70  34 2.73  22 2.76  31 2.78  39 2.81  27 2.82  30 2.90
                            38 2.92  36 2.95
  38  0.991  0.323  0.394-   2 1.85  33 2.78  34 2.79  31 2.81  32 2.83  25 2.85  22 2.86  24 2.87
                            37 2.92  36 2.95
  39  0.660  0.664  0.387-  32 2.72  34 2.74  36 2.78  37 2.81  29 2.81  28 2.82  31 2.84  33 2.85
                            30 2.88
 

IMPORTANT INFORMATION: All symmetrisations will be switched off!
NOSYMM: (Re-)initialisation of all symmetry stuff for point group C_1.

 
 
 KPOINTS: mesh auto                               

Automatic generation of k-mesh.
Space group operators:
 irot       det(A)        alpha          n_x          n_y          n_z        tau_x        tau_y        tau_z
    1     1.000000     0.000000     1.000000     0.000000     0.000000     0.000000     0.000000     0.000000
 
 Subroutine IBZKPT returns following result:
 ===========================================
 
 Found      4 irreducible k-points:
 
 Following reciprocal coordinates:
            Coordinates               Weight
  0.000000  0.000000  0.000000      1.000000
  0.500000  0.000000  0.000000      1.000000
 -0.000000  0.500000  0.000000      1.000000
  0.500000  0.500000  0.000000      1.000000
 
 Following cartesian coordinates:
            Coordinates               Weight
  0.000000  0.000000  0.000000      1.000000
  0.068522  0.000000  0.000000      1.000000
  0.034261  0.059342  0.000000      1.000000
  0.102783  0.059342  0.000000      1.000000
 


--------------------------------------------------------------------------------------------------------




 Dimension of arrays:
   k-points           NKPTS =      4   k-points in BZ     NKDIM =      4   number of bands    NBANDS=    228
   number of dos      NEDOS =    301   number of ions     NIONS =     39
   non local maximal  LDIM  =      6   non local SUM 2l+1 LMDIM =     18
   total plane-waves  NPLWV = 276480
   max r-space proj   IRMAX =   2756   max aug-charges    IRDMAX=  12646
   dimension x,y,z NGX =    48 NGY =   48 NGZ =  120
   dimension x,y,z NGXF=    96 NGYF=   96 NGZF=  240
   support grid    NGXF=    96 NGYF=   96 NGZF=  240
   ions per type =               1   2  36
   NGX,Y,Z   is equivalent  to a cutoff of   9.47,  9.47,  9.12 a.u.
   NGXF,Y,Z  is equivalent  to a cutoff of  18.94, 18.94, 18.24 a.u.

 SYSTEM =  metal                                   
 POSCAR =  C    O    Pt                            

 Startparameter for this run:
   NWRITE =      2    write-flag & timer
   PREC   = normal    normal or accurate (medium, high low for compatibility)
   ISTART =      0    job   : 0-new  1-cont  2-samecut
   ICHARG =      2    charge: 1-file 2-atom 10-const
   ISPIN  =      1    spin polarized calculation?
   LNONCOLLINEAR =      F non collinear calculations
   LSORBIT =      F    spin-orbit coupling
   INIWAV =      1    electr: 0-lowe 1-rand  2-diag
   LASPH  =      F    aspherical Exc in radial PAW
   METAGGA=      F    non-selfconsistent MetaGGA calc.

 Electronic Relaxation 1
   ENCUT  =  450.0 eV  33.07 Ry    5.75 a.u.  14.57 14.57 37.84*2*pi/ulx,y,z
   ENINI  =  450.0     initial cutoff
   ENAUG  =  644.9 eV  augmentation charge cutoff
   NELM   =     60;   NELMIN=  8; NELMDL= -5     # of ELM steps 
   EDIFF  = 0.1E-03   stopping-criterion for ELM
   LREAL  =      T    real-space projection
   NLSPLINE    = F    spline interpolate recip. space projectors
   LCOMPAT=      F    compatible to vasp.4.4
   GGA_COMPAT  = T    GGA compatible to vasp.4.4-vasp.4.6
   LMAXPAW     = -100 max onsite density
   LMAXMIX     =    2 max onsite mixed and CHGCAR
   VOSKOWN=      0    Vosko Wilk Nusair interpolation
   ROPT   =   -0.00050  -0.00050  -0.00050
 Ionic relaxation
   EDIFFG = -.5E-01   stopping-criterion for IOM
   NSW    =   5000    number of steps for IOM
   NBLOCK =      1;   KBLOCK =   5000    inner block; outer block 
   IBRION =      1    ionic relax: 0-MD 1-quasi-New 2-CG
   NFREE  =      0    steps in history (QN), initial steepest desc. (CG)
   ISIF   =      2    stress and relaxation
   IWAVPR =     11    prediction:  0-non 1-charg 2-wave 3-comb
   ISYM   =      0    0-nonsym 1-usesym 2-fastsym
   LCORR  =      T    Harris-Foulkes like correction to forces

   POTIM  = 0.2000    time-step for ionic-motion
   TEIN   =    0.0    initial temperature
   TEBEG  =    0.0;   TEEND  =   0.0 temperature during run
   SMASS  =  -3.00    Nose mass-parameter (am)
   estimated Nose-frequenzy (Omega)   =  0.10E-29 period in steps =****** mass=  -0.162E-26a.u.
   SCALEE = 1.0000    scale energy and forces
   NPACO  =    256;   APACO  = 16.0  distance and # of slots for P.C.
   PSTRESS=    0.0 pullay stress

  Mass of Ions in am
   POMASS =  12.01 16.00195.08
  Ionic Valenz
   ZVAL   =   4.00  6.00 10.00
  Atomic Wigner-Seitz radii
   RWIGS  =  -1.00 -1.00 -1.00
  virtual crystal weights 
   VCA    =   1.00  1.00  1.00
   NELECT =     376.0000    total number of electrons
   NUPDOWN=      -1.0000    fix difference up-down

 DOS related values:
   EMIN   =  10.00;   EMAX   =-10.00  energy-range for DOS
   EFERMI =   0.00
   ISMEAR =     1;   SIGMA  =   0.20  broadening in eV -4-tet -1-fermi 0-gaus

 Electronic relaxation 2 (details)
   IALGO  =     68    algorithm
   LDIAG  =      T    sub-space diagonalisation (order eigenvalues)
   LSUBROT=      F    optimize rotation matrix (better conditioning)
   TURBO    =      0    0=normal 1=particle mesh
   IRESTART =      0    0=no restart 2=restart with 2 vectors
   NREBOOT  =      0    no. of reboots
   NMIN     =      0    reboot dimension
   EREF     =   0.00    reference energy to select bands
   IMIX   =      4    mixing-type and parameters
     AMIX     =   0.40;   BMIX     =  1.00
     AMIX_MAG =   1.60;   BMIX_MAG =  1.00
     AMIN     =   0.10
     WC   =   100.;   INIMIX=   1;  MIXPRE=   1;  MAXMIX= -45

 Intra band minimization:
   WEIMIN = 0.0010     energy-eigenvalue tresh-hold
   EBREAK =  0.11E-06  absolut break condition
   DEPER  =   0.30     relativ break condition  

   TIME   =   0.40     timestep for ELM

  volume/ion in A,a.u.               =      34.49       232.77
  Fermi-wavevector in a.u.,A,eV,Ry     =   1.070385  2.022734 15.588510  1.145723
  Thomas-Fermi vector in A             =   2.206093
 
 Write flags
   LWAVE        =      F    write WAVECAR
   LDOWNSAMPLE  =      F    k-point downsampling of WAVECAR
   LCHARG       =      F    write CHGCAR
   LVTOT        =      F    write LOCPOT, total local potential
   LVHAR        =      F    write LOCPOT, Hartree potential only
   LELF         =      F    write electronic localiz. function (ELF)
   LORBIT       =      0    0 simple, 1 ext, 2 COOP (PROOUT), +10 PAW based schemes


 Dipole corrections
   LMONO  =      F    monopole corrections only (constant potential shift)
   LDIPOL =      F    correct potential (dipole corrections)
   IDIPOL =      0    1-x, 2-y, 3-z, 4-all directions 
   EPSILON=  1.0000000 bulk dielectric constant

 Exchange correlation treatment:
   GGA     =    --    GGA type
   LEXCH   =     8    internal setting for exchange type
   VOSKOWN=      0    Vosko Wilk Nusair interpolation
   LHFCALC =     F    Hartree Fock is set to
   LHFONE  =     F    Hartree Fock one center treatment
   AEXX    =    0.0000 exact exchange contribution

 Linear response parameters
   LEPSILON=     F    determine dielectric tensor
   LRPA    =     F    only Hartree local field effects (RPA)
   LNABLA  =     F    use nabla operator in PAW spheres
   LVEL    =     F    velocity operator in full k-point grid
   LINTERFAST=   F  fast interpolation
   KINTER  =     0    interpolate to denser k-point grid
   CSHIFT  =0.1000    complex shift for real part using Kramers Kronig
   OMEGAMAX=  -1.0    maximum frequency
   DEG_THRESHOLD= 0.2000000E-02 threshold for treating states as degnerate
   RTIME   =   -0.100 relaxation time in fs
  (WPLASMAI=    0.000 imaginary part of plasma frequency in eV, 0.658/RTIME)
   DFIELD  = 0.0000000 0.0000000 0.0000000 field for delta impulse in time
 
 Orbital magnetization related:
   ORBITALMAG=     F  switch on orbital magnetization
   LCHIMAG   =     F  perturbation theory with respect to B field
   DQ        =  0.001000  dq finite difference perturbation B field
   LLRAUG    =     F  two centre corrections for induced B field



--------------------------------------------------------------------------------------------------------


 quasi-Newton-method for relaxation of ions
   using selective dynamics as specified on POSCAR
 charge density and potential will be updated during run
 non-spin polarized calculation
 RMM-DIIS sequential band-by-band and
  variant of blocked Davidson during initial phase
 perform sub-space diagonalisation
    before iterative eigenvector-optimisation
 modified Broyden-mixing scheme, WC =      100.0
 initial mixing is a Kerker type mixing with AMIX =  0.4000 and BMIX =      1.0000
 Hartree-type preconditioning will be used
 using additional bands           40
 real space projection scheme for non local part
 use partial core corrections
 calculate Harris-corrections to forces 
   (improved forces if not selfconsistent)
 use gradient corrections 
 use of overlap-Matrix (Vanderbilt PP)
 Methfessel and Paxton  Order N= 1 SIGMA  =   0.20


--------------------------------------------------------------------------------------------------------


  energy-cutoff  :      450.00
  volume of cell :     1345.22
      direct lattice vectors                 reciprocal lattice vectors
     7.296955120 -4.212899000  0.000000000     0.137043463  0.000000000  0.000000000
     0.000000000  8.425798000  0.000000000     0.068521732  0.118683121  0.000000000
     0.000000000  0.000000000 21.879635000     0.000000000  0.000000000  0.045704602

  length of vectors
     8.425798004  8.425798000 21.879635000     0.137043463  0.137043463  0.045704602


 
 k-points in units of 2pi/SCALE and weight: mesh auto                               
   0.00000000  0.00000000  0.00000000       0.250
   0.06852173  0.00000000  0.00000000       0.250
   0.03426087  0.05934156  0.00000000       0.250
   0.10278260  0.05934156  0.00000000       0.250
 
 k-points in reciprocal lattice and weights: mesh auto                               
   0.00000000  0.00000000  0.00000000       0.250
   0.50000000  0.00000000  0.00000000       0.250
  -0.00000000  0.50000000  0.00000000       0.250
   0.50000000  0.50000000  0.00000000       0.250
 
 position of ions in fractional coordinates (direct lattice) 
   0.69907817  0.43847576  0.47696647
   0.90542463  0.38589875  0.46243946
   0.67094162  0.46533164  0.52685500
   0.98675500  0.32859100  0.07437600
   0.32008800  0.32859100  0.07437600
   0.65342200  0.32859100  0.07437600
   0.98675500  0.66192500  0.07437600
   0.32008800  0.66192500  0.07437600
   0.65342200  0.66192500  0.07437600
   0.32008800  0.99525800  0.07437600
   0.65342200  0.99525800  0.07437600
   0.98675500  0.99525800  0.07437600
   0.20897700  0.10636900  0.17918600
   0.54231100  0.10636900  0.17918600
   0.87564400  0.10636900  0.17918600
   0.20897700  0.43970300  0.17918600
   0.54231100  0.43970300  0.17918600
   0.87564400  0.43970300  0.17918600
   0.20897700  0.77303600  0.17918600
   0.54231100  0.77303600  0.17918600
   0.87564400  0.77303600  0.17918600
   0.10061125  0.54711822  0.28709901
   0.43071211  0.88203755  0.28077929
   0.76093003  0.21386225  0.28776505
   0.09589647  0.22099622  0.28353496
   0.43554516  0.21374981  0.28863990
   0.10237364  0.87910272  0.27880485
   0.76603953  0.88677227  0.28150470
   0.43409912  0.55313805  0.28281171
   0.76843199  0.54504671  0.27942293
   0.32017655  0.65869740  0.38829872
   0.65716026  0.98515747  0.38561258
   0.32138285  0.32664532  0.38335257
   0.98536955  0.98948428  0.38492417
   0.31734287  0.99244276  0.39086845
   0.64223121  0.32532837  0.38940578
   0.99676945  0.67181607  0.38758495
   0.99070350  0.32276618  0.39410309
   0.65980551  0.66410559  0.38692773
 
 position of ions in cartesian coordinates  (Angst):
   5.10114202  0.74936243 10.43585227
   6.60684292 -0.56295760 10.11800656
   4.89583091  1.09418110 11.52739514
   7.20030695 -1.38845776  1.62731973
   2.33566777  1.42014298  1.62731973
   4.76799101  0.01584050  1.62731973
   7.20030695  1.42014719  1.62731973
   2.33566777  4.22874793  1.62731973
   4.76799101  2.82444545  1.62731973
   2.33566777  7.03734445  1.62731973
   4.76799101  5.63304198  1.62731973
   7.20030695  4.22874371  1.62731973
   1.52489579  0.01584471  3.92052428
   3.95721903 -1.38845776  3.92052428
   6.38953497 -2.79275602  3.92052428
   1.52489579  2.82444966  3.92052428
   3.95721903  1.42014719  3.92052428
   6.38953497  0.01584893  3.92052428
   1.52489579  5.63304619  3.92052428
   3.95721903  4.22874371  3.92052428
   6.38953497  2.82444545  3.92052428
   0.73415574  4.18604261  6.28162146
   3.14288690  5.61732363  6.14334828
   5.55247230 -1.40376126  6.29619429
   0.69975225  1.45806735  6.20364135
   3.17815352 -0.03389507  6.31533560
   0.74701587  6.97585214  6.10014838
   5.58975610  4.24451682  6.15922010
   3.16760177  2.83181376  6.18781701
   5.60721372  1.35512713  6.11367162
   2.33631395  4.20117975  8.49583432
   4.79526890  5.53218805  8.43706259
   2.34511622  1.39829398  8.38761431
   7.19019741  4.18593227  8.42200031
   2.31563666  7.02518880  8.55205908
   4.68633233  0.03549591  8.52005624
   7.27338193  1.46129747  8.48021720
   7.22911900 -1.45417114  8.62283186
   4.81457117  2.81592557  8.46583755
 


--------------------------------------------------------------------------------------------------------


 k-point  1 :   0.0000 0.0000 0.0000  plane waves:   29241
 k-point  2 :   0.5000 0.0000 0.0000  plane waves:   29108
 k-point  3 :  -0.0000 0.5000 0.0000  plane waves:   29108
 k-point  4 :   0.5000 0.5000 0.0000  plane waves:   29108

 maximum and minimum number of plane-waves per node :     14624    14548

 maximum number of plane-waves:     29241
 maximum index in each direction: 
   IXMAX=   14   IYMAX=   14   IZMAX=   37
   IXMIN=  -15   IYMIN=  -15   IZMIN=  -37


 real space projection operators:
  total allocation   :      13570.14 KBytes
  max/ min on nodes  :       6789.09       6781.05


 parallel 3D FFT for wavefunctions:
    minimum data exchange during FFTs selected (reduces bandwidth)
 parallel 3D FFT for charge:
    minimum data exchange during FFTs selected (reduces bandwidth)


 total amount of memory used by VASP MPI-rank0   131963. kBytes
=======================================================================

   base      :      30000. kBytes
   nonlr-proj:      10155. kBytes
   fftplans  :      13556. kBytes
   grid      :      23353. kBytes
   one-center:        311. kBytes
   wavefun   :      54588. kBytes
 
     INWAV:  cpu time    0.0000: real time    0.0000
 Broyden mixing: mesh for mixing (old mesh)
   NGX = 29   NGY = 29   NGZ = 75
  (NGX  = 96   NGY  = 96   NGZ  =240)
  gives a total of  63075 points

 initial charge density was supplied:
 charge density of overlapping atoms calculated
 number of electron     376.0000000 magnetization 
 keeping initial charge density in first step


--------------------------------------------------------------------------------------------------------


 Maximum index for non-local projection operator         1323
 Maximum index for augmentation-charges         1558 (set IRDMAX)


--------------------------------------------------------------------------------------------------------


 First call to EWALD:  gamma=   0.161
 Maximum number of real-space cells 4x 4x 2
 Maximum number of reciprocal cells 2x 2x 5

    FEWALD:  cpu time    0.0025: real time    0.0025


--------------------------------------- Iteration      1(   1)  ---------------------------------------


    POTLOK:  cpu time    0.2152: real time    0.3104
    SETDIJ:  cpu time    0.0110: real time    0.0111
     EDDAV:  cpu time   15.3847: real time   15.5578
       DOS:  cpu time    0.0011: real time    0.0011
    --------------------------------------------
      LOOP:  cpu time   15.6121: real time   15.8805

 eigenvalue-minimisations  :  1824
 total energy-change (2. order) : 0.2422040E+04  (-0.1595276E+05)
 number of electron     376.0000000 magnetization 
 augmentation part      376.0000000 magnetization 

 Free energy of the ion-electron system (eV)
  ---------------------------------------------------
  alpha Z        PSCENC =       975.10247152
  Ewald energy   TEWEN  =     91617.85227783
  -Hartree energ DENC   =   -120705.52097362
  -exchange      EXHF   =         0.00000000
  -V(xc)+E(xc)   XCENC  =       189.88756881
  PAW double counting   =     24789.08602224   -23775.73976456
  entropy T*S    EENTRO =         0.02331092
  eigenvalues    EBANDS =      2071.45469088
  atomic energy  EATOM  =     27259.89416086
  Solvation  Ediel_sol  =         0.00000000
  ---------------------------------------------------
  free energy    TOTEN  =      2422.03976487 eV

  energy without entropy =     2422.01645395  energy(sigma->0) =     2422.03199456


--------------------------------------------------------------------------------------------------------




--------------------------------------- Iteration      1(   2)  ---------------------------------------


     EDDAV:  cpu time   15.8591: real time   15.9852
       DOS:  cpu time    0.0010: real time    0.0010
    --------------------------------------------
      LOOP:  cpu time   15.8601: real time   15.9861

 eigenvalue-minimisations  :  2112
 total energy-change (2. order) :-0.2484006E+04  (-0.2305269E+04)
 number of electron     376.0000000 magnetization 
 augmentation part      376.0000000 magnetization 

 Free energy of the ion-electron system (eV)
  ---------------------------------------------------
  alpha Z        PSCENC =       975.10247152
  Ewald energy   TEWEN  =     91617.85227783
  -Hartree energ DENC   =   -120705.52097362
  -exchange      EXHF   =         0.00000000
  -V(xc)+E(xc)   XCENC  =       189.88756881
  PAW double counting   =     24789.08602224   -23775.73976456
  entropy T*S    EENTRO =         0.00636300
  eigenvalues    EBANDS =      -412.53436653
  atomic energy  EATOM  =     27259.89416086
  Solvation  Ediel_sol  =         0.00000000
  ---------------------------------------------------
  free energy    TOTEN  =       -61.96624046 eV

  energy without entropy =      -61.97260346  energy(sigma->0) =      -61.96836146


--------------------------------------------------------------------------------------------------------




--------------------------------------- Iteration      1(   3)  ---------------------------------------


     EDDAV:  cpu time   15.5346: real time   15.6484
       DOS:  cpu time    0.0012: real time    0.0012
    --------------------------------------------
      LOOP:  cpu time   15.5358: real time   15.6496

 eigenvalue-minimisations  :  2152
 total energy-change (2. order) :-0.1779632E+03  (-0.1613833E+03)
 number of electron     376.0000000 magnetization 
 augmentation part      376.0000000 magnetization 

 Free energy of the ion-electron system (eV)
  ---------------------------------------------------
  alpha Z        PSCENC =       975.10247152
  Ewald energy   TEWEN  =     91617.85227783
  -Hartree energ DENC   =   -120705.52097362
  -exchange      EXHF   =         0.00000000
  -V(xc)+E(xc)   XCENC  =       189.88756881
  PAW double counting   =     24789.08602224   -23775.73976456
  entropy T*S    EENTRO =         0.00773102
  eigenvalues    EBANDS =      -590.49890529
  atomic energy  EATOM  =     27259.89416086
  Solvation  Ediel_sol  =         0.00000000
  ---------------------------------------------------
  free energy    TOTEN  =      -239.92941120 eV

  energy without entropy =     -239.93714222  energy(sigma->0) =     -239.93198820


--------------------------------------------------------------------------------------------------------




--------------------------------------- Iteration      1(   4)  ---------------------------------------


     EDDAV:  cpu time   18.7598: real time   19.0248
       DOS:  cpu time    0.0011: real time    0.0011
    --------------------------------------------
      LOOP:  cpu time   18.7610: real time   19.0260

 eigenvalue-minimisations  :  2360
 total energy-change (2. order) :-0.7819865E+01  (-0.7504732E+01)
 number of electron     376.0000000 magnetization 
 augmentation part      376.0000000 magnetization 

 Free energy of the ion-electron system (eV)
  ---------------------------------------------------
  alpha Z        PSCENC =       975.10247152
  Ewald energy   TEWEN  =     91617.85227783
  -Hartree energ DENC   =   -120705.52097362
  -exchange      EXHF   =         0.00000000
  -V(xc)+E(xc)   XCENC  =       189.88756881
  PAW double counting   =     24789.08602224   -23775.73976456
  entropy T*S    EENTRO =         0.01307642
  eigenvalues    EBANDS =      -598.32411534
  atomic energy  EATOM  =     27259.89416086
  Solvation  Ediel_sol  =         0.00000000
  ---------------------------------------------------
  free energy    TOTEN  =      -247.74927585 eV

  energy without entropy =     -247.76235227  energy(sigma->0) =     -247.75363466


--------------------------------------------------------------------------------------------------------




--------------------------------------- Iteration      1(   5)  ---------------------------------------


     EDDAV:  cpu time   16.7645: real time   17.0318
       DOS:  cpu time    0.0013: real time    0.0013
    CHARGE:  cpu time    0.7954: real time    0.8044
    MIXING:  cpu time    0.0103: real time    0.0104
    --------------------------------------------
      LOOP:  cpu time   17.5714: real time   17.8479

 eigenvalue-minimisations  :  2368
 total energy-change (2. order) :-0.2211833E+00  (-0.2191245E+00)
 number of electron     376.0000110 magnetization 
 augmentation part      105.8467217 magnetization 

 Broyden mixing:
  rms(total) = 0.27205E+01    rms(broyden)= 0.27201E+01
  rms(prec ) = 0.30256E+01
  weight for this iteration     100.00

 Free energy of the ion-electron system (eV)
  ---------------------------------------------------
  alpha Z        PSCENC =       975.10247152
  Ewald energy   TEWEN  =     91617.85227783
  -Hartree energ DENC   =   -120705.52097362
  -exchange      EXHF   =         0.00000000
  -V(xc)+E(xc)   XCENC  =       189.88756881
  PAW double counting   =     24789.08602224   -23775.73976456
  entropy T*S    EENTRO =         0.01331427
  eigenvalues    EBANDS =      -598.54553646
  atomic energy  EATOM  =     27259.89416086
  Solvation  Ediel_sol  =         0.00000000
  ---------------------------------------------------
  free energy    TOTEN  =      -247.97045913 eV

  energy without entropy =     -247.98377339  energy(sigma->0) =     -247.97489721


--------------------------------------------------------------------------------------------------------




--------------------------------------- Iteration      1(   6)  ---------------------------------------


    POTLOK:  cpu time    0.2100: real time    0.2125
    SETDIJ:  cpu time    0.0127: real time    0.0131
    EDDIAG:  cpu time    2.2347: real time    2.4404
  RMM-DIIS:  cpu time    8.7191: real time    8.9266
    ORTHCH:  cpu time    0.3071: real time    0.3092
       DOS:  cpu time    0.0013: real time    0.0013
    CHARGE:  cpu time    0.8769: real time    0.8835
    MIXING:  cpu time    0.0062: real time    0.0062
    --------------------------------------------
      LOOP:  cpu time   12.3680: real time   12.7928

 eigenvalue-minimisations  :  1832
 total energy-change (2. order) : 0.2655574E+01  (-0.5479292E+01)
 number of electron     376.0000116 magnetization 
 augmentation part      112.7793280 magnetization 

 Broyden mixing:
  rms(total) = 0.28798E+01    rms(broyden)= 0.28789E+01
  rms(prec ) = 0.39519E+01
  weight for this iteration     100.00

 eigenvalues of (default mixing * dielectric matrix)
  average eigenvalue GAMMA=   0.4978
  0.4978

 Free energy of the ion-electron system (eV)
  ---------------------------------------------------
  alpha Z        PSCENC =       975.10247152
  Ewald energy   TEWEN  =     91617.85227783
  -Hartree energ DENC   =   -120247.87843663
  -exchange      EXHF   =         0.00000000
  -V(xc)+E(xc)   XCENC  =       182.73350497
  PAW double counting   =     26753.48198981   -25793.87172909
  entropy T*S    EENTRO =        -0.16071129
  eigenvalues    EBANDS =      -992.46841330
  atomic energy  EATOM  =     27259.89416086
  Solvation  Ediel_sol  =         0.00000000
  ---------------------------------------------------
  free energy    TOTEN  =      -245.31488532 eV

  energy without entropy =     -245.15417404  energy(sigma->0) =     -245.26131489


--------------------------------------------------------------------------------------------------------




--------------------------------------- Iteration      1(   7)  ---------------------------------------


    POTLOK:  cpu time    0.1781: real time    0.1795
    SETDIJ:  cpu time    0.0137: real time    0.0138
    EDDIAG:  cpu time    2.6299: real time    2.6488
  RMM-DIIS:  cpu time    9.5371: real time    9.6064
    ORTHCH:  cpu time    0.3222: real time    0.3244
       DOS:  cpu time    0.0011: real time    0.0011
    CHARGE:  cpu time    1.0101: real time    1.0174
    MIXING:  cpu time    0.0063: real time    0.0063
    --------------------------------------------
      LOOP:  cpu time   13.6985: real time   13.7978

 eigenvalue-minimisations  :  1831
 total energy-change (2. order) : 0.1113921E+00  (-0.3169667E+01)
 number of electron     376.0000118 magnetization 
 augmentation part      111.3508181 magnetization 

 Broyden mixing:
  rms(total) = 0.21584E+01    rms(broyden)= 0.21577E+01
  rms(prec ) = 0.37653E+01
  weight for this iteration     100.00

 eigenvalues of (default mixing * dielectric matrix)
  average eigenvalue GAMMA=   0.5631
  0.8870  0.2393

 Free energy of the ion-electron system (eV)
  ---------------------------------------------------
  alpha Z        PSCENC =       975.10247152
  Ewald energy   TEWEN  =     91617.85227783
  -Hartree energ DENC   =   -120437.82363595
  -exchange      EXHF   =         0.00000000
  -V(xc)+E(xc)   XCENC  =       180.53785137
  PAW double counting   =     27390.42369151   -26438.21977286
  entropy T*S    EENTRO =        -0.11111825
  eigenvalues    EBANDS =      -792.85941922
  atomic energy  EATOM  =     27259.89416086
  Solvation  Ediel_sol  =         0.00000000
  ---------------------------------------------------
  free energy    TOTEN  =      -245.20349320 eV

  energy without entropy =     -245.09237495  energy(sigma->0) =     -245.16645378


--------------------------------------------------------------------------------------------------------




--------------------------------------- Iteration      1(   8)  ---------------------------------------


    POTLOK:  cpu time    0.2176: real time    0.2193
    SETDIJ:  cpu time    0.0110: real time    0.0111
    EDDIAG:  cpu time    2.5363: real time    2.5552
  RMM-DIIS:  cpu time    8.0771: real time    8.4672
    ORTHCH:  cpu time    0.2588: real time    0.2603
       DOS:  cpu time    0.0011: real time    0.0011
    CHARGE:  cpu time    0.4948: real time    0.4981
    MIXING:  cpu time    0.0054: real time    0.0055
    --------------------------------------------
      LOOP:  cpu time   11.6022: real time   12.0177

 eigenvalue-minimisations  :  1826
 total energy-change (2. order) : 0.1724379E+01  (-0.1019382E+01)
 number of electron     376.0000122 magnetization 
 augmentation part      111.9286468 magnetization 

 Broyden mixing:
  rms(total) = 0.22697E+01    rms(broyden)= 0.22695E+01
  rms(prec ) = 0.38231E+01
  weight for this iteration     100.00

 eigenvalues of (default mixing * dielectric matrix)
  average eigenvalue GAMMA=   0.5241
  1.1523  0.2714  0.1487

 Free energy of the ion-electron system (eV)
  ---------------------------------------------------
  alpha Z        PSCENC =       975.10247152
  Ewald energy   TEWEN  =     91617.85227783
  -Hartree energ DENC   =   -120408.67645917
  -exchange      EXHF   =         0.00000000
  -V(xc)+E(xc)   XCENC  =       179.47830560
  PAW double counting   =     27981.48889075   -27038.58617417
  entropy T*S    EENTRO =        -0.05362055
  eigenvalues    EBANDS =      -809.97896713
  atomic energy  EATOM  =     27259.89416086
  Solvation  Ediel_sol  =         0.00000000
  ---------------------------------------------------
  free energy    TOTEN  =      -243.47911446 eV

  energy without entropy =     -243.42549391  energy(sigma->0) =     -243.46124094


--------------------------------------------------------------------------------------------------------




--------------------------------------- Iteration      1(   9)  ---------------------------------------


    POTLOK:  cpu time    0.1440: real time    0.1450
    SETDIJ:  cpu time    0.0105: real time    0.0105
    EDDIAG:  cpu time    2.0543: real time    2.0694
  RMM-DIIS:  cpu time    8.2664: real time    8.3279
    ORTHCH:  cpu time    0.3215: real time    0.3236
       DOS:  cpu time    0.0011: real time    0.0011
    CHARGE:  cpu time    0.8258: real time    0.8319
    MIXING:  cpu time    0.0069: real time    0.0070
    --------------------------------------------
      LOOP:  cpu time   11.6304: real time   11.7163

 eigenvalue-minimisations  :  1831
 total energy-change (2. order) : 0.1180764E+02  (-0.6012239E+00)
 number of electron     376.0000116 magnetization 
 augmentation part      112.6671568 magnetization 

 Broyden mixing:
  rms(total) = 0.89578E+00    rms(broyden)= 0.89548E+00
  rms(prec ) = 0.11877E+01
  weight for this iteration     100.00

 eigenvalues of (default mixing * dielectric matrix)
  average eigenvalue GAMMA=   0.5225
  1.2897  0.3313  0.3313  0.1378

 Free energy of the ion-electron system (eV)
  ---------------------------------------------------
  alpha Z        PSCENC =       975.10247152
  Ewald energy   TEWEN  =     91617.85227783
  -Hartree energ DENC   =   -120339.11872390
  -exchange      EXHF   =         0.00000000
  -V(xc)+E(xc)   XCENC  =       178.79431716
  PAW double counting   =     28697.69168707   -27765.89302923
  entropy T*S    EENTRO =        -0.09253225
  eigenvalues    EBANDS =      -855.90209904
  atomic energy  EATOM  =     27259.89416086
  Solvation  Ediel_sol  =         0.00000000
  ---------------------------------------------------
  free energy    TOTEN  =      -231.67146998 eV

  energy without entropy =     -231.57893772  energy(sigma->0) =     -231.64062589


--------------------------------------------------------------------------------------------------------




--------------------------------------- Iteration      1(  10)  ---------------------------------------


    POTLOK:  cpu time    0.2131: real time    0.2148
    SETDIJ:  cpu time    0.0109: real time    0.0110
    EDDIAG:  cpu time    2.5205: real time    2.5390
  RMM-DIIS:  cpu time    9.2224: real time    9.2899
    ORTHCH:  cpu time    0.3298: real time    0.3322
       DOS:  cpu time    0.0012: real time    0.0012
    CHARGE:  cpu time    0.9548: real time    0.9618
    MIXING:  cpu time    0.0091: real time    0.0091
    --------------------------------------------
      LOOP:  cpu time   13.2619: real time   13.3590

 eigenvalue-minimisations  :  1831
 total energy-change (2. order) : 0.1233018E+01  (-0.1858713E+00)
 number of electron     376.0000116 magnetization 
 augmentation part      112.7774028 magnetization 

 Broyden mixing:
  rms(total) = 0.53801E+00    rms(broyden)= 0.53794E+00
  rms(prec ) = 0.67360E+00
  weight for this iteration     100.00

 eigenvalues of (default mixing * dielectric matrix)
  average eigenvalue GAMMA=   0.5426
  1.3992  0.4619  0.4619  0.1400  0.2500

 Free energy of the ion-electron system (eV)
  ---------------------------------------------------
  alpha Z        PSCENC =       975.10247152
  Ewald energy   TEWEN  =     91617.85227783
  -Hartree energ DENC   =   -120328.83696781
  -exchange      EXHF   =         0.00000000
  -V(xc)+E(xc)   XCENC  =       178.63987116
  PAW double counting   =     29065.53689130   -28138.72893247
  entropy T*S    EENTRO =         0.00979727
  eigenvalues    EBANDS =      -859.90802192
  atomic energy  EATOM  =     27259.89416086
  Solvation  Ediel_sol  =         0.00000000
  ---------------------------------------------------
  free energy    TOTEN  =      -230.43845225 eV

  energy without entropy =     -230.44824952  energy(sigma->0) =     -230.44171800


--------------------------------------------------------------------------------------------------------




--------------------------------------- Iteration      1(  11)  ---------------------------------------


    POTLOK:  cpu time    0.2168: real time    0.2186
    SETDIJ:  cpu time    0.0114: real time    0.0115
    EDDIAG:  cpu time    2.5490: real time    2.5672
  RMM-DIIS:  cpu time    9.1163: real time    9.1863
    ORTHCH:  cpu time    0.3084: real time    0.3105
       DOS:  cpu time    0.0012: real time    0.0012
    CHARGE:  cpu time    0.9187: real time    0.9259
    MIXING:  cpu time    0.0081: real time    0.0081
    --------------------------------------------
      LOOP:  cpu time   13.1299: real time   13.2293

 eigenvalue-minimisations  :  1831
 total energy-change (2. order) : 0.2979620E+00  (-0.4914872E-01)
 number of electron     376.0000117 magnetization 
 augmentation part      112.9170168 magnetization 

 Broyden mixing:
  rms(total) = 0.33180E+00    rms(broyden)= 0.33141E+00
  rms(prec ) = 0.44844E+00
  weight for this iteration     100.00

 eigenvalues of (default mixing * dielectric matrix)
  average eigenvalue GAMMA=   0.5912
  1.5946  0.8823  0.3526  0.3526  0.1386  0.2265

 Free energy of the ion-electron system (eV)
  ---------------------------------------------------
  alpha Z        PSCENC =       975.10247152
  Ewald energy   TEWEN  =     91617.85227783
  -Hartree energ DENC   =   -120327.83271023
  -exchange      EXHF   =         0.00000000
  -V(xc)+E(xc)   XCENC  =       178.64764570
  PAW double counting   =     29362.65904351   -28439.68281722
  entropy T*S    EENTRO =        -0.03985503
  eigenvalues    EBANDS =      -856.74070721
  atomic energy  EATOM  =     27259.89416086
  Solvation  Ediel_sol  =         0.00000000
  ---------------------------------------------------
  free energy    TOTEN  =      -230.14049027 eV

  energy without entropy =     -230.10063523  energy(sigma->0) =     -230.12720525


--------------------------------------------------------------------------------------------------------




--------------------------------------- Iteration      1(  12)  ---------------------------------------


    POTLOK:  cpu time    0.2080: real time    0.2095
    SETDIJ:  cpu time    0.0141: real time    0.0142
    EDDIAG:  cpu time    2.4388: real time    2.4545
  RMM-DIIS:  cpu time    8.6264: real time    8.6926
    ORTHCH:  cpu time    0.3335: real time    0.3360
       DOS:  cpu time    0.0012: real time    0.0012
    CHARGE:  cpu time    0.8580: real time    0.8637
    MIXING:  cpu time    0.0077: real time    0.0077
    --------------------------------------------
      LOOP:  cpu time   12.4878: real time   12.5795

 eigenvalue-minimisations  :  1843
 total energy-change (2. order) : 0.1693638E+00  (-0.2128389E-01)
 number of electron     376.0000116 magnetization 
 augmentation part      112.9662207 magnetization 

 Broyden mixing:
  rms(total) = 0.17384E+00    rms(broyden)= 0.17381E+00
  rms(prec ) = 0.19414E+00
  weight for this iteration     100.00

 eigenvalues of (default mixing * dielectric matrix)
  average eigenvalue GAMMA=   0.6766
  1.9469  1.0699  0.6154  0.4283  0.1387  0.2985  0.2382

 Free energy of the ion-electron system (eV)
  ---------------------------------------------------
  alpha Z        PSCENC =       975.10247152
  Ewald energy   TEWEN  =     91617.85227783
  -Hartree energ DENC   =   -120319.55737261
  -exchange      EXHF   =         0.00000000
  -V(xc)+E(xc)   XCENC  =       178.59625602
  PAW double counting   =     29695.23884048   -28776.28721143
  entropy T*S    EENTRO =        -0.02556484
  eigenvalues    EBANDS =      -860.78498435
  atomic energy  EATOM  =     27259.89416086
  Solvation  Ediel_sol  =         0.00000000
  ---------------------------------------------------
  free energy    TOTEN  =      -229.97112651 eV

  energy without entropy =     -229.94556168  energy(sigma->0) =     -229.96260490


--------------------------------------------------------------------------------------------------------




--------------------------------------- Iteration      1(  13)  ---------------------------------------


    POTLOK:  cpu time    0.2147: real time    0.2165
    SETDIJ:  cpu time    0.0115: real time    0.0115
    EDDIAG:  cpu time    2.5109: real time    2.5292
  RMM-DIIS:  cpu time    9.1153: real time    9.1829
    ORTHCH:  cpu time    0.3229: real time    0.3250
       DOS:  cpu time    0.0012: real time    0.0012
    CHARGE:  cpu time    0.9951: real time    1.0025
    MIXING:  cpu time    0.0078: real time    0.0079
    --------------------------------------------
      LOOP:  cpu time   13.1793: real time   13.2768

 eigenvalue-minimisations  :  1833
 total energy-change (2. order) :-0.4585338E-02  (-0.9417450E-02)
 number of electron     376.0000116 magnetization 
 augmentation part      112.9737326 magnetization 

 Broyden mixing:
  rms(total) = 0.18055E+00    rms(broyden)= 0.18054E+00
  rms(prec ) = 0.22474E+00
  weight for this iteration     100.00

 eigenvalues of (default mixing * dielectric matrix)
  average eigenvalue GAMMA=   0.6942
  2.1572  1.1262  0.8368  0.4299  0.1387  0.3177  0.3177  0.2291

 Free energy of the ion-electron system (eV)
  ---------------------------------------------------
  alpha Z        PSCENC =       975.10247152
  Ewald energy   TEWEN  =     91617.85227783
  -Hartree energ DENC   =   -120321.37615770
  -exchange      EXHF   =         0.00000000
  -V(xc)+E(xc)   XCENC  =       178.50741798
  PAW double counting   =     29955.69393312   -29039.83459640
  entropy T*S    EENTRO =        -0.02239215
  eigenvalues    EBANDS =      -855.79282692
  atomic energy  EATOM  =     27259.89416086
  Solvation  Ediel_sol  =         0.00000000
  ---------------------------------------------------
  free energy    TOTEN  =      -229.97571185 eV

  energy without entropy =     -229.95331970  energy(sigma->0) =     -229.96824780


--------------------------------------------------------------------------------------------------------




--------------------------------------- Iteration      1(  14)  ---------------------------------------


    POTLOK:  cpu time    0.2155: real time    0.2172
    SETDIJ:  cpu time    0.0116: real time    0.0117
    EDDIAG:  cpu time    2.5989: real time    2.6178
  RMM-DIIS:  cpu time    8.6007: real time    8.6631
    ORTHCH:  cpu time    0.3131: real time    0.3152
       DOS:  cpu time    0.0011: real time    0.0011
    CHARGE:  cpu time    0.7351: real time    0.7400
    MIXING:  cpu time    0.0085: real time    0.0086
    --------------------------------------------
      LOOP:  cpu time   12.4845: real time   12.5746

 eigenvalue-minimisations  :  1830
 total energy-change (2. order) : 0.3509581E-01  (-0.7199535E-02)
 number of electron     376.0000116 magnetization 
 augmentation part      112.9598650 magnetization 

 Broyden mixing:
  rms(total) = 0.97457E-01    rms(broyden)= 0.97449E-01
  rms(prec ) = 0.12225E+00
  weight for this iteration     100.00

 eigenvalues of (default mixing * dielectric matrix)
  average eigenvalue GAMMA=   0.7327
  2.4469  1.2572  0.8382  0.7315  0.1387  0.3809  0.3227  0.2269  0.2514

 Free energy of the ion-electron system (eV)
  ---------------------------------------------------
  alpha Z        PSCENC =       975.10247152
  Ewald energy   TEWEN  =     91617.85227783
  -Hartree energ DENC   =   -120325.36625450
  -exchange      EXHF   =         0.00000000
  -V(xc)+E(xc)   XCENC  =       178.46149357
  PAW double counting   =     30078.57891277   -29164.13822857
  entropy T*S    EENTRO =        -0.02381232
  eigenvalues    EBANDS =      -850.30163721
  atomic energy  EATOM  =     27259.89416086
  Solvation  Ediel_sol  =         0.00000000
  ---------------------------------------------------
  free energy    TOTEN  =      -229.94061605 eV

  energy without entropy =     -229.91680373  energy(sigma->0) =     -229.93267861


--------------------------------------------------------------------------------------------------------




--------------------------------------- Iteration      1(  15)  ---------------------------------------


    POTLOK:  cpu time    0.1900: real time    0.1916
    SETDIJ:  cpu time    0.0105: real time    0.0106
    EDDIAG:  cpu time    2.3185: real time    2.3341
  RMM-DIIS:  cpu time    8.6156: real time    8.6819
    ORTHCH:  cpu time    0.2923: real time    0.2942
       DOS:  cpu time    0.0012: real time    0.0012
    CHARGE:  cpu time    0.9702: real time    0.9770
    MIXING:  cpu time    0.0113: real time    0.0113
    --------------------------------------------
      LOOP:  cpu time   12.4096: real time   12.5019

 eigenvalue-minimisations  :  1829
 total energy-change (2. order) : 0.6511642E-02  (-0.2660269E-02)
 number of electron     376.0000116 magnetization 
 augmentation part      112.9395398 magnetization 

 Broyden mixing:
  rms(total) = 0.64136E-01    rms(broyden)= 0.64087E-01
  rms(prec ) = 0.80394E-01
  weight for this iteration     100.00

 eigenvalues of (default mixing * dielectric matrix)
  average eigenvalue GAMMA=   0.7078
  2.4952  1.2811  0.8462  0.7926  0.4289  0.1387  0.3140  0.3140  0.2262  0.2411

 Free energy of the ion-electron system (eV)
  ---------------------------------------------------
  alpha Z        PSCENC =       975.10247152
  Ewald energy   TEWEN  =     91617.85227783
  -Hartree energ DENC   =   -120327.59826009
  -exchange      EXHF   =         0.00000000
  -V(xc)+E(xc)   XCENC  =       178.44440941
  PAW double counting   =     30167.61949747   -29254.13127502
  entropy T*S    EENTRO =        -0.01822595
  eigenvalues    EBANDS =      -847.09916044
  atomic energy  EATOM  =     27259.89416086
  Solvation  Ediel_sol  =         0.00000000
  ---------------------------------------------------
  free energy    TOTEN  =      -229.93410440 eV

  energy without entropy =     -229.91587846  energy(sigma->0) =     -229.92802909


--------------------------------------------------------------------------------------------------------




--------------------------------------- Iteration      1(  16)  ---------------------------------------


    POTLOK:  cpu time    0.2178: real time    0.2196
    SETDIJ:  cpu time    0.0101: real time    0.0102
    EDDIAG:  cpu time    2.7453: real time    2.7653
  RMM-DIIS:  cpu time    9.4830: real time    9.5536
    ORTHCH:  cpu time    0.3308: real time    0.3331
       DOS:  cpu time    0.0013: real time    0.0013
    CHARGE:  cpu time    0.8721: real time    0.8781
    MIXING:  cpu time    0.0106: real time    0.0107
    --------------------------------------------
      LOOP:  cpu time   13.6710: real time   13.7719

 eigenvalue-minimisations  :  1827
 total energy-change (2. order) : 0.6742215E-02  (-0.6550319E-03)
 number of electron     376.0000116 magnetization 
 augmentation part      112.9443806 magnetization 

 Broyden mixing:
  rms(total) = 0.18829E-01    rms(broyden)= 0.18823E-01
  rms(prec ) = 0.22261E-01
  weight for this iteration     100.00

 eigenvalues of (default mixing * dielectric matrix)
  average eigenvalue GAMMA=   0.6965
  2.5077  1.2865  0.8434  0.6968  0.6968  0.1387  0.3990  0.3140  0.3140  0.2392
  0.2251

 Free energy of the ion-electron system (eV)
  ---------------------------------------------------
  alpha Z        PSCENC =       975.10247152
  Ewald energy   TEWEN  =     91617.85227783
  -Hartree energ DENC   =   -120328.51979144
  -exchange      EXHF   =         0.00000000
  -V(xc)+E(xc)   XCENC  =       178.45379472
  PAW double counting   =     30179.40568143   -29266.01906464
  entropy T*S    EENTRO =        -0.02073543
  eigenvalues    EBANDS =      -846.07615705
  atomic energy  EATOM  =     27259.89416086
  Solvation  Ediel_sol  =         0.00000000
  ---------------------------------------------------
  free energy    TOTEN  =      -229.92736219 eV

  energy without entropy =     -229.90662676  energy(sigma->0) =     -229.92045038


--------------------------------------------------------------------------------------------------------




--------------------------------------- Iteration      1(  17)  ---------------------------------------


    POTLOK:  cpu time    0.2087: real time    0.2104
    SETDIJ:  cpu time    0.0115: real time    0.0115
    EDDIAG:  cpu time    2.3464: real time    2.3632
  RMM-DIIS:  cpu time    8.3696: real time    8.4319
    ORTHCH:  cpu time    0.3007: real time    0.3030
       DOS:  cpu time    0.0013: real time    0.0013
    CHARGE:  cpu time    0.7857: real time    0.7915
    MIXING:  cpu time    0.0087: real time    0.0087
    --------------------------------------------
      LOOP:  cpu time   12.0326: real time   12.1216

 eigenvalue-minimisations  :  1811
 total energy-change (2. order) : 0.2003645E-03  (-0.1284944E-03)
 number of electron     376.0000116 magnetization 
 augmentation part      112.9450762 magnetization 

 Broyden mixing:
  rms(total) = 0.14532E-01    rms(broyden)= 0.14529E-01
  rms(prec ) = 0.17535E-01
  weight for this iteration     100.00

 eigenvalues of (default mixing * dielectric matrix)
  average eigenvalue GAMMA=   0.7394
  2.5506  1.3773  1.0868  1.0868  0.8296  0.4328  0.1387  0.3210  0.3210  0.2662
  0.2381  0.2243

 Free energy of the ion-electron system (eV)
  ---------------------------------------------------
  alpha Z        PSCENC =       975.10247152
  Ewald energy   TEWEN  =     91617.85227783
  -Hartree energ DENC   =   -120329.11430961
  -exchange      EXHF   =         0.00000000
  -V(xc)+E(xc)   XCENC  =       178.46097866
  PAW double counting   =     30179.77381298   -29266.36020431
  entropy T*S    EENTRO =        -0.02117411
  eigenvalues    EBANDS =      -845.51517565
  atomic energy  EATOM  =     27259.89416086
  Solvation  Ediel_sol  =         0.00000000
  ---------------------------------------------------
  free energy    TOTEN  =      -229.92716183 eV

  energy without entropy =     -229.90598772  energy(sigma->0) =     -229.92010379


--------------------------------------------------------------------------------------------------------




--------------------------------------- Iteration      1(  18)  ---------------------------------------


    POTLOK:  cpu time    0.1997: real time    0.2013
    SETDIJ:  cpu time    0.0100: real time    0.0101
    EDDIAG:  cpu time    2.3288: real time    2.3467
  RMM-DIIS:  cpu time    7.7749: real time    7.8340
    ORTHCH:  cpu time    0.2985: real time    0.3007
       DOS:  cpu time    0.0014: real time    0.0014
    --------------------------------------------
      LOOP:  cpu time   10.6134: real time   10.6942

 eigenvalue-minimisations  :  1764
 total energy-change (2. order) :-0.9796577E-04  (-0.7891519E-04)
 number of electron     376.0000116 magnetization 
 augmentation part      112.9450762 magnetization 

 Free energy of the ion-electron system (eV)
  ---------------------------------------------------
  alpha Z        PSCENC =       975.10247152
  Ewald energy   TEWEN  =     91617.85227783
  -Hartree energ DENC   =   -120330.45206728
  -exchange      EXHF   =         0.00000000
  -V(xc)+E(xc)   XCENC  =       178.47271520
  PAW double counting   =     30179.70133195   -29266.22625432
  entropy T*S    EENTRO =        -0.02076772
  eigenvalues    EBANDS =      -844.25112783
  atomic energy  EATOM  =     27259.89416086
  Solvation  Ediel_sol  =         0.00000000
  ---------------------------------------------------
  free energy    TOTEN  =      -229.92725979 eV

  energy without entropy =     -229.90649207  energy(sigma->0) =     -229.92033722


--------------------------------------------------------------------------------------------------------




 average (electrostatic) potential at core
  the test charge radii are     0.6991  0.7215  1.2059
  (the norm of the test charge is              1.0000)
       1 -56.2871       2 -74.9546       3 -76.4814       4 -72.3044       5 -72.2820
       6 -72.2664       7 -72.2666       8 -72.3050       9 -72.2753      10 -72.2473
      11 -72.2776      12 -72.2425      13 -72.8261      14 -72.9005      15 -72.9400
      16 -72.9503      17 -72.9459      18 -72.9143      19 -72.9900      20 -73.0213
      21 -72.9930      22 -72.9016      23 -72.9338      24 -72.8818      25 -72.9745
      26 -72.9958      27 -72.9862      28 -72.9846      29 -72.9268      30 -72.8796
      31 -72.2938      32 -72.3526      33 -72.5585      34 -72.4597      35 -72.2511
      36 -73.1440      37 -72.4594      38 -73.3662      39 -72.3801
 
 
 
 E-fermi :   1.1378     XC(G=0):  -6.6278     alpha+bet : -6.8913


 k-point     1 :       0.0000    0.0000    0.0000
  band No.  band energies     occupation 
      1     -22.2873      2.00000
      2     -17.3322      2.00000
      3      -8.4356      2.00000
      4      -8.0841      2.00000
      5      -6.8066      2.00000
      6      -6.0628      2.00000
      7      -5.8789      2.00000
      8      -5.7206      2.00000
      9      -5.6766      2.00000
     10      -5.6680      2.00000
     11      -5.6412      2.00000
     12      -5.5906      2.00000
     13      -5.5503      2.00000
     14      -5.5286      2.00000
     15      -5.4387      2.00000
     16      -5.2638      2.00000
     17      -5.1083      2.00000
     18      -5.0711      2.00000
     19      -5.0440      2.00000
     20      -5.0116      2.00000
     21      -5.0000      2.00000
     22      -4.9741      2.00000
     23      -4.7425      2.00000
     24      -4.6409      2.00000
     25      -4.5558      2.00000
     26      -4.5301      2.00000
     27      -4.5105      2.00000
     28      -4.5037      2.00000
     29      -4.4104      2.00000
     30      -4.3656      2.00000
     31      -4.3396      2.00000
     32      -4.3127      2.00000
     33      -4.2782      2.00000
     34      -4.2355      2.00000
     35      -4.1450      2.00000
     36      -4.1412      2.00000
     37      -4.1143      2.00000
     38      -4.0935      2.00000
     39      -4.0728      2.00000
     40      -4.0541      2.00000
     41      -4.0219      2.00000
     42      -4.0167      2.00000
     43      -4.0073      2.00000
     44      -3.9891      2.00000
     45      -3.9843      2.00000
     46      -3.9290      2.00000
     47      -3.7096      2.00000
     48      -3.5694      2.00000
     49      -3.4939      2.00000
     50      -3.4506      2.00000
     51      -3.4130      2.00000
     52      -3.4014      2.00000
     53      -3.3715      2.00000
     54      -3.3647      2.00000
     55      -3.3120      2.00000
     56      -3.2922      2.00000
     57      -3.2870      2.00000
     58      -3.1963      2.00000
     59      -3.1492      2.00000
     60      -3.1380      2.00000
     61      -3.1156      2.00000
     62      -3.0271      2.00000
     63      -2.9606      2.00000
     64      -2.6261      2.00000
     65      -2.5649      2.00000
     66      -2.5444      2.00000
     67      -2.5318      2.00000
     68      -2.5008      2.00000
     69      -2.4769      2.00000
     70      -2.4511      2.00000
     71      -2.4268      2.00000
     72      -2.4036      2.00000
     73      -2.3838      2.00000
     74      -2.3686      2.00000
     75      -2.3593      2.00000
     76      -2.3410      2.00000
     77      -2.3248      2.00000
     78      -2.3214      2.00000
     79      -2.3051      2.00000
     80      -2.2951      2.00000
     81      -2.2782      2.00000
     82      -2.2707      2.00000
     83      -2.2415      2.00000
     84      -2.2304      2.00000
     85      -2.1616      2.00000
     86      -2.1316      2.00000
     87      -2.1028      2.00000
     88      -2.0831      2.00000
     89      -2.0647      2.00000
     90      -2.0500      2.00000
     91      -2.0124      2.00000
     92      -1.9785      2.00000
     93      -1.9663      2.00000
     94      -1.9433      2.00000
     95      -1.9158      2.00000
     96      -1.8799      2.00000
     97      -1.8673      2.00000
     98      -1.8336      2.00000
     99      -1.7927      2.00000
    100      -1.7662      2.00000
    101      -1.6890      2.00000
    102      -1.5966      2.00000
    103      -1.5830      2.00000
    104      -1.5593      2.00000
    105      -1.5571      2.00000
    106      -1.5147      2.00000
    107      -1.4981      2.00000
    108      -1.4907      2.00000
    109      -1.4617      2.00000
    110      -1.4485      2.00000
    111      -1.4437      2.00000
    112      -1.4314      2.00000
    113      -1.4120      2.00000
    114      -1.3394      2.00000
    115      -1.2699      2.00000
    116      -1.1623      2.00000
    117      -1.0967      2.00000
    118      -1.0266      2.00000
    119      -0.9991      2.00000
    120      -0.9908      2.00000
    121      -0.9576      2.00000
    122      -0.8923      2.00000
    123      -0.8842      2.00000
    124      -0.8524      2.00000
    125      -0.8198      2.00000
    126      -0.7956      2.00000
    127      -0.7593      2.00000
    128      -0.7240      2.00000
    129      -0.6520      2.00000
    130      -0.6286      2.00000
    131      -0.6193      2.00000
    132      -0.6036      2.00000
    133      -0.5675      2.00000
    134      -0.5177      2.00000
    135      -0.5080      2.00000
    136      -0.4351      2.00000
    137      -0.3734      2.00000
    138      -0.3423      2.00000
    139      -0.3219      2.00000
    140      -0.3002      2.00000
    141      -0.2606      2.00000
    142      -0.2137      2.00000
    143      -0.1665      2.00000
    144      -0.1359      2.00000
    145      -0.1225      2.00000
    146      -0.0951      2.00000
    147      -0.0406      2.00000
    148       0.0066      2.00000
    149       0.0321      2.00000
    150       0.0673      2.00000
    151       0.0889      2.00000
    152       0.1349      2.00000
    153       0.1637      2.00000
    154       0.1784      2.00000
    155       0.1983      2.00000
    156       0.2097      2.00000
    157       0.2662      2.00000
    158       0.2861      2.00000
    159       0.3049      2.00000
    160       0.3313      2.00000
    161       0.3471      2.00000
    162       0.3522      2.00000
    163       0.3702      2.00000
    164       0.3792      2.00000
    165       0.3857      2.00000
    166       0.4188      2.00000
    167       0.4414      2.00001
    168       0.4717      2.00003
    169       0.4853      2.00004
    170       0.5172      2.00010
    171       0.5273      2.00014
    172       0.5652      2.00039
    173       0.6352      2.00218
    174       0.6488      2.00295
    175       0.6661      2.00425
    176       0.6756      2.00517
    177       0.6989      2.00812
    178       0.7368      2.01575
    179       0.7508      2.01963
    180       0.7527      2.02018
    181       0.7638      2.02379
    182       0.8179      2.04617
    183       0.8418      2.05707
    184       0.8469      2.05925
    185       0.8539      2.06210
    186       0.8576      2.06349
    187       0.8703      2.06758
    188       0.8770      2.06918
    189       0.8886      2.07078
    190       0.8963      2.07082
    191       0.9024      2.07016
    192       0.9090      2.06868
    193       0.9163      2.06597
    194       0.9856      1.95866
    195       1.0065      1.88756
    196       1.1264      1.09634
    197       1.1530      0.87125
    198       1.2090      0.43770
    199       1.2410      0.24214
    200       1.2638      0.13404
    201       1.2722      0.10037
    202       1.3077     -0.00327
    203       1.3108     -0.00983
    204       1.4309     -0.05832
    205       1.5705     -0.00910
    206       1.9562     -0.00000
    207       2.0466     -0.00000
    208       2.1067     -0.00000
    209       2.1474     -0.00000
    210       2.2234     -0.00000
    211       2.5065     -0.00000
    212       3.5609     -0.00000
    213       3.9890     -0.00000
    214       4.3842     -0.00000
    215       4.4082     -0.00000
    216       4.4710     -0.00000
    217       4.5892     -0.00000
    218       4.8377     -0.00000
    219       5.4250     -0.00000
    220       5.5731     -0.00000
    221       5.8992     -0.00000
    222       5.9205     -0.00000
    223       5.9307     -0.00000
    224       5.9631     -0.00000
    225       6.0012     -0.00000
    226       6.0902     -0.00000
    227       6.5552     -0.00000
    228       6.7548      0.00000

 k-point     2 :       0.5000    0.0000    0.0000
  band No.  band energies     occupation 
      1     -22.2872      2.00000
      2     -17.3318      2.00000
      3      -8.4077      2.00000
      4      -7.2419      2.00000
      5      -7.2299      2.00000
      6      -6.1483      2.00000
      7      -6.0391      2.00000
      8      -5.8884      2.00000
      9      -5.8050      2.00000
     10      -5.7323      2.00000
     11      -5.5333      2.00000
     12      -5.4157      2.00000
     13      -5.3078      2.00000
     14      -5.2456      2.00000
     15      -4.9787      2.00000
     16      -4.9135      2.00000
     17      -4.8953      2.00000
     18      -4.8698      2.00000
     19      -4.8528      2.00000
     20      -4.8358      2.00000
     21      -4.8190      2.00000
     22      -4.7680      2.00000
     23      -4.7551      2.00000
     24      -4.7379      2.00000
     25      -4.7261      2.00000
     26      -4.7107      2.00000
     27      -4.6849      2.00000
     28      -4.6400      2.00000
     29      -4.6096      2.00000
     30      -4.5300      2.00000
     31      -4.3834      2.00000
     32      -4.3210      2.00000
     33      -4.3174      2.00000
     34      -4.2934      2.00000
     35      -4.2524      2.00000
     36      -4.2011      2.00000
     37      -4.0608      2.00000
     38      -4.0198      2.00000
     39      -3.9771      2.00000
     40      -3.9631      2.00000
     41      -3.9414      2.00000
     42      -3.9106      2.00000
     43      -3.8870      2.00000
     44      -3.8166      2.00000
     45      -3.7696      2.00000
     46      -3.6970      2.00000
     47      -3.6569      2.00000
     48      -3.6386      2.00000
     49      -3.6125      2.00000
     50      -3.5580      2.00000
     51      -3.4501      2.00000
     52      -3.4408      2.00000
     53      -3.4210      2.00000
     54      -3.3345      2.00000
     55      -3.3223      2.00000
     56      -3.3045      2.00000
     57      -3.2758      2.00000
     58      -3.2614      2.00000
     59      -3.1852      2.00000
     60      -3.1478      2.00000
     61      -3.1109      2.00000
     62      -3.0270      2.00000
     63      -3.0216      2.00000
     64      -3.0137      2.00000
     65      -2.9582      2.00000
     66      -2.9434      2.00000
     67      -2.8915      2.00000
     68      -2.8529      2.00000
     69      -2.8448      2.00000
     70      -2.7877      2.00000
     71      -2.7611      2.00000
     72      -2.7219      2.00000
     73      -2.6337      2.00000
     74      -2.5833      2.00000
     75      -2.5139      2.00000
     76      -2.5133      2.00000
     77      -2.4789      2.00000
     78      -2.4669      2.00000
     79      -2.4395      2.00000
     80      -2.3829      2.00000
     81      -2.3185      2.00000
     82      -2.3134      2.00000
     83      -2.2583      2.00000
     84      -2.2286      2.00000
     85      -2.2032      2.00000
     86      -2.2009      2.00000
     87      -2.1615      2.00000
     88      -2.1529      2.00000
     89      -2.1452      2.00000
     90      -2.1304      2.00000
     91      -2.1109      2.00000
     92      -2.0931      2.00000
     93      -2.0344      2.00000
     94      -1.9740      2.00000
     95      -1.9247      2.00000
     96      -1.9187      2.00000
     97      -1.9123      2.00000
     98      -1.8836      2.00000
     99      -1.8596      2.00000
    100      -1.8065      2.00000
    101      -1.7907      2.00000
    102      -1.7255      2.00000
    103      -1.7162      2.00000
    104      -1.6865      2.00000
    105      -1.6769      2.00000
    106      -1.6505      2.00000
    107      -1.6224      2.00000
    108      -1.5987      2.00000
    109      -1.5687      2.00000
    110      -1.5447      2.00000
    111      -1.4973      2.00000
    112      -1.4396      2.00000
    113      -1.3864      2.00000
    114      -1.3545      2.00000
    115      -1.3040      2.00000
    116      -1.2670      2.00000
    117      -1.2049      2.00000
    118      -1.1840      2.00000
    119      -1.1491      2.00000
    120      -1.1061      2.00000
    121      -1.0603      2.00000
    122      -1.0173      2.00000
    123      -1.0151      2.00000
    124      -0.9918      2.00000
    125      -0.9694      2.00000
    126      -0.9424      2.00000
    127      -0.9301      2.00000
    128      -0.9028      2.00000
    129      -0.8666      2.00000
    130      -0.8460      2.00000
[...]
     83      -2.2710      2.00000
     84      -2.2619      2.00000
     85      -2.2147      2.00000
     86      -2.1965      2.00000
     87      -2.1768      2.00000
     88      -2.1698      2.00000
     89      -2.1598      2.00000
     90      -2.1312      2.00000
     91      -2.1231      2.00000
     92      -2.0954      2.00000
     93      -2.0577      2.00000
     94      -2.0045      2.00000
     95      -1.9688      2.00000
     96      -1.9476      2.00000
     97      -1.9100      2.00000
     98      -1.8735      2.00000
     99      -1.8539      2.00000
    100      -1.8001      2.00000
    101      -1.7849      2.00000
    102      -1.7544      2.00000
    103      -1.7216      2.00000
    104      -1.7149      2.00000
    105      -1.6936      2.00000
    106      -1.6739      2.00000
    107      -1.6534      2.00000
    108      -1.6394      2.00000
    109      -1.6023      2.00000
    110      -1.5567      2.00000
    111      -1.5155      2.00000
    112      -1.4669      2.00000
    113      -1.4469      2.00000
    114      -1.3948      2.00000
    115      -1.3166      2.00000
    116      -1.2880      2.00000
    117      -1.2043      2.00000
    118      -1.1865      2.00000
    119      -1.1473      2.00000
    120      -1.0933      2.00000
    121      -1.0800      2.00000
    122      -1.0359      2.00000
    123      -1.0304      2.00000
    124      -1.0113      2.00000
    125      -0.9678      2.00000
    126      -0.9583      2.00000
    127      -0.9371      2.00000
    128      -0.9189      2.00000
    129      -0.9024      2.00000
    130      -0.8821      2.00000
    131      -0.8399      2.00000
    132      -0.8082      2.00000
    133      -0.7583      2.00000
    134      -0.7270      2.00000
    135      -0.7105      2.00000
    136      -0.6872      2.00000
    137      -0.6741      2.00000
    138      -0.6372      2.00000
    139      -0.5871      2.00000
    140      -0.5504      2.00000
    141      -0.4809      2.00000
    142      -0.4396      2.00000
    143      -0.3834      2.00000
    144      -0.3048      2.00000
    145      -0.2595      2.00000
    146      -0.1897      2.00000
    147      -0.1642      2.00000
    148      -0.1176      2.00000
    149      -0.0947      2.00000
    150      -0.0475      2.00000
    151      -0.0218      2.00000
    152       0.0392      2.00000
    153       0.0475      2.00000
    154       0.0835      2.00000
    155       0.1022      2.00000
    156       0.1078      2.00000
    157       0.1222      2.00000
    158       0.1741      2.00000
    159       0.2097      2.00000
    160       0.2321      2.00000
    161       0.2528      2.00000
    162       0.3093      2.00000
    163       0.3285      2.00000
    164       0.3647      2.00000
    165       0.3761      2.00000
    166       0.4072      2.00001
    167       0.5197      2.00024
    168       0.5947      2.00159
    169       0.6077      2.00214
    170       0.6308      2.00354
    171       0.6504      2.00530
    172       0.6848      2.01019
    173       0.7164      2.01735
    174       0.7981      2.04929
    175       0.8032      2.05164
    176       0.8237      2.06060
    177       0.8626      2.07081
    178       0.8860      2.06751
    179       0.9324      2.02075
    180       0.9398      2.00655
    181       0.9530      1.97553
    182       1.0323      1.61425
    183       1.0676      1.36015
    184       1.0936      1.14922
    185       1.1060      1.04492
    186       1.1147      0.97086
    187       1.1444      0.72401
    188       1.1572      0.62242
    189       1.1836      0.43037
    190       1.1911      0.38051
    191       1.3111     -0.05005
    192       1.3477     -0.07032
    193       1.3729     -0.06901
    194       1.4012     -0.05964
    195       1.4405     -0.04192
    196       1.4927     -0.02135
    197       1.5911     -0.00359
    198       1.7303     -0.00011
    199       1.8348     -0.00000
    200       1.9982     -0.00000
    201       2.2579     -0.00000
    202       2.3306     -0.00000
    203       2.7898     -0.00000
    204       2.9455     -0.00000
    205       2.9652     -0.00000
    206       2.9996     -0.00000
    207       3.0189     -0.00000
    208       3.2167     -0.00000
    209       3.3937     -0.00000
    210       3.5248     -0.00000
    211       3.5796     -0.00000
    212       3.6069     -0.00000
    213       3.7361     -0.00000
    214       3.8191     -0.00000
    215       3.9838     -0.00000
    216       4.1864     -0.00000
    217       4.2526     -0.00000
    218       4.4096     -0.00000
    219       4.4445     -0.00000
    220       4.6146     -0.00000
    221       4.6608     -0.00000
    222       4.8377     -0.00000
    223       5.1469     -0.00000
    224       5.5472     -0.00000
    225       5.8404     -0.00000
    226       6.5604     -0.00000
    227       6.5989      0.00000
    228       6.6250      0.00000


--------------------------------------------------------------------------------------------------------


 soft charge-density along one line, spin component           1
         0         1         2         3         4         5         6         7         8         9
 total charge-density along one line
 
 pseudopotential strength for first ion, spin component:           1
 10.097   0.015   0.004   0.010   0.000  -0.004  -0.009  -0.000
  0.015  -0.002  -0.000  -0.000  -0.000  -0.000  -0.000   0.000
  0.004  -0.000  -4.246  -0.006   0.001  -0.010  -0.002   0.000
  0.010  -0.000  -0.006  -4.262   0.002  -0.002  -0.016   0.000
  0.000  -0.000   0.001   0.002  -4.244   0.000   0.000  -0.009
 -0.004  -0.000  -0.010  -0.002   0.000  -0.770  -0.000   0.000
 -0.009  -0.000  -0.002  -0.016   0.000  -0.000  -0.770   0.000
 -0.000   0.000   0.000   0.000  -0.009   0.000   0.000  -0.770
 total augmentation occupancy for first ion, spin component:           1
  1.642  -0.862   0.004  -0.004  -0.049   0.033   0.081  -0.019
 -0.862   1.196  -0.208  -0.536   0.066  -0.083  -0.225   0.022
  0.004  -0.208   0.849   0.195   0.011   0.114   0.054  -0.002
 -0.004  -0.536   0.195   1.322   0.004   0.055   0.248  -0.005
 -0.049   0.066   0.011   0.004   0.782  -0.003  -0.005   0.096
  0.033  -0.083   0.114   0.055  -0.003   0.020   0.021  -0.002
  0.081  -0.225   0.054   0.248  -0.005   0.021   0.070  -0.004
 -0.019   0.022  -0.002  -0.005   0.096  -0.002  -0.004   0.013


------------------------ aborting loop because EDIFF is reached ----------------------------------------


    CHARGE:  cpu time    1.0205: real time    1.0274
    FORLOC:  cpu time    0.0548: real time    0.0551
    FORNL :  cpu time    4.3165: real time    4.3467
    STRESS:  cpu time   13.2546: real time   13.3448
    FORCOR:  cpu time    0.1884: real time    0.1898
    FORHAR:  cpu time    0.0808: real time    0.0814
    MIXING:  cpu time    0.0056: real time    0.0056
    OFIELD:  cpu time    0.0001: real time    0.0001

  FORCE on cell =-STRESS in cart. coord.  units (eV):
  Direction    XX          YY          ZZ          XY          YZ          ZX
  --------------------------------------------------------------------------------------
  Alpha Z   975.10247   975.10247   975.10247
  Ewald  111276.71576111280.59580************  -187.53661   248.19992   -84.52900
  Hartree118038.48049118009.06881************  -125.47287   103.04658   -52.32255
  E(xc)   -1666.14683 -1665.84296 -1673.41165    -0.43709     0.72139    -0.19781
  Local  ************************239984.05895   303.04240  -326.67836   131.57347
  n-local   125.02737   124.43840    92.41874    -1.39175     1.16781    -0.24763
  augment  1895.70278  1893.21241  1931.96607     2.81832    -4.51457     1.05423
  Kinetic  5525.71263  5514.85304  5598.10194     9.51818   -22.43861     5.67940
  Fock        0.00000     0.00000     0.00000     0.00000     0.00000     0.00000
  -------------------------------------------------------------------------------------
  Total     -34.97014   -37.35918    -3.10256     0.54056    -0.49584     1.01011
  in kB     -41.65002   -44.49540    -3.69520     0.64382    -0.59055     1.20306
  external pressure =      -29.95 kB  Pullay stress =        0.00 kB


 VOLUME and BASIS-vectors are now :
 -----------------------------------------------------------------------------
  energy-cutoff  :      450.00
  volume of cell :     1345.22
      direct lattice vectors                 reciprocal lattice vectors
     7.296955120 -4.212899000  0.000000000     0.137043463  0.000000000  0.000000000
     0.000000000  8.425798000  0.000000000     0.068521732  0.118683121  0.000000000
     0.000000000  0.000000000 21.879635000     0.000000000  0.000000000  0.045704602

  length of vectors
     8.425798004  8.425798000 21.879635000     0.137043463  0.137043463  0.045704602


 FORCES acting on ions
    electron-ion (+dipol)            ewald-force                    non-local-force                 convergence-correction
 -----------------------------------------------------------------------------------------------
   0.217E+02 0.165E+02 -.885E+03   -.228E+02 -.210E+02 0.874E+03   0.735E+00 0.397E+01 0.112E+02   -.150E-01 0.251E-02 0.186E-02
   -.766E+02 0.458E+02 -.160E+04   0.767E+02 -.410E+02 0.162E+04   0.490E+00 -.457E+01 -.238E+02   0.165E-01 -.838E-02 -.177E-01
   0.506E+02 -.105E+03 -.155E+04   -.559E+02 0.126E+03 0.160E+04   0.545E+01 -.210E+02 -.578E+02   0.822E-02 -.169E-01 -.594E-01
   0.428E-01 0.571E-01 0.234E+04   -.917E-01 -.751E-01 -.234E+04   0.260E-01 -.505E-01 -.120E+01   0.229E-01 0.390E-01 0.104E-01
   0.235E+00 0.291E+00 0.234E+04   -.271E+00 -.288E+00 -.234E+04   -.227E-01 -.360E-01 -.111E+01   0.376E-01 -.214E-01 0.146E-01
   0.141E+00 0.563E+00 0.234E+04   -.189E+00 -.579E+00 -.234E+04   0.337E-01 -.101E-01 -.114E+01   -.340E-01 0.282E-01 0.992E-02
   -.189E+00 0.718E+00 0.234E+04   0.188E+00 -.653E+00 -.234E+04   -.124E-02 0.117E-01 -.120E+01   0.135E-01 0.182E-02 0.756E-02
   0.429E+00 0.216E+00 0.234E+04   -.444E+00 -.217E+00 -.234E+04   0.169E-01 0.173E-01 -.127E+01   -.163E-01 0.118E-01 0.205E-01
   0.432E+00 0.335E+00 0.234E+04   -.404E+00 -.285E+00 -.234E+04   0.175E-01 0.344E-02 -.123E+01   -.190E-01 -.513E-01 -.406E-02
   -.347E+00 -.611E+00 0.234E+04   0.424E+00 0.502E+00 -.234E+04   -.685E-01 0.859E-01 -.111E+01   -.253E-02 0.991E-02 0.219E-01
   -.136E+00 -.819E+00 0.234E+04   0.202E+00 0.862E+00 -.234E+04   -.881E-02 -.294E-01 -.125E+01   -.494E-01 0.231E-01 0.656E-02
   -.618E+00 -.697E+00 0.234E+04   0.589E+00 0.728E+00 -.234E+04   -.244E-02 0.765E-02 -.103E+01   0.472E-01 -.409E-01 -.353E-03
   -.398E+01 -.486E+01 0.856E+03   0.386E+01 0.486E+01 -.855E+03   0.984E-01 0.488E-01 -.392E+00   0.390E-01 -.194E-01 0.362E-01
   -.360E+01 -.278E+01 0.858E+03   0.353E+01 0.283E+01 -.858E+03   0.170E+00 -.603E-02 -.138E+00   -.448E-01 0.182E-01 0.326E-01
   -.477E+00 -.714E+01 0.860E+03   0.584E+00 0.704E+01 -.860E+03   -.437E-01 0.151E+00 -.349E+00   0.146E-01 0.161E-01 0.787E-01
   0.186E+01 0.950E+00 0.860E+03   -.192E+01 -.103E+01 -.860E+03   0.154E-01 0.736E-01 -.317E+00   0.214E-01 0.557E-02 0.523E-01
   0.520E+01 0.528E+01 0.861E+03   -.525E+01 -.528E+01 -.861E+03   0.143E-01 -.834E-01 -.318E+00   -.227E-01 -.186E-01 0.120E-01
   -.125E+01 0.772E+01 0.860E+03   0.122E+01 -.776E+01 -.860E+03   0.754E-01 -.119E+00 -.262E+00   0.283E-02 0.175E-01 0.314E-01
   0.119E+00 0.444E+01 0.863E+03   -.103E+00 -.430E+01 -.863E+03   -.580E-01 -.223E+00 -.396E+00   0.131E-01 0.147E-01 0.345E-01
   0.228E+01 -.147E+01 0.866E+03   -.222E+01 0.149E+01 -.866E+03   0.133E-01 -.779E-02 -.507E+00   -.498E-01 0.583E-04 0.558E-01
   -.128E+01 0.368E+00 0.867E+03   0.132E+01 -.175E+00 -.867E+03   0.381E-01 -.112E+00 -.522E+00   0.256E-01 -.335E-01 0.385E-01
   -.791E+00 0.275E+01 -.654E+03   0.676E+00 -.279E+01 0.653E+03   0.416E-01 0.109E+00 0.136E+00   0.294E-01 -.326E-01 0.610E-01
   0.562E+00 -.229E+01 -.636E+03   -.565E+00 0.238E+01 0.635E+03   0.333E-01 -.791E-01 0.532E+00   -.158E-01 0.383E-02 -.230E-01
   -.198E+01 -.743E-01 -.671E+03   0.168E+01 0.452E+00 0.671E+03   0.330E+00 -.290E+00 -.997E-01   0.574E-05 -.153E-01 0.743E-01
   -.442E+01 0.108E+02 -.634E+03   0.397E+01 -.101E+02 0.634E+03   0.416E+00 -.771E+00 -.421E+00   0.158E-01 0.238E-01 0.621E-01
   0.969E+01 -.803E+00 -.646E+03   -.897E+01 0.615E+00 0.646E+03   -.712E+00 0.308E+00 -.297E+00   -.130E-01 -.134E-01 0.836E-01
   -.703E+01 -.123E+02 -.621E+03   0.695E+01 0.121E+02 0.621E+03   -.162E-01 0.317E+00 0.629E+00   0.406E-01 -.979E-02 -.319E-01
   -.287E+01 -.421E+01 -.618E+03   0.289E+01 0.422E+01 0.618E+03   -.461E-01 -.402E-01 0.562E+00   0.410E-02 0.336E-01 0.517E-01
   0.435E+01 0.226E+01 -.628E+03   -.431E+01 -.228E+01 0.627E+03   -.119E+00 -.596E-01 0.340E+00   -.276E-01 0.976E-02 0.410E-01
   0.337E+01 0.259E+01 -.618E+03   -.339E+01 -.289E+01 0.618E+03   -.556E-01 0.406E+00 0.638E+00   -.879E-03 -.293E-01 -.150E-01
   -.256E+02 -.601E+01 -.217E+04   0.261E+02 0.646E+01 0.217E+04   -.450E+00 -.405E+00 0.133E+01   -.173E-01 -.441E-01 -.664E-02
   0.147E+02 0.175E+02 -.215E+04   -.152E+02 -.182E+02 0.215E+04   0.486E+00 0.994E+00 0.148E+01   0.464E-01 -.303E-01 -.275E-01
   0.306E+02 -.410E+01 -.212E+04   -.310E+02 0.411E+01 0.212E+04   0.316E+00 -.646E-01 0.136E+01   -.123E-02 0.914E-02 -.571E-01
   -.835E+01 -.321E+01 -.215E+04   0.827E+01 0.284E+01 0.215E+04   0.124E+00 0.416E+00 0.115E+01   -.451E-02 0.286E-01 -.454E-01
   0.962E+01 0.927E+01 -.219E+04   -.970E+01 -.977E+01 0.219E+04   0.209E+00 0.425E+00 0.894E+00   -.141E-01 0.439E-01 0.188E-01
   0.689E+02 0.701E+02 -.198E+04   -.718E+02 -.682E+02 0.199E+04   0.261E+01 -.203E+01 -.347E+01   0.133E-01 0.163E-02 -.307E-01
   -.507E+02 -.476E+02 -.208E+04   0.521E+02 0.500E+02 0.207E+04   -.145E+01 -.260E+01 0.221E+01   0.538E-02 0.146E-01 -.186E-02
   -.584E+02 0.971E+02 -.205E+04   0.587E+02 -.976E+02 0.206E+04   -.323E+00 0.469E+00 -.110E+01   0.153E-01 -.156E-01 -.754E-01
   0.156E+02 -.657E+02 -.210E+04   -.153E+02 0.669E+02 0.210E+04   -.289E+00 -.908E+00 0.127E+01   -.122E-01 -.190E-01 0.207E-01
 -----------------------------------------------------------------------------------------------
   -.809E+01 0.259E+02 0.765E+02   -.959E-13 0.426E-13 0.136E-11   0.810E+01 -.257E+02 -.770E+02   0.724E-01 -.623E-01 0.482E+00
 
 
 POSITION                                       TOTAL-FORCE (eV/Angst)
 -----------------------------------------------------------------------------------
      5.03103      0.68104     10.38252        -0.347457     -0.563025      0.081209
      6.65274     -0.52969     10.17481         0.616304      0.174942     -0.034574
      4.93449      1.07946     11.46952         0.176169      0.042999     -0.046633
      7.20031     -1.38846      1.62732        -0.002130     -0.033393      0.173075
      2.33567      1.42014      1.62732        -0.022707     -0.058881      0.156961
      4.76799      0.01584      1.62732        -0.049816     -0.001911      0.131849
      7.20031      1.42015      1.62732         0.009729      0.074518      0.108535
      2.33567      4.22875      1.62732        -0.016519      0.024028      0.166951
      4.76799      2.82445      1.62732         0.024671     -0.001489      0.128823
      2.33567      7.03734      1.62732         0.004003     -0.017746      0.038064
      4.76799      5.63304      1.62732         0.005865      0.032655      0.119880
      7.20031      4.22874      1.62732         0.013677     -0.006044      0.020962
      1.52490      0.01584      3.92052         0.025125      0.027820     -0.083259
      3.95722     -1.38846      3.92052         0.054891      0.056455      0.016612
      6.38953     -2.79276      3.92052         0.076110      0.059241     -0.117845
      1.52490      2.82445      3.92052        -0.025442     -0.005650     -0.041177
      3.95722      1.42015      3.92052        -0.061338     -0.104255     -0.086010
      6.38953      0.01585      3.92052         0.049734     -0.144700      0.061863
      1.52490      5.63305      3.92052        -0.030987     -0.078817     -0.177560
      3.95722      4.22874      3.92052         0.018666      0.003555     -0.216316
      6.38953      2.82445      3.92052         0.093688      0.044114     -0.405816
      0.71914      4.19272      6.23032        -0.045837      0.036344     -0.223491
      3.14642      5.61725      6.18199         0.012167      0.010968      0.053029
      5.57037     -1.39275      6.25205         0.029759      0.067964     -0.082767
      0.69765      1.44343      6.20112        -0.026771     -0.021104      0.040727
      3.16591     -0.02326      6.22557        -0.006455      0.103806     -0.208746
      0.72883      7.00502      6.16482        -0.057530      0.088732      0.182079
      5.59092      4.21751      6.15999        -0.025110     -0.000410      0.060896
      3.16645      2.81502      6.18223        -0.105530     -0.074838     -0.006148
      5.59668      1.38336      6.16811        -0.074947      0.070887      0.235606
      2.36488      4.21587      8.48480         0.043998      0.002222     -0.121394
      4.75772      5.56663      8.45156        -0.028438      0.294639      0.054646
      2.32606      1.40416      8.42574        -0.069264     -0.046909      0.146968
      7.21188      4.18669      8.44198         0.033767      0.067257      0.219699
      2.33217      7.00198      8.52384         0.106540     -0.034576     -0.195885
      4.67515      0.07487      8.62533        -0.282005     -0.062399     -0.176578
      7.26295      1.45229      8.46640        -0.028169     -0.172893     -0.015822
      7.24854     -1.49046      8.61136        -0.020144     -0.059197      0.131964
      4.80472      2.82769      8.44998        -0.068267      0.205091     -0.090376
 -----------------------------------------------------------------------------------
    total drift:                                0.078153      0.150646      0.025921
  FORCES: max atom, RMS     0.666572    0.203250
  Number: max atom                 1
  FORCE total and by dimension    1.269295    0.616304


--------------------------------------------------------------------------------------------------------



  FREE ENERGIE OF THE ION-ELECTRON SYSTEM (eV)
  ---------------------------------------------------
  free  energy   TOTEN  =      -230.66712092 eV

  energy  without entropy=     -230.64133604  energy(sigma->0) =     -230.65852596
 
 d Force = 0.7892486E-01[ 0.629E-01, 0.949E-01]  d Energy = 0.7939421E-01-0.469E-03
 d Force = 0.7395920E+01[ 0.757E+01, 0.722E+01]  d Ewald  = 0.7394579E+01 0.134E-02


--------------------------------------------------------------------------------------------------------


    POTLOK:  cpu time    0.2183: real time    0.3706


--------------------------------------------------------------------------------------------------------


 stress matrix after NEB project (eV)
    -34.97014      0.54056      1.01011
      0.54056    -37.35918     -0.49584
      1.01011     -0.49584     -3.10256
  FORCES: max atom, RMS     0.666572    0.203250
  FORCE total and by dimension    1.269295    0.616304
  Stress total and by dimension   51.296800   37.359177
 Quasi-Newton relaxation of ions (Broydens 2nd method)
  g(Force)  = 0.311E-01   g(Stress)= 0.000E+00

 retain information from N=  2 steps
 eigenvalues of (default step * inverse Hessian matrix)
  average eigenvalue of G=   1.2738
 eigenvalue spectrum of G is  1.2738  1.2738
  RESET_HESSIAN           0


--------------------------------------------------------------------------------------------------------


    WAVPRE:  cpu time    0.0687: real time    0.6876
    FEWALD:  cpu time    0.0025: real time    0.0025

 real space projection operators:
  total allocation   :      13557.64 KBytes
  max/ min on nodes  :       6785.78       6771.86

    ORTHCH:  cpu time    1.6383: real time    1.6548
     LOOP+:  cpu time  130.0056: real time  131.9594

