<?xml version="1.0" encoding="ISO-8859-1"?>
<modeling>
 <generator>
  <i name="program" type="string"> vasp </i>
  <i name="version" type="string">5.4.4  </i>
  <i name="subversion" type="string">16052018 (build Apr 24 2014 20:13:14) complex standard parallel Constrained Minimization Technique (TS), Periodic NBO, VASPsol, libbeef, VASP2WANNIER90, Constrained Cell Relaxation </i>
  <i name="platform" type="string">Center for Computational Chemistry </i>
  <i name="user" type="string">phu </i>
  <i name="host" type="string">node11 </i>
  <i name="date" type="string">2025 09 27 </i>
  <i name="time" type="string">23:30:33 </i>
 </generator>
 <incar>
  <i type="string" name="SYSTEM"> metal</i>
  <i type="int" name="ISTART">     0</i>
  <i type="string" name="PREC">normal</i>
  <i type="string" name="ALGO">Fast</i>
  <i type="int" name="NSIM">     4</i>
  <i type="int" name="ISPIN">     1</i>
  <i type="int" name="NELMIN">     8</i>
  <i type="int" name="IBRION">     1</i>
  <i name="EDIFFG">     -0.05000000</i>
  <i type="int" name="NSW">  5000</i>
  <i type="int" name="ISIF">     2</i>
  <i type="int" name="ISYM">     0</i>
  <i name="ENCUT">    450.00000000</i>
  <i name="POTIM">      0.20000000</i>
  <i type="string" name="LREAL">A</i>
  <i type="int" name="ISMEAR">     1</i>
  <i name="SIGMA">      0.20000000</i>
  <i type="logical" name="LWAVE"> F  </i>
  <i type="logical" name="LCHARG"> F  </i>
  <v type="int" name="KPOINT_BSE">    -1     0     0     0</v>
  <i type="int" name="VOSKOWN">     0</i>
 </incar>
 <structure name="primitive_cell" >
  <crystal>
   <varray name="basis" >
    <v>       7.29695512      -4.21289900       0.00000000 </v>
    <v>       0.00000000       8.42579800       0.00000000 </v>
    <v>       0.00000000       0.00000000      21.87963500 </v>
   </varray>
   <i name="volume">   1345.21837528 </i>
   <varray name="rec_basis" >
    <v>       0.13704346       0.00000000       0.00000000 </v>
    <v>       0.06852173       0.11868312       0.00000000 </v>
    <v>       0.00000000       0.00000000       0.04570460 </v>
   </varray>
  </crystal>
  <varray name="positions" >
   <v>      -0.30092183       0.43847576       0.47696647 </v>
   <v>      -0.32905838       0.46533164      -0.47314500 </v>
   <v>      -0.09457537       0.38589875       0.46243946 </v>
   <v>      -0.35776879       0.32532837       0.38940578 </v>
   <v>      -0.34019449      -0.33589441       0.38692773 </v>
   <v>      -0.00323055      -0.32818393       0.38758495 </v>
   <v>       0.32138285       0.32664532       0.38335257 </v>
   <v>      -0.00929650       0.32276618       0.39410309 </v>
   <v>       0.31734287      -0.00755724       0.39086845 </v>
   <v>      -0.34283974      -0.01484253       0.38561258 </v>
   <v>      -0.23156801      -0.45495329       0.27942293 </v>
   <v>      -0.01463045      -0.01051572       0.38492417 </v>
   <v>       0.43554516       0.21374981       0.28863990 </v>
   <v>      -0.23906997       0.21386225       0.28776505 </v>
   <v>       0.32017655      -0.34130260       0.38829872 </v>
   <v>       0.43409912      -0.44686195       0.28281171 </v>
   <v>       0.10061125      -0.45288178       0.28709901 </v>
   <v>      -0.23396047      -0.11322773       0.28150470 </v>
   <v>       0.10237364      -0.12089728       0.27880485 </v>
   <v>       0.43071211      -0.11796245       0.28077929 </v>
   <v>       0.09589647       0.22099622       0.28353496 </v>
   <v>      -0.45768900       0.43970300       0.17918600 </v>
   <v>      -0.12435600       0.43970300       0.17918600 </v>
   <v>      -0.45768900       0.10636900       0.17918600 </v>
   <v>      -0.12435600      -0.22696400       0.17918600 </v>
   <v>       0.20897700       0.10636900       0.17918600 </v>
   <v>      -0.45768900      -0.22696400       0.17918600 </v>
   <v>      -0.12435600       0.10636900       0.17918600 </v>
   <v>       0.20897700      -0.22696400       0.17918600 </v>
   <v>       0.20897700       0.43970300       0.17918600 </v>
   <v>      -0.34657800       0.32859100       0.07437600 </v>
   <v>      -0.34657800      -0.33807500       0.07437600 </v>
   <v>      -0.01324500      -0.33807500       0.07437600 </v>
   <v>       0.32008800       0.32859100       0.07437600 </v>
   <v>      -0.01324500       0.32859100       0.07437600 </v>
   <v>       0.32008800      -0.00474200       0.07437600 </v>
   <v>      -0.34657800      -0.00474200       0.07437600 </v>
   <v>      -0.01324500      -0.00474200       0.07437600 </v>
   <v>       0.32008800      -0.33807500       0.07437600 </v>
  </varray>
 </structure>
 <varray name="primitive_index" >
  <v type="int" >        1 </v>
  <v type="int" >        3 </v>
  <v type="int" >        2 </v>
  <v type="int" >       36 </v>
  <v type="int" >       39 </v>
  <v type="int" >       37 </v>
  <v type="int" >       33 </v>
  <v type="int" >       38 </v>
  <v type="int" >       35 </v>
  <v type="int" >       32 </v>
  <v type="int" >       30 </v>
  <v type="int" >       34 </v>
  <v type="int" >       26 </v>
  <v type="int" >       24 </v>
  <v type="int" >       31 </v>
  <v type="int" >       29 </v>
  <v type="int" >       22 </v>
  <v type="int" >       28 </v>
  <v type="int" >       27 </v>
  <v type="int" >       23 </v>
  <v type="int" >       25 </v>
  <v type="int" >       17 </v>
  <v type="int" >       18 </v>
  <v type="int" >       14 </v>
  <v type="int" >       21 </v>
  <v type="int" >       13 </v>
  <v type="int" >       20 </v>
  <v type="int" >       15 </v>
  <v type="int" >       19 </v>
  <v type="int" >       16 </v>
  <v type="int" >        6 </v>
  <v type="int" >        9 </v>
  <v type="int" >        7 </v>
  <v type="int" >        5 </v>
  <v type="int" >        4 </v>
  <v type="int" >       10 </v>
  <v type="int" >       11 </v>
  <v type="int" >       12 </v>
  <v type="int" >        8 </v>
 </varray>
 <kpoints>
  <generation param="Gamma">
   <v type="int" name="divisions">       2        2        1 </v>
   <v name="usershift">      0.00000000       0.00000000       0.00000000 </v>
   <v name="genvec1">      0.50000000       0.00000000       0.00000000 </v>
   <v name="genvec2">     -0.00000000       0.50000000       0.00000000 </v>
   <v name="genvec3">      0.00000000       0.00000000       1.00000000 </v>
   <v name="shift">      0.00000000       0.00000000       0.00000000 </v>
  </generation>
  <varray name="kpointlist" >
   <v>       0.00000000       0.00000000       0.00000000 </v>
   <v>       0.50000000       0.00000000       0.00000000 </v>
   <v>      -0.00000000       0.50000000       0.00000000 </v>
   <v>       0.50000000       0.50000000       0.00000000 </v>
  </varray>
  <varray name="weights" >
   <v>       0.25000000 </v>
   <v>       0.25000000 </v>
   <v>       0.25000000 </v>
   <v>       0.25000000 </v>
  </varray>
 </kpoints>
 <parameters>
  <separator name="general" >
   <i type="string" name="SYSTEM">metal</i>
   <i type="logical" name="LCOMPAT"> F  </i>
  </separator>
  <separator name="electronic" >
   <i type="string" name="PREC">normal</i>
   <i name="ENMAX">    450.00000000</i>
   <i name="ENAUG">    644.87300000</i>
   <i name="EDIFF">      0.00010000</i>
   <i type="int" name="IALGO">    68</i>
   <i type="int" name="IWAVPR">    11</i>
   <i type="int" name="NBANDS">   228</i>
   <i name="NELECT">    376.00000000</i>
   <i type="int" name="TURBO">     0</i>
   <i type="int" name="IRESTART">     0</i>
   <i type="int" name="NREBOOT">     0</i>
   <i type="int" name="NMIN">     0</i>
   <i name="EREF">      0.00000000</i>
   <separator name="electronic smearing" >
    <i type="int" name="ISMEAR">     1</i>
    <i name="SIGMA">      0.20000000</i>
    <i name="KSPACING">      0.50000000</i>
    <i type="logical" name="KGAMMA"> T  </i>
   </separator>
   <separator name="electronic projectors" >
    <i type="logical" name="LREAL"> T  </i>
    <v name="ROPT">     -0.00050000     -0.00050000     -0.00050000</v>
    <i type="int" name="LMAXPAW">  -100</i>
    <i type="int" name="LMAXMIX">     2</i>
    <i type="logical" name="NLSPLINE"> F  </i>
   </separator>
   <separator name="electronic startup" >
    <i type="int" name="ISTART">     0</i>
    <i type="int" name="ICHARG">     2</i>
    <i type="int" name="INIWAV">     1</i>
   </separator>
   <separator name="electronic spin" >
    <i type="int" name="ISPIN">     1</i>
    <i type="logical" name="LNONCOLLINEAR"> F  </i>
    <v name="MAGMOM">      1.00000000      1.00000000      1.00000000      1.00000000      1.00000000      1.00000000      1.00000000      1.00000000      1.00000000      1.00000000      1.00000000      1.00000000      1.00000000      1.00000000      1.00000000      1.00000000      1.00000000      1.00000000      1.00000000      1.00000000
      1.00000000      1.00000000      1.00000000      1.00000000      1.00000000      1.00000000      1.00000000      1.00000000      1.00000000      1.00000000      1.00000000      1.00000000      1.00000000      1.00000000      1.00000000      1.00000000      1.00000000      1.00000000      1.00000000</v>
    <i name="NUPDOWN">     -1.00000000</i>
    <i type="logical" name="LSORBIT"> F  </i>
    <v name="SAXIS">      0.00000000      0.00000000      1.00000000</v>
    <i type="logical" name="LSPIRAL"> F  </i>
    <v name="QSPIRAL">      0.00000000      0.00000000      0.00000000</v>
    <i type="logical" name="LZEROZ"> F  </i>
   </separator>
   <separator name="electronic exchange-correlation" >
    <i type="logical" name="LASPH"> F  </i>
    <i type="logical" name="LMETAGGA"> F  </i>
   </separator>
   <separator name="electronic convergence" >
    <i type="int" name="NELM">    60</i>
    <i type="int" name="NELMDL">    -5</i>
    <i type="int" name="NELMIN">     8</i>
    <i name="ENINI">    450.00000000</i>
    <separator name="electronic convergence detail" >
     <i type="logical" name="LDIAG"> T  </i>
     <i type="logical" name="LSUBROT"> F  </i>
     <i name="WEIMIN">      0.00100000</i>
     <i name="EBREAK">      0.00000011</i>
     <i name="DEPER">      0.30000000</i>
     <i type="int" name="NRMM">     4</i>
     <i name="TIME">      0.40000000</i>
    </separator>
   </separator>
   <separator name="electronic mixer" >
    <i name="AMIX">      0.40000000</i>
    <i name="BMIX">      1.00000000</i>
    <i name="AMIN">      0.10000000</i>
    <i name="AMIX_MAG">      1.60000000</i>
    <i name="BMIX_MAG">      1.00000000</i>
    <separator name="electronic mixer details" >
     <i type="int" name="IMIX">     4</i>
     <i type="logical" name="MIXFIRST"> F  </i>
     <i type="int" name="MAXMIX">   -45</i>
     <i name="WC">    100.00000000</i>
     <i type="int" name="INIMIX">     1</i>
     <i type="int" name="MIXPRE">     1</i>
     <i type="int" name="MREMOVE">     5</i>
    </separator>
   </separator>
   <separator name="electronic dipolcorrection" >
    <i type="logical" name="LDIPOL"> F  </i>
    <i type="logical" name="LMONO"> F  </i>
    <i type="int" name="IDIPOL">     0</i>
    <i name="EPSILON">      1.00000000</i>
    <v name="DIPOL">   -100.00000000   -100.00000000   -100.00000000</v>
    <i name="EFIELD">      0.00000000</i>
   </separator>
  </separator>
  <separator name="grids" >
   <i type="int" name="NGX">    48</i>
   <i type="int" name="NGY">    48</i>
   <i type="int" name="NGZ">   120</i>
   <i type="int" name="NGXF">    96</i>
   <i type="int" name="NGYF">    96</i>
   <i type="int" name="NGZF">   240</i>
   <i type="logical" name="ADDGRID"> F  </i>
  </separator>
  <separator name="ionic" >
   <i type="int" name="NSW">  5000</i>
   <i type="int" name="IBRION">     1</i>
   <i type="int" name="MDALGO">     0</i>
   <i type="int" name="ISIF">     2</i>
   <i name="PSTRESS">      0.00000000</i>
   <i name="EDIFFG">     -0.05000000</i>
   <i type="int" name="NFREE">     0</i>
   <i name="POTIM">      0.20000000</i>
   <i name="SMASS">     -3.00000000</i>
   <i name="SCALEE">      1.00000000</i>
  </separator>
  <separator name="ionic md" >
   <i name="TEBEG">      0.00010000</i>
   <i name="TEEND">      0.00010000</i>
   <i type="int" name="NBLOCK">     1</i>
   <i type="int" name="KBLOCK">  5000</i>
   <i type="int" name="NPACO">   256</i>
   <i name="APACO">     16.00000000</i>
  </separator>
  <separator name="symmetry" >
   <i type="int" name="ISYM">     0</i>
   <i name="SYMPREC">      0.00001000</i>
  </separator>
  <separator name="dos" >
   <i type="int" name="LORBIT">     0</i>
   <v name="RWIGS">     -1.00000000     -1.00000000     -1.00000000</v>
   <i type="int" name="NEDOS">   301</i>
   <i name="EMIN">     10.00000000</i>
   <i name="EMAX">    -10.00000000</i>
   <i name="EFERMI">      0.00000000</i>
  </separator>
  <separator name="writing" >
   <i type="int" name="NWRITE">     2</i>
   <i type="logical" name="LWAVE"> F  </i>
   <i type="logical" name="LDOWNSAMPLE"> F  </i>
   <i type="logical" name="LCHARG"> F  </i>
   <i type="logical" name="LPARD"> F  </i>
   <i type="logical" name="LVTOT"> F  </i>
   <i type="logical" name="LVHAR"> F  </i>
   <i type="logical" name="LELF"> F  </i>
   <i type="logical" name="LOPTICS"> F  </i>
   <v name="STM">      0.00000000      0.00000000      0.00000000      0.00000000      0.00000000      0.00000000      0.00000000</v>
  </separator>
  <separator name="performance" >
   <i type="int" name="NPAR">     4</i>
   <i type="int" name="NSIM">     4</i>
   <i type="int" name="NBLK">    -1</i>
   <i type="logical" name="LPLANE"> T  </i>
   <i type="logical" name="LSCALAPACK"> T  </i>
   <i type="logical" name="LSCAAWARE"> F  </i>
   <i type="logical" name="LSCALU"> F  </i>
   <i type="logical" name="LASYNC"> F  </i>
   <i type="logical" name="LORBITALREAL"> F  </i>
  </separator>
  <separator name="miscellaneous" >
   <i type="int" name="IDIOT">     3</i>
   <i type="int" name="ISPECIAL">     0</i>
   <i type="logical" name="LMUSIC"> F  </i>
   <v name="POMASS">     12.01100000     16.00000000    195.08000000</v>
   <v name="DARWINR">      0.00000000      0.00000000      0.00000000</v>
   <v name="DARWINV">      1.00000000      1.00000000      1.00000000</v>
   <i type="logical" name="LCORR"> T  </i>
  </separator>
  <i type="logical" name="GGA_COMPAT"> T  </i>
  <i type="logical" name="LBERRY"> F  </i>
  <i type="int" name="ICORELEVEL">     0</i>
  <i type="logical" name="LDAU"> F  </i>
  <i type="int" name="I_CONSTRAINED_M">     0</i>
  <separator name="electronic exchange-correlation" >
   <i type="string" name="GGA">--</i>
   <i type="int" name="VOSKOWN">     0</i>
   <i type="logical" name="LHFCALC"> F  </i>
   <i type="string" name="PRECFOCK"></i>
   <i type="logical" name="LSYMGRAD"> F  </i>
   <i type="logical" name="LHFONE"> F  </i>
   <i type="logical" name="LRHFCALC"> F  </i>
   <i type="logical" name="LTHOMAS"> F  </i>
   <i type="logical" name="LMODELHF"> F  </i>
   <i name="ENCUT4O">     -1.00000000</i>
   <i type="int" name="EXXOEP">     0</i>
   <i type="int" name="FOURORBIT">     0</i>
   <i name="AEXX">      0.00000000</i>
   <i name="HFALPHA">      0.00000000</i>
   <i name="MCALPHA">      0.00000000</i>
   <i name="ALDAX">      1.00000000</i>
   <i name="AGGAX">      1.00000000</i>
   <i name="ALDAC">      1.00000000</i>
   <i name="AGGAC">      1.00000000</i>
   <i type="int" name="NKREDX">     1</i>
   <i type="int" name="NKREDY">     1</i>
   <i type="int" name="NKREDZ">     1</i>
   <i type="logical" name="SHIFTRED"> F  </i>
   <i type="logical" name="ODDONLY"> F  </i>
   <i type="logical" name="EVENONLY"> F  </i>
   <i type="int" name="LMAXFOCK">     0</i>
   <i type="int" name="NMAXFOCKAE">     0</i>
   <i type="logical" name="LFOCKAEDFT"> F  </i>
   <i name="HFSCREEN">      0.00000000</i>
   <i name="HFSCREENC">      0.00000000</i>
   <i type="int" name="NBANDSGWLOW">     0</i>
  </separator>
  <separator name="vdW DFT" >
   <i type="logical" name="LUSE_VDW"> F  </i>
   <i name="Zab_VDW">     -0.84910000</i>
   <i name="PARAM1">      0.12340000</i>
   <i name="PARAM2">      1.00000000</i>
   <i name="PARAM3">      0.00000000</i>
  </separator>
  <separator name="model GW" >
   <i type="int" name="MODEL_GW">     0</i>
   <i name="MODEL_EPS0">     20.69566731</i>
   <i name="MODEL_ALPHA">      1.00000000</i>
  </separator>
  <separator name="linear response parameters" >
   <i type="logical" name="LEPSILON"> F  </i>
   <i type="logical" name="LRPA"> F  </i>
   <i type="logical" name="LNABLA"> F  </i>
   <i type="logical" name="LVEL"> F  </i>
   <i type="int" name="KINTER">     0</i>
   <i name="CSHIFT">      0.10000000</i>
   <i name="OMEGAMAX">     -1.00000000</i>
   <i name="DEG_THRESHOLD">      0.00200000</i>
   <i name="RTIME">     -0.10000000</i>
   <i name="WPLASMAI">      0.00000000</i>
   <v name="DFIELD">      0.00000000      0.00000000      0.00000000</v>
   <v name="WPLASMA">      0.00000000      0.00000000      0.00000000      0.00000000      0.00000000      0.00000000      0.00000000      0.00000000      0.00000000</v>
  </separator>
  <separator name="orbital magnetization" >
   <i type="logical" name="NUCIND"> F  </i>
   <v name="MAGPOS">      0.00000000      0.00000000      0.00000000</v>
   <i type="logical" name="LNICSALL"> T  </i>
   <i type="logical" name="ORBITALMAG"> F  </i>
   <i type="logical" name="LMAGBLOCH"> F  </i>
   <i type="logical" name="LCHIMAG"> F  </i>
   <i type="logical" name="LGAUGE"> T  </i>
   <i type="int" name="MAGATOM">     0</i>
   <v name="MAGDIPOL">      0.00000000      0.00000000      0.00000000</v>
   <v name="AVECCONST">      0.00000000      0.00000000      0.00000000</v>
  </separator>
  <separator name="response functions" >
   <i type="logical" name="LADDER"> F  </i>
   <i type="logical" name="LRPAFORCE"> F  </i>
   <i type="logical" name="LFXC"> F  </i>
   <i type="logical" name="LHARTREE"> T  </i>
   <i type="int" name="IBSE">     0</i>
   <v type="int" name="KPOINT">    -1     0     0     0</v>
   <i type="logical" name="LTCTE"> F  </i>
   <i type="logical" name="LTETE"> F  </i>
   <i type="logical" name="LTRIPLET"> F  </i>
   <i type="logical" name="LFXCEPS"> F  </i>
   <i type="logical" name="LFXHEG"> F  </i>
   <i type="int" name="NATURALO">     2</i>
   <i type="logical" name="L2ORDER"> F  </i>
   <i type="logical" name="LMP2LT"> F  </i>
   <i type="logical" name="LUSEW"> F  </i>
   <i name="ENCUTGW">     -2.00000000</i>
   <i name="ENCUTGWSOFT">     -2.00000000</i>
   <i name="ENCUTLF">     -1.00000000</i>
   <i type="int" name="LMAXMP2">    -1</i>
   <i name="SCISSOR">      0.00000000</i>
   <i type="int" name="NOMEGA">     0</i>
   <i type="int" name="NOMEGAR">     0</i>
   <i type="int" name="NBANDSGW">    -1</i>
   <i type="int" name="NBANDSO">    -1</i>
   <i type="int" name="NBANDSV">    -1</i>
   <i type="int" name="NELM">     1</i>
   <i type="int" name="NELMHF">     1</i>
   <i type="int" name="DIM">     3</i>
   <i type="int" name="ANTIRES">     0</i>
   <i name="OMEGAMAX">    -30.00000000</i>
   <i name="OMEGAMIN">    -30.00000000</i>
   <i name="OMEGATL">   -200.00000000</i>
   <i type="int" name="OMEGAGRID">   140</i>
   <i name="CSHIFT">     -0.10000000</i>
   <i type="logical" name="SELFENERGY"> F  </i>
   <i type="logical" name="LSPECTRAL"> F  </i>
   <i type="logical" name="LSPECTRALGW"> F  </i>
   <i type="logical" name="LSINGLES"> F  </i>
   <i type="logical" name="LFERMIGW"> F  </i>
   <i type="logical" name="ODDONLYGW"> F  </i>
   <i type="logical" name="EVENONLYGW"> F  </i>
   <i type="int" name="NKREDLFX">     1</i>
   <i type="int" name="NKREDLFY">     1</i>
   <i type="int" name="NKREDLFZ">     1</i>
   <i type="int" name="MAXMEM">  2800</i>
   <i type="int" name="TELESCOPE">     0</i>
   <i type="int" name="TAUPAR">     1</i>
   <i type="int" name="OMEGAPAR">    -1</i>
   <i name="LAMBDA">      1.00000000</i>
  </separator>
  <separator name="External order field" >
   <i name="OFIELD_KAPPA">      0.00000000</i>
   <v name="OFIELD_K">      0.00000000      0.00000000      0.00000000</v>
   <i name="OFIELD_Q6_NEAR">      0.00000000</i>
   <i name="OFIELD_Q6_FAR">      0.00000000</i>
   <i name="OFIELD_A">      0.00000000</i>
  </separator>
  <separator name="solvation model" >
   <i type="logical" name="LSOL"> F  </i>
  </separator>
 </parameters>
 <atominfo>
  <atoms>      39 </atoms>
  <types>       3 </types>
  <array name="atoms" >
   <dimension dim="1">ion</dimension>
   <field type="string">element</field>
   <field type="int">atomtype</field>
   <set>
    <rc><c>C </c><c>   1</c></rc>
    <rc><c>O </c><c>   2</c></rc>
    <rc><c>O </c><c>   2</c></rc>
    <rc><c>Pt</c><c>   3</c></rc>
    <rc><c>Pt</c><c>   3</c></rc>
    <rc><c>Pt</c><c>   3</c></rc>
    <rc><c>Pt</c><c>   3</c></rc>
    <rc><c>Pt</c><c>   3</c></rc>
    <rc><c>Pt</c><c>   3</c></rc>
    <rc><c>Pt</c><c>   3</c></rc>
    <rc><c>Pt</c><c>   3</c></rc>
    <rc><c>Pt</c><c>   3</c></rc>
    <rc><c>Pt</c><c>   3</c></rc>
    <rc><c>Pt</c><c>   3</c></rc>
    <rc><c>Pt</c><c>   3</c></rc>
    <rc><c>Pt</c><c>   3</c></rc>
    <rc><c>Pt</c><c>   3</c></rc>
    <rc><c>Pt</c><c>   3</c></rc>
    <rc><c>Pt</c><c>   3</c></rc>
    <rc><c>Pt</c><c>   3</c></rc>
    <rc><c>Pt</c><c>   3</c></rc>
    <rc><c>Pt</c><c>   3</c></rc>
    <rc><c>Pt</c><c>   3</c></rc>
    <rc><c>Pt</c><c>   3</c></rc>
    <rc><c>Pt</c><c>   3</c></rc>
    <rc><c>Pt</c><c>   3</c></rc>
    <rc><c>Pt</c><c>   3</c></rc>
    <rc><c>Pt</c><c>   3</c></rc>
    <rc><c>Pt</c><c>   3</c></rc>
    <rc><c>Pt</c><c>   3</c></rc>
    <rc><c>Pt</c><c>   3</c></rc>
    <rc><c>Pt</c><c>   3</c></rc>
    <rc><c>Pt</c><c>   3</c></rc>
    <rc><c>Pt</c><c>   3</c></rc>
    <rc><c>Pt</c><c>   3</c></rc>
    <rc><c>Pt</c><c>   3</c></rc>
    <rc><c>Pt</c><c>   3</c></rc>
    <rc><c>Pt</c><c>   3</c></rc>
    <rc><c>Pt</c><c>   3</c></rc>
   </set>
  </array>
  <array name="atomtypes" >
   <dimension dim="1">type</dimension>
   <field type="int">atomspertype</field>
   <field type="string">element</field>
   <field>mass</field>
   <field>valence</field>
   <field type="string">pseudopotential</field>
   <set>
    <rc><c>   1</c><c>C </c><c>     12.01100000</c><c>      4.00000000</c><c> PAW_PBE C 08Apr2002                    </c></rc>
    <rc><c>   2</c><c>O </c><c>     16.00000000</c><c>      6.00000000</c><c> PAW_PBE O 08Apr2002                    </c></rc>
    <rc><c>  36</c><c>Pt</c><c>    195.08000000</c><c>     10.00000000</c><c>  PAW_PBE Pt 04Feb2005                  </c></rc>
   </set>
  </array>
 </atominfo>
 <structure name="initialpos" >
  <crystal>
   <varray name="basis" >
    <v>       7.29695512      -4.21289900       0.00000000 </v>
    <v>       0.00000000       8.42579800       0.00000000 </v>
    <v>       0.00000000       0.00000000      21.87963500 </v>
   </varray>
   <i name="volume">   1345.21837528 </i>
   <varray name="rec_basis" >
    <v>       0.13704346       0.00000000       0.00000000 </v>
    <v>       0.06852173       0.11868312       0.00000000 </v>
    <v>       0.00000000       0.00000000       0.04570460 </v>
   </varray>
  </crystal>
  <varray name="positions" >
   <v>       0.69907817       0.43847576       0.47696647 </v>
   <v>       0.90542463       0.38589875       0.46243946 </v>
   <v>       0.67094162       0.46533164       0.52685500 </v>
   <v>       0.98675500       0.32859100       0.07437600 </v>
   <v>       0.32008800       0.32859100       0.07437600 </v>
   <v>       0.65342200       0.32859100       0.07437600 </v>
   <v>       0.98675500       0.66192500       0.07437600 </v>
   <v>       0.32008800       0.66192500       0.07437600 </v>
   <v>       0.65342200       0.66192500       0.07437600 </v>
   <v>       0.32008800       0.99525800       0.07437600 </v>
   <v>       0.65342200       0.99525800       0.07437600 </v>
   <v>       0.98675500       0.99525800       0.07437600 </v>
   <v>       0.20897700       0.10636900       0.17918600 </v>
   <v>       0.54231100       0.10636900       0.17918600 </v>
   <v>       0.87564400       0.10636900       0.17918600 </v>
   <v>       0.20897700       0.43970300       0.17918600 </v>
   <v>       0.54231100       0.43970300       0.17918600 </v>
   <v>       0.87564400       0.43970300       0.17918600 </v>
   <v>       0.20897700       0.77303600       0.17918600 </v>
   <v>       0.54231100       0.77303600       0.17918600 </v>
   <v>       0.87564400       0.77303600       0.17918600 </v>
   <v>       0.10061125       0.54711822       0.28709901 </v>
   <v>       0.43071211       0.88203755       0.28077929 </v>
   <v>       0.76093003       0.21386225       0.28776505 </v>
   <v>       0.09589647       0.22099622       0.28353496 </v>
   <v>       0.43554516       0.21374981       0.28863990 </v>
   <v>       0.10237364       0.87910272       0.27880485 </v>
   <v>       0.76603953       0.88677227       0.28150470 </v>
   <v>       0.43409912       0.55313805       0.28281171 </v>
   <v>       0.76843199       0.54504671       0.27942293 </v>
   <v>       0.32017655       0.65869740       0.38829872 </v>
   <v>       0.65716026       0.98515747       0.38561258 </v>
   <v>       0.32138285       0.32664532       0.38335257 </v>
   <v>       0.98536955       0.98948428       0.38492417 </v>
   <v>       0.31734287       0.99244276       0.39086845 </v>
   <v>       0.64223121       0.32532837       0.38940578 </v>
   <v>       0.99676945       0.67181607       0.38758495 </v>
   <v>       0.99070350       0.32276618       0.39410309 </v>
   <v>       0.65980551       0.66410559       0.38692773 </v>
  </varray>
  <varray name="selective"  type="logical" >
   <v type="logical" >  T  T  T </v>
   <v type="logical" >  T  T  T </v>
   <v type="logical" >  T  T  T </v>
   <v type="logical" >  F  F  F </v>
   <v type="logical" >  F  F  F </v>
   <v type="logical" >  F  F  F </v>
   <v type="logical" >  F  F  F </v>
   <v type="logical" >  F  F  F </v>
   <v type="logical" >  F  F  F </v>
   <v type="logical" >  F  F  F </v>
   <v type="logical" >  F  F  F </v>
   <v type="logical" >  F  F  F </v>
   <v type="logical" >  F  F  F </v>
   <v type="logical" >  F  F  F </v>
   <v type="logical" >  F  F  F </v>
   <v type="logical" >  F  F  F </v>
   <v type="logical" >  F  F  F </v>
   <v type="logical" >  F  F  F </v>
   <v type="logical" >  F  F  F </v>
   <v type="logical" >  F  F  F </v>
   <v type="logical" >  F  F  F </v>
   <v type="logical" >  T  T  T </v>
   <v type="logical" >  T  T  T </v>
   <v type="logical" >  T  T  T </v>
   <v type="logical" >  T  T  T </v>
   <v type="logical" >  T  T  T </v>
   <v type="logical" >  T  T  T </v>
   <v type="logical" >  T  T  T </v>
   <v type="logical" >  T  T  T </v>
   <v type="logical" >  T  T  T </v>
   <v type="logical" >  T  T  T </v>
   <v type="logical" >  T  T  T </v>
   <v type="logical" >  T  T  T </v>
   <v type="logical" >  T  T  T </v>
   <v type="logical" >  T  T  T </v>
   <v type="logical" >  T  T  T </v>
   <v type="logical" >  T  T  T </v>
   <v type="logical" >  T  T  T </v>
   <v type="logical" >  T  T  T </v>
  </varray>
  <nose>
   <v>      -3.00000000       0.00000000       0.00010000       0.00010000 </v>
  </nose>
 </structure>
 <calculation>
  <scstep>
   <time name="dav">   15.38   15.56</time>
   <time name="total">   15.61   15.88</time>
   <energy>
    <i name="alphaZ">    975.10247152 </i>
    <i name="ewald">  91617.85227783 </i>
    <i name="hartreedc">-120705.52097362 </i>
    <i name="XCdc">    189.88756881 </i>
    <i name="pawpsdc">  24789.08602224 </i>
    <i name="pawaedc"> -23775.73976456 </i>
    <i name="eentropy">      0.02331092 </i>
    <i name="bandstr">   2071.45469088 </i>
    <i name="atom">  27259.89416086 </i>
    <i name="e_fr_energy">   2422.03976487 </i>
    <i name="e_wo_entrp">   2422.01645395 </i>
    <i name="e_0_energy">   2422.03199456 </i>
   </energy>
  </scstep>
  <scstep>
   <time name="dav">   15.86   15.99</time>
   <time name="total">   15.86   15.99</time>
   <energy>
    <i name="e_fr_energy">    -61.96624046 </i>
    <i name="e_wo_entrp">    -61.97260346 </i>
    <i name="e_0_energy">    -61.96836146 </i>
   </energy>
  </scstep>
  <scstep>
   <time name="dav">   15.53   15.65</time>
   <time name="total">   15.54   15.65</time>
   <energy>
    <i name="e_fr_energy">   -239.92941120 </i>
    <i name="e_wo_entrp">   -239.93714222 </i>
    <i name="e_0_energy">   -239.93198820 </i>
   </energy>
  </scstep>
  <scstep>
   <time name="dav">   18.76   19.02</time>
   <time name="total">   18.76   19.03</time>
   <energy>
    <i name="e_fr_energy">   -247.74927585 </i>
    <i name="e_wo_entrp">   -247.76235227 </i>
    <i name="e_0_energy">   -247.75363466 </i>
   </energy>
  </scstep>
  <scstep>
   <time name="dav">   16.76   17.03</time>
   <time name="total">   17.57   17.85</time>
   <energy>
    <i name="e_fr_energy">   -247.97045913 </i>
    <i name="e_wo_entrp">   -247.98377339 </i>
    <i name="e_0_energy">   -247.97489721 </i>
   </energy>
  </scstep>
  <scstep>
   <time name="diag">    2.23    2.44</time>
   <time name="diis">    8.72    8.93</time>
   <time name="orth">    0.31    0.31</time>
   <time name="total">   12.37   12.79</time>
   <energy>
    <i name="e_fr_energy">   -245.31488532 </i>
    <i name="e_wo_entrp">   -245.15417404 </i>
    <i name="e_0_energy">   -245.26131489 </i>
   </energy>
  </scstep>
  <scstep>
   <time name="diag">    2.63    2.65</time>
   <time name="diis">    9.54    9.61</time>
   <time name="orth">    0.32    0.32</time>
   <time name="total">   13.70   13.80</time>
   <energy>
    <i name="e_fr_energy">   -245.20349320 </i>
    <i name="e_wo_entrp">   -245.09237495 </i>
    <i name="e_0_energy">   -245.16645378 </i>
   </energy>
  </scstep>
  <scstep>
   <time name="diag">    2.54    2.56</time>
   <time name="diis">    8.08    8.47</time>
   <time name="orth">    0.26    0.26</time>
   <time name="total">   11.60   12.02</time>
   <energy>
    <i name="e_fr_energy">   -243.47911446 </i>
    <i name="e_wo_entrp">   -243.42549391 </i>
    <i name="e_0_energy">   -243.46124094 </i>
   </energy>
  </scstep>
  <scstep>
   <time name="diag">    2.05    2.07</time>
   <time name="diis">    8.27    8.33</time>
   <time name="orth">    0.32    0.32</time>
   <time name="total">   11.63   11.72</time>
   <energy>
    <i name="e_fr_energy">   -231.67146998 </i>
    <i name="e_wo_entrp">   -231.57893772 </i>
    <i name="e_0_energy">   -231.64062589 </i>
   </energy>
  </scstep>
  <scstep>
   <time name="diag">    2.52    2.54</time>
   <time name="diis">    9.22    9.29</time>
   <time name="orth">    0.33    0.33</time>
   <time name="total">   13.26   13.36</time>
   <energy>
    <i name="e_fr_energy">   -230.43845225 </i>
    <i name="e_wo_entrp">   -230.44824952 </i>
    <i name="e_0_energy">   -230.44171800 </i>
   </energy>
  </scstep>
  <scstep>
   <time name="diag">    2.55    2.57</time>
   <time name="diis">    9.12    9.19</time>
   <time name="orth">    0.31    0.31</time>
   <time name="total">   13.13   13.23</time>
   <energy>
    <i name="e_fr_energy">   -230.14049027 </i>
    <i name="e_wo_entrp">   -230.10063523 </i>
    <i name="e_0_energy">   -230.12720525 </i>
   </energy>
  </scstep>
  <scstep>
   <time name="diag">    2.44    2.45</time>
   <time name="diis">    8.63    8.69</time>
   <time name="orth">    0.33    0.34</time>
   <time name="total">   12.49   12.58</time>
   <energy>
    <i name="e_fr_energy">   -229.97112651 </i>
    <i name="e_wo_entrp">   -229.94556168 </i>
    <i name="e_0_energy">   -229.96260490 </i>
   </energy>
  </scstep>
  <scstep>
   <time name="diag">    2.51    2.53</time>
   <time name="diis">    9.12    9.18</time>
   <time name="orth">    0.32    0.33</time>
   <time name="total">   13.18   13.28</time>
   <energy>
    <i name="e_fr_energy">   -229.97571185 </i>
    <i name="e_wo_entrp">   -229.95331970 </i>
    <i name="e_0_energy">   -229.96824780 </i>
   </energy>
  </scstep>
  <scstep>
   <time name="diag">    2.60    2.62</time>
   <time name="diis">    8.60    8.66</time>
   <time name="orth">    0.31    0.32</time>
   <time name="total">   12.48   12.57</time>
   <energy>
    <i name="e_fr_energy">   -229.94061605 </i>
    <i name="e_wo_entrp">   -229.91680373 </i>
    <i name="e_0_energy">   -229.93267861 </i>
   </energy>
  </scstep>
  <scstep>
   <time name="diag">    2.32    2.33</time>
   <time name="diis">    8.62    8.68</time>
   <time name="orth">    0.29    0.29</time>
   <time name="total">   12.41   12.50</time>
   <energy>
    <i name="e_fr_energy">   -229.93410440 </i>
    <i name="e_wo_entrp">   -229.91587846 </i>
    <i name="e_0_energy">   -229.92802909 </i>
   </energy>
  </scstep>
  <scstep>
   <time name="diag">    2.75    2.77</time>
   <time name="diis">    9.48    9.55</time>
   <time name="orth">    0.33    0.33</time>
   <time name="total">   13.67   13.77</time>
   <energy>
    <i name="e_fr_energy">   -229.92736219 </i>
    <i name="e_wo_entrp">   -229.90662676 </i>
    <i name="e_0_energy">   -229.92045038 </i>
   </energy>
  </scstep>
  <scstep>
   <time name="diag">    2.35    2.36</time>
   <time name="diis">    8.37    8.43</time>
   <time name="orth">    0.30    0.30</time>
   <time name="total">   12.03   12.12</time>
   <energy>
    <i name="e_fr_energy">   -229.92716183 </i>
    <i name="e_wo_entrp">   -229.90598772 </i>
    <i name="e_0_energy">   -229.92010379 </i>
   </energy>
  </scstep>
  <scstep>
   <time name="diag">    2.33    2.35</time>
   <time name="diis">    7.77    7.83</time>
   <time name="orth">    0.30    0.30</time>
   <time name="total">   10.61   10.69</time>
   <energy>
    <i name="alphaZ">    975.10247152 </i>
    <i name="ewald">  91617.85227783 </i>
    <i name="hartreedc">-120330.45206728 </i>
    <i name="XCdc">    178.47271520 </i>
    <i name="pawpsdc">  30179.70133195 </i>
    <i name="pawaedc"> -29266.22625432 </i>
    <i name="eentropy">     -0.02076772 </i>
    <i name="bandstr">   -844.25112783 </i>
    <i name="atom">  27259.89416086 </i>
    <i name="e_fr_energy">   -229.92725979 </i>
    <i name="e_wo_entrp">   -229.90649207 </i>
    <i name="e_0_energy">   -229.92033722 </i>
   </energy>
  </scstep>
  <structure>
   <crystal>
    <varray name="basis" >
     <v>       7.29695512      -4.21289900       0.00000000 </v>
     <v>       0.00000000       8.42579800       0.00000000 </v>
     <v>       0.00000000       0.00000000      21.87963500 </v>
    </varray>
    <i name="volume">   1345.21837528 </i>
    <varray name="rec_basis" >
     <v>       0.13704346       0.00000000       0.00000000 </v>
     <v>       0.06852173       0.11868312       0.00000000 </v>
     <v>       0.00000000       0.00000000       0.04570460 </v>
    </varray>
   </crystal>
   <varray name="positions" >
    <v>       0.69907817       0.43847576       0.47696647 </v>
    <v>       0.90542463       0.38589875       0.46243946 </v>
    <v>       0.67094162       0.46533164       0.52685500 </v>
    <v>       0.98675500       0.32859100       0.07437600 </v>
    <v>       0.32008800       0.32859100       0.07437600 </v>
    <v>       0.65342200       0.32859100       0.07437600 </v>
    <v>       0.98675500       0.66192500       0.07437600 </v>
    <v>       0.32008800       0.66192500       0.07437600 </v>
    <v>       0.65342200       0.66192500       0.07437600 </v>
    <v>       0.32008800       0.99525800       0.07437600 </v>
    <v>       0.65342200       0.99525800       0.07437600 </v>
    <v>       0.98675500       0.99525800       0.07437600 </v>
    <v>       0.20897700       0.10636900       0.17918600 </v>
    <v>       0.54231100       0.10636900       0.17918600 </v>
    <v>       0.87564400       0.10636900       0.17918600 </v>
    <v>       0.20897700       0.43970300       0.17918600 </v>
    <v>       0.54231100       0.43970300       0.17918600 </v>
    <v>       0.87564400       0.43970300       0.17918600 </v>
    <v>       0.20897700       0.77303600       0.17918600 </v>
    <v>       0.54231100       0.77303600       0.17918600 </v>
    <v>       0.87564400       0.77303600       0.17918600 </v>
    <v>       0.10061125       0.54711822       0.28709901 </v>
    <v>       0.43071211       0.88203755       0.28077929 </v>
    <v>       0.76093003       0.21386225       0.28776505 </v>
    <v>       0.09589647       0.22099622       0.28353496 </v>
    <v>       0.43554516       0.21374981       0.28863990 </v>
    <v>       0.10237364       0.87910272       0.27880485 </v>
    <v>       0.76603953       0.88677227       0.28150470 </v>
    <v>       0.43409912       0.55313805       0.28281171 </v>
    <v>       0.76843199       0.54504671       0.27942293 </v>
    <v>       0.32017655       0.65869740       0.38829872 </v>
    <v>       0.65716026       0.98515747       0.38561258 </v>
    <v>       0.32138285       0.32664532       0.38335257 </v>
    <v>       0.98536955       0.98948428       0.38492417 </v>
    <v>       0.31734287       0.99244276       0.39086845 </v>
    <v>       0.64223121       0.32532837       0.38940578 </v>
    <v>       0.99676945       0.67181607       0.38758495 </v>
    <v>       0.99070350       0.32276618       0.39410309 </v>
    <v>       0.65980551       0.66410559       0.38692773 </v>
   </varray>
  </structure>
  <varray name="forces" >
   <v>      -0.96895648      -0.73225232      -1.50264865 </v>
   <v>       0.23427438       0.69263656       1.64100098 </v>
   <v>       0.47863129      -0.17720577      -0.35844746 </v>
   <v>      -0.02657405      -0.02117660       0.21716910 </v>
   <v>       0.00279220      -0.09696048       0.20043040 </v>
   <v>      -0.07128755       0.00647672       0.12372915 </v>
   <v>       0.01953856       0.09107529       0.08091428 </v>
   <v>      -0.02626167       0.04053775       0.20390267 </v>
   <v>       0.04992962       0.02712462       0.11931496 </v>
   <v>       0.00649838       0.01255427      -0.01526937 </v>
   <v>       0.02836235       0.01582574       0.10996348 </v>
   <v>       0.00981184      -0.02491397      -0.00268550 </v>
   <v>       0.21022424       0.13305494       0.00534103 </v>
   <v>       0.08932498       0.20709217       0.10647087 </v>
   <v>       0.09419182       0.17527236      -0.02523358 </v>
   <v>      -0.04849826       0.02078424       0.04761806 </v>
   <v>      -0.21043069      -0.18345047      -0.02994149 </v>
   <v>       0.17187810      -0.34942260       0.01675431 </v>
   <v>      -0.03288992      -0.29378983      -0.48566465 </v>
   <v>       0.04304994      -0.06467143      -0.31331145 </v>
   <v>      -0.00833818       0.12154956      -0.51140021 </v>
   <v>      -0.25401091       0.05399328      -0.71773110 </v>
   <v>       0.04549688      -0.01305284       0.61078244 </v>
   <v>       0.37821699       0.09480859      -0.79112472 </v>
   <v>      -0.04240192      -0.22838321      -0.04055666 </v>
   <v>      -0.29339597       0.06879042      -1.57946717 </v>
   <v>      -0.29169267       0.45904338       1.03081114 </v>
   <v>       0.04867684      -0.49641493      -0.06312349 </v>
   <v>       0.09351707      -0.21429269      -0.10601320 </v>
   <v>      -0.10414906       0.47009143       0.73432278 </v>
   <v>       0.49002697       0.26271971      -0.08098793 </v>
   <v>      -0.66167674       0.33978664       0.25644753 </v>
   <v>      -0.40408830       0.23559849       0.58776222 </v>
   <v>       0.38006885      -0.04072756       0.16101124 </v>
   <v>       0.11550912      -0.42080703      -0.31453278 </v>
   <v>       0.06946337       0.78265327       2.01672168 </v>
   <v>      -0.15904447       0.05110942      -0.23859977 </v>
   <v>       0.65535755      -0.99409898      -0.88635743 </v>
   <v>      -0.11114450      -0.01095815      -0.20737171 </v>
  </varray>
  <varray name="stress" >
   <v>     -39.43143043      -0.01183048      -0.07401811 </v>
   <v>      -0.01183049     -41.63951681      -0.67246411 </v>
   <v>      -0.07401812      -0.67246421      -2.03090743 </v>
  </varray>
  <energy>
   <i name="e_fr_energy">   -229.92725979 </i>
   <i name="e_wo_entrp">   -229.92033722 </i>
   <i name="e_0_energy">     -0.02076772 </i>
  </energy>
  <time name="totalsc">  266.76  270.31</time>
 </calculation>
 <calculation>
  <scstep>
   <time name="dav">   13.66   13.81</time>
   <time name="total">   14.63   14.83</time>
   <energy>
    <i name="alphaZ">    975.10247152 </i>
    <i name="ewald">  91563.89380829 </i>
    <i name="hartreedc">-120280.98832617 </i>
    <i name="XCdc">    178.33662294 </i>
    <i name="pawpsdc">  30176.66354500 </i>
    <i name="pawaedc"> -29263.11499370 </i>
    <i name="eentropy">     -0.01513854 </i>
    <i name="bandstr">   -839.98198255 </i>
    <i name="atom">  27259.89416086 </i>
    <i name="e_fr_energy">   -230.20983234 </i>
    <i name="e_wo_entrp">   -230.19469380 </i>
    <i name="e_0_energy">   -230.20478616 </i>
   </energy>
  </scstep>
  <scstep>
   <time name="diag">    2.37    2.40</time>
   <time name="diis">    8.43    8.52</time>
   <time name="orth">    0.32    0.32</time>
   <time name="total">   12.10   12.23</time>
   <energy>
    <i name="e_fr_energy">   -230.40575330 </i>
    <i name="e_wo_entrp">   -230.35907533 </i>
    <i name="e_0_energy">   -230.39019398 </i>
   </energy>
  </scstep>
  <scstep>
   <time name="diag">    2.54    2.56</time>
   <time name="diis">    8.95    9.02</time>
   <time name="orth">    0.31    0.31</time>
   <time name="total">   12.69   12.78</time>
   <energy>
    <i name="e_fr_energy">   -230.30572753 </i>
    <i name="e_wo_entrp">   -230.28968692 </i>
    <i name="e_0_energy">   -230.30038066 </i>
   </energy>
  </scstep>
  <scstep>
   <time name="diag">    2.33    2.34</time>
   <time name="diis">    8.34    8.40</time>
   <time name="orth">    0.31    0.32</time>
   <time name="total">   11.99   12.08</time>
   <energy>
    <i name="e_fr_energy">   -230.28891407 </i>
    <i name="e_wo_entrp">   -230.26976271 </i>
    <i name="e_0_energy">   -230.28253028 </i>
   </energy>
  </scstep>
  <scstep>
   <time name="diag">    2.43    2.45</time>
   <time name="diis">    8.73    8.80</time>
   <time name="orth">    0.32    0.33</time>
   <time name="total">   12.62   12.73</time>
   <energy>
    <i name="e_fr_energy">   -230.27754131 </i>
    <i name="e_wo_entrp">   -230.25491401 </i>
    <i name="e_0_energy">   -230.26999888 </i>
   </energy>
  </scstep>
  <scstep>
   <time name="diag">    2.49    2.52</time>
   <time name="diis">    8.91    9.01</time>
   <time name="orth">    0.31    0.31</time>
   <time name="total">   12.83   12.97</time>
   <energy>
    <i name="e_fr_energy">   -230.27570194 </i>
    <i name="e_wo_entrp">   -230.25567787 </i>
    <i name="e_0_energy">   -230.26902725 </i>
   </energy>
  </scstep>
  <scstep>
   <time name="diag">    2.56    2.58</time>
   <time name="diis">    9.01    9.08</time>
   <time name="orth">    0.32    0.32</time>
   <time name="total">   13.07   13.17</time>
   <energy>
    <i name="e_fr_energy">   -230.27649020 </i>
    <i name="e_wo_entrp">   -230.25388681 </i>
    <i name="e_0_energy">   -230.26895574 </i>
   </energy>
  </scstep>
  <scstep>
   <time name="diag">    2.48    2.50</time>
   <time name="diis">    8.49    8.55</time>
   <time name="orth">    0.27    0.28</time>
   <time name="total">   12.30   12.39</time>
   <energy>
    <i name="e_fr_energy">   -230.27455499 </i>
    <i name="e_wo_entrp">   -230.25429974 </i>
    <i name="e_0_energy">   -230.26780324 </i>
   </energy>
  </scstep>
  <scstep>
   <time name="diag">    2.42    2.44</time>
   <time name="diis">    7.25    7.31</time>
   <time name="orth">    0.32    0.32</time>
   <time name="total">   10.18   10.26</time>
   <energy>
    <i name="alphaZ">    975.10247152 </i>
    <i name="ewald">  91563.89380829 </i>
    <i name="hartreedc">-120274.50856799 </i>
    <i name="XCdc">    178.26656703 </i>
    <i name="pawpsdc">  30132.76923871 </i>
    <i name="pawaedc"> -29218.97888276 </i>
    <i name="eentropy">     -0.02120155 </i>
    <i name="bandstr">   -846.69209861 </i>
    <i name="atom">  27259.89416086 </i>
    <i name="e_fr_energy">   -230.27450448 </i>
    <i name="e_wo_entrp">   -230.25330294 </i>
    <i name="e_0_energy">   -230.26743730 </i>
   </energy>
  </scstep>
  <structure>
   <crystal>
    <varray name="basis" >
     <v>       7.29695512      -4.21289900       0.00000000 </v>
     <v>       0.00000000       8.42579800       0.00000000 </v>
     <v>       0.00000000       0.00000000      21.87963500 </v>
    </varray>
    <i name="volume">   1345.21837528 </i>
    <varray name="rec_basis" >
     <v>       0.13704346       0.00000000       0.00000000 </v>
     <v>       0.06852173       0.11868312       0.00000000 </v>
     <v>       0.00000000       0.00000000       0.04570460 </v>
    </varray>
   </crystal>
   <varray name="positions" >
    <v>       0.69651573       0.43551751       0.47564119 </v>
    <v>       0.90604418       0.38779483       0.46388676 </v>
    <v>       0.67220738       0.46555867       0.52653886 </v>
    <v>       0.98675500       0.32859100       0.07437600 </v>
    <v>       0.32008800       0.32859100       0.07437600 </v>
    <v>       0.65342200       0.32859100       0.07437600 </v>
    <v>       0.98675500       0.66192500       0.07437600 </v>
    <v>       0.32008800       0.66192500       0.07437600 </v>
    <v>       0.65342200       0.66192500       0.07437600 </v>
    <v>       0.32008800       0.99525800       0.07437600 </v>
    <v>       0.65342200       0.99525800       0.07437600 </v>
    <v>       0.98675500       0.99525800       0.07437600 </v>
    <v>       0.20897700       0.10636900       0.17918600 </v>
    <v>       0.54231100       0.10636900       0.17918600 </v>
    <v>       0.87564400       0.10636900       0.17918600 </v>
    <v>       0.20897700       0.43970300       0.17918600 </v>
    <v>       0.54231100       0.43970300       0.17918600 </v>
    <v>       0.87564400       0.43970300       0.17918600 </v>
    <v>       0.20897700       0.77303600       0.17918600 </v>
    <v>       0.54231100       0.77303600       0.17918600 </v>
    <v>       0.87564400       0.77303600       0.17918600 </v>
    <v>       0.09993950       0.54690601       0.28646599 </v>
    <v>       0.43083242       0.88206782       0.28131797 </v>
    <v>       0.76193024       0.21457949       0.28706731 </v>
    <v>       0.09578434       0.22041710       0.28349919 </v>
    <v>       0.43476927       0.21351941       0.28724686 </v>
    <v>       0.10160225       0.87976834       0.27971399 </v>
    <v>       0.76616826       0.88569973       0.28144903 </v>
    <v>       0.43434643       0.55277093       0.28271821 </v>
    <v>       0.76815656       0.54598562       0.28007057 </v>
    <v>       0.32147245       0.65994704       0.38822729 </v>
    <v>       0.65541043       0.98506075       0.38583876 </v>
    <v>       0.32031422       0.32665058       0.38387096 </v>
    <v>       0.98637466       0.98989356       0.38506617 </v>
    <v>       0.31764834       0.99163175       0.39059105 </v>
    <v>       0.64241491       0.32721268       0.39118445 </v>
    <v>       0.99634885       0.67172282       0.38737451 </v>
    <v>       0.99243662       0.32135602       0.39332136 </v>
    <v>       0.65951158       0.66393353       0.38674484 </v>
   </varray>
  </structure>
  <varray name="forces" >
   <v>      -0.92089721      -0.39039408       0.49320418 </v>
   <v>       0.43740599       0.35037339       0.60146066 </v>
   <v>       0.61993822      -0.57857886      -1.94402308 </v>
   <v>      -0.01550760      -0.02178331       0.20206844 </v>
   <v>      -0.00640206      -0.08511150       0.19032923 </v>
   <v>      -0.06561032       0.00463145       0.13300749 </v>
   <v>       0.01773550       0.08306044       0.09136592 </v>
   <v>      -0.02595861       0.03618577       0.19330047 </v>
   <v>       0.04057169       0.01728317       0.12389931 </v>
   <v>       0.00455067       0.00344595       0.00808764 </v>
   <v>       0.01681944       0.02165041       0.10807996 </v>
   <v>       0.01140511      -0.01950521      -0.00532347 </v>
   <v>       0.15310940       0.09846465      -0.01812128 </v>
   <v>       0.07828859       0.15990996       0.08902318 </v>
   <v>       0.08771022       0.13887956      -0.06749064 </v>
   <v>      -0.03840882       0.01631302       0.02339826 </v>
   <v>      -0.17062984      -0.16232627      -0.04545921 </v>
   <v>       0.13902500      -0.28860544       0.03364060 </v>
   <v>      -0.03628956      -0.22873015      -0.36981041 </v>
   <v>       0.03446776      -0.04223347      -0.28722429 </v>
   <v>       0.03091805       0.09922849      -0.49603304 </v>
   <v>      -0.16938717       0.08283274      -0.58232066 </v>
   <v>       0.04347230      -0.00436469       0.46166813 </v>
   <v>       0.19810980       0.12576157      -0.52626281 </v>
   <v>      -0.01408668      -0.18119594      -0.04641966 </v>
   <v>      -0.14851351       0.10658392      -1.04221544 </v>
   <v>      -0.21429201       0.34200572       0.75091232 </v>
   <v>       0.02108812      -0.33285852      -0.00173181 </v>
   <v>       0.00714772      -0.18383818      -0.06684901 </v>
   <v>      -0.11403270       0.33431078       0.61788113 </v>
   <v>       0.34358216       0.18009163      -0.11331364 </v>
   <v>      -0.44706334       0.35669703       0.16289755 </v>
   <v>      -0.20785160       0.07378180       0.43431673 </v>
   <v>       0.25483778      -0.01188843       0.19275545 </v>
   <v>       0.18019883      -0.27460120      -0.30697820 </v>
   <v>      -0.07089015       0.51598033       1.37471465 </v>
   <v>      -0.12744760      -0.08191928      -0.15521867 </v>
   <v>       0.17820134      -0.34971406      -0.05227494 </v>
   <v>      -0.10531490       0.09017683      -0.15894103 </v>
  </varray>
  <varray name="stress" >
   <v>     -40.89122541       0.75266470       1.03088169 </v>
   <v>       0.75266467     -43.52801764      -1.96392009 </v>
   <v>       1.03088164      -1.96392015      -6.74656892 </v>
  </varray>
  <energy>
   <i name="e_fr_energy">   -230.27450448 </i>
   <i name="e_wo_entrp">   -230.26743730 </i>
   <i name="e_0_energy">     -0.02120155 </i>
  </energy>
  <time name="totalsc">  131.92  133.33</time>
 </calculation>
 <calculation>
  <scstep>
   <time name="dav">   14.36   14.53</time>
   <time name="total">   15.39   15.65</time>
   <energy>
    <i name="alphaZ">    975.10247152 </i>
    <i name="ewald">  91551.83854000 </i>
    <i name="hartreedc">-120258.14379289 </i>
    <i name="XCdc">    178.41696005 </i>
    <i name="pawpsdc">  30132.44146535 </i>
    <i name="pawaedc"> -29218.64808531 </i>
    <i name="eentropy">     -0.02185612 </i>
    <i name="bandstr">   -851.21844619 </i>
    <i name="atom">  27259.89416086 </i>
    <i name="e_fr_energy">   -230.33858272 </i>
    <i name="e_wo_entrp">   -230.31672660 </i>
    <i name="e_0_energy">   -230.33129735 </i>
   </energy>
  </scstep>
  <scstep>
   <time name="diag">    2.42    2.44</time>
   <time name="diis">    8.66    8.73</time>
   <time name="orth">    0.30    0.30</time>
   <time name="total">   12.22   12.32</time>
   <energy>
    <i name="e_fr_energy">   -230.41744182 </i>
    <i name="e_wo_entrp">   -230.39003412 </i>
    <i name="e_0_energy">   -230.40830592 </i>
   </energy>
  </scstep>
  <scstep>
   <time name="diag">    2.39    2.40</time>
   <time name="diis">    8.75    8.81</time>
   <time name="orth">    0.31    0.31</time>
   <time name="total">   12.47   12.56</time>
   <energy>
    <i name="e_fr_energy">   -230.41555045 </i>
    <i name="e_wo_entrp">   -230.39888377 </i>
    <i name="e_0_energy">   -230.40999489 </i>
   </energy>
  </scstep>
  <scstep>
   <time name="diag">    2.25    2.26</time>
   <time name="diis">    8.35    8.41</time>
   <time name="orth">    0.32    0.32</time>
   <time name="total">   11.93   12.02</time>
   <energy>
    <i name="e_fr_energy">   -230.40427810 </i>
    <i name="e_wo_entrp">   -230.38156504 </i>
    <i name="e_0_energy">   -230.39670708 </i>
   </energy>
  </scstep>
  <scstep>
   <time name="diag">    2.61    2.63</time>
   <time name="diis">    9.51    9.59</time>
   <time name="orth">    0.34    0.34</time>
   <time name="total">   13.74   13.84</time>
   <energy>
    <i name="e_fr_energy">   -230.40155159 </i>
    <i name="e_wo_entrp">   -230.37723712 </i>
    <i name="e_0_energy">   -230.39344677 </i>
   </energy>
  </scstep>
  <scstep>
   <time name="diag">    2.68    2.70</time>
   <time name="diis">    9.34    9.41</time>
   <time name="orth">    0.32    0.33</time>
   <time name="total">   13.39   13.49</time>
   <energy>
    <i name="e_fr_energy">   -230.40061630 </i>
    <i name="e_wo_entrp">   -230.38037501 </i>
    <i name="e_0_energy">   -230.39386920 </i>
   </energy>
  </scstep>
  <scstep>
   <time name="diag">    2.29    2.31</time>
   <time name="diis">    6.43    6.48</time>
   <time name="orth">    0.25    0.25</time>
   <time name="total">    9.64    9.72</time>
   <energy>
    <i name="e_fr_energy">   -230.39850357 </i>
    <i name="e_wo_entrp">   -230.37514130 </i>
    <i name="e_0_energy">   -230.39071614 </i>
   </energy>
  </scstep>
  <scstep>
   <time name="diag">    2.28    2.29</time>
   <time name="diis">    9.02    9.09</time>
   <time name="orth">    0.34    0.35</time>
   <time name="total">   12.95   13.05</time>
   <energy>
    <i name="e_fr_energy">   -230.39789052 </i>
    <i name="e_wo_entrp">   -230.37618849 </i>
    <i name="e_0_energy">   -230.39065651 </i>
   </energy>
  </scstep>
  <scstep>
   <time name="diag">    2.67    2.69</time>
   <time name="diis">    6.16    6.21</time>
   <time name="orth">    0.33    0.33</time>
   <time name="total">    9.38    9.45</time>
   <energy>
    <i name="alphaZ">    975.10247152 </i>
    <i name="ewald">  91551.83854000 </i>
    <i name="hartreedc">-120266.44270976 </i>
    <i name="XCdc">    178.54034433 </i>
    <i name="pawpsdc">  30135.15023782 </i>
    <i name="pawaedc"> -29221.35092286 </i>
    <i name="eentropy">     -0.02270904 </i>
    <i name="bandstr">   -843.10720787 </i>
    <i name="atom">  27259.89416086 </i>
    <i name="e_fr_energy">   -230.39779500 </i>
    <i name="e_wo_entrp">   -230.37508596 </i>
    <i name="e_0_energy">   -230.39022532 </i>
   </energy>
  </scstep>
  <structure>
   <crystal>
    <varray name="basis" >
     <v>       7.29695512      -4.21289900       0.00000000 </v>
     <v>       0.00000000       8.42579800       0.00000000 </v>
     <v>       0.00000000       0.00000000      21.87963500 </v>
    </varray>
    <i name="volume">   1345.21837528 </i>
    <varray name="rec_basis" >
     <v>       0.13704346       0.00000000       0.00000000 </v>
     <v>       0.06852173       0.11868312       0.00000000 </v>
     <v>       0.00000000       0.00000000       0.04570460 </v>
    </varray>
   </crystal>
   <varray name="positions" >
    <v>       0.69418803       0.43349909       0.47605695 </v>
    <v>       0.90714979       0.38911460       0.46439378 </v>
    <v>       0.67377436       0.46507566       0.52490009 </v>
    <v>       0.98675500       0.32859100       0.07437600 </v>
    <v>       0.32008800       0.32859100       0.07437600 </v>
    <v>       0.65342200       0.32859100       0.07437600 </v>
    <v>       0.98675500       0.66192500       0.07437600 </v>
    <v>       0.32008800       0.66192500       0.07437600 </v>
    <v>       0.65342200       0.66192500       0.07437600 </v>
    <v>       0.32008800       0.99525800       0.07437600 </v>
    <v>       0.65342200       0.99525800       0.07437600 </v>
    <v>       0.98675500       0.99525800       0.07437600 </v>
    <v>       0.20897700       0.10636900       0.17918600 </v>
    <v>       0.54231100       0.10636900       0.17918600 </v>
    <v>       0.87564400       0.10636900       0.17918600 </v>
    <v>       0.20897700       0.43970300       0.17918600 </v>
    <v>       0.54231100       0.43970300       0.17918600 </v>
    <v>       0.87564400       0.43970300       0.17918600 </v>
    <v>       0.20897700       0.77303600       0.17918600 </v>
    <v>       0.54231100       0.77303600       0.17918600 </v>
    <v>       0.87564400       0.77303600       0.17918600 </v>
    <v>       0.09951135       0.54687326       0.28597511 </v>
    <v>       0.43094231       0.88211320       0.28170715 </v>
    <v>       0.76243099       0.21510516       0.28662368 </v>
    <v>       0.09574873       0.22000266       0.28346006 </v>
    <v>       0.43439388       0.21356503       0.28636830 </v>
    <v>       0.10106060       0.88024617       0.28034699 </v>
    <v>       0.76622156       0.88499775       0.28144757 </v>
    <v>       0.43436449       0.55237754       0.28266186 </v>
    <v>       0.76786833       0.54657331       0.28059143 </v>
    <v>       0.32234090       0.66077548       0.38813177 </v>
    <v>       0.65428041       0.98527655       0.38597608 </v>
    <v>       0.31978885       0.32654940       0.38423708 </v>
    <v>       0.98701880       0.99018960       0.38522866 </v>
    <v>       0.31810381       0.99125839       0.39033227 </v>
    <v>       0.64223573       0.32825257       0.39234331 </v>
    <v>       0.99602671       0.67138243       0.38724367 </v>
    <v>       0.99288705       0.32081571       0.39327729 </v>
    <v>       0.65924538       0.66399783       0.38661085 </v>
   </varray>
  </structure>
  <varray name="forces" >
   <v>      -0.33747232      -1.76648106      -3.68817389 </v>
   <v>       0.56661430       0.19516778       0.24297057 </v>
   <v>      -0.05164152       0.90937540       2.58014825 </v>
   <v>      -0.01237497      -0.02515836       0.19320253 </v>
   <v>      -0.01059361      -0.07799047       0.17954088 </v>
   <v>      -0.06198079       0.00320606       0.13286565 </v>
   <v>       0.01431533       0.08055227       0.09626317 </v>
   <v>      -0.02361278       0.03270744       0.18404631 </v>
   <v>       0.03647431       0.01049571       0.12386852 </v>
   <v>       0.00586112      -0.00087632       0.01927459 </v>
   <v>       0.01415419       0.02647569       0.11420232 </v>
   <v>       0.01245617      -0.01436544       0.00607433 </v>
   <v>       0.11684351       0.07492666      -0.03259948 </v>
   <v>       0.06992404       0.12915627       0.06895312 </v>
   <v>       0.08415110       0.11593437      -0.08453293 </v>
   <v>      -0.03407026       0.01268227       0.00712940 </v>
   <v>      -0.13689135      -0.14696263      -0.05465316 </v>
   <v>       0.11314311      -0.24286114       0.04668138 </v>
   <v>      -0.03591133      -0.18117624      -0.30126421 </v>
   <v>       0.02894182      -0.02656326      -0.26630732 </v>
   <v>       0.05325813       0.08042368      -0.47316337 </v>
   <v>      -0.13020445       0.07411474      -0.47420469 </v>
   <v>       0.03171167       0.00379827       0.34143074 </v>
   <v>       0.13057556       0.12284685      -0.35865978 </v>
   <v>      -0.01925683      -0.13084478      -0.02283449 </v>
   <v>      -0.06839360       0.12039848      -0.73028714 </v>
   <v>      -0.15761693       0.25337230       0.56309632 </v>
   <v>       0.00412532      -0.22050310       0.02589348 </v>
   <v>      -0.03805053      -0.16360125      -0.04490815 </v>
   <v>      -0.10340750       0.23812316       0.50917558 </v>
   <v>       0.24157144       0.12361380      -0.12195141 </v>
   <v>      -0.32186220       0.35613803       0.11983404 </v>
   <v>      -0.13538480       0.01234453       0.32828070 </v>
   <v>       0.18148118       0.01553145       0.21666421 </v>
   <v>       0.18461873      -0.19128190      -0.28538920 </v>
   <v>      -0.10096672       0.36856052       1.02659889 </v>
   <v>      -0.09341239      -0.13259983      -0.12814038 </v>
   <v>       0.08135091      -0.19637669       0.10804400 </v>
   <v>      -0.09846707       0.15769674      -0.16716939 </v>
  </varray>
  <varray name="stress" >
   <v>     -41.31555939       0.43568350       0.18944850 </v>
   <v>       0.43568351     -43.45975941      -0.14877503 </v>
   <v>       0.18944859      -0.14877504      -1.45868799 </v>
  </varray>
  <energy>
   <i name="e_fr_energy">   -230.39779500 </i>
   <i name="e_wo_entrp">   -230.39022532 </i>
   <i name="e_0_energy">     -0.02270904 </i>
  </energy>
  <time name="totalsc">  131.61  133.15</time>
 </calculation>
 <calculation>
  <scstep>
   <time name="dav">   15.38   15.57</time>
   <time name="total">   16.59   16.84</time>
   <energy>
    <i name="alphaZ">    975.10247152 </i>
    <i name="ewald">  91500.45381813 </i>
    <i name="hartreedc">-120218.53082567 </i>
    <i name="XCdc">    178.43278726 </i>
    <i name="pawpsdc">  30134.96696984 </i>
    <i name="pawaedc"> -29221.16923719 </i>
    <i name="eentropy">     -0.02262688 </i>
    <i name="bandstr">   -839.67235280 </i>
    <i name="atom">  27259.89416086 </i>
    <i name="e_fr_energy">   -230.54483492 </i>
    <i name="e_wo_entrp">   -230.52220804 </i>
    <i name="e_0_energy">   -230.53729263 </i>
   </energy>
  </scstep>
  <scstep>
   <time name="diag">    2.56    2.58</time>
   <time name="diis">    8.33    8.67</time>
   <time name="orth">    0.32    0.33</time>
   <time name="total">   12.33   12.71</time>
   <energy>
    <i name="e_fr_energy">   -230.60331381 </i>
    <i name="e_wo_entrp">   -230.57597529 </i>
    <i name="e_0_energy">   -230.59420097 </i>
   </energy>
  </scstep>
  <scstep>
   <time name="diag">    2.50    2.52</time>
   <time name="diis">    8.38    8.45</time>
   <time name="orth">    0.30    0.30</time>
   <time name="total">   12.25   12.36</time>
   <energy>
    <i name="e_fr_energy">   -230.61227865 </i>
    <i name="e_wo_entrp">   -230.59628399 </i>
    <i name="e_0_energy">   -230.60694710 </i>
   </energy>
  </scstep>
  <scstep>
   <time name="diag">    2.48    2.51</time>
   <time name="diis">    9.01    9.11</time>
   <time name="orth">    0.33    0.33</time>
   <time name="total">   13.02   13.16</time>
   <energy>
    <i name="e_fr_energy">   -230.59815632 </i>
    <i name="e_wo_entrp">   -230.57127928 </i>
    <i name="e_0_energy">   -230.58919731 </i>
   </energy>
  </scstep>
  <scstep>
   <time name="diag">    2.39    2.41</time>
   <time name="diis">    8.91    9.06</time>
   <time name="orth">    0.33    0.33</time>
   <time name="total">   12.92   13.11</time>
   <energy>
    <i name="e_fr_energy">   -230.59199279 </i>
    <i name="e_wo_entrp">   -230.56647211 </i>
    <i name="e_0_energy">   -230.58348590 </i>
   </energy>
  </scstep>
  <scstep>
   <time name="diag">    2.49    2.50</time>
   <time name="diis">    8.56    8.62</time>
   <time name="orth">    0.33    0.33</time>
   <time name="total">   12.52   12.61</time>
   <energy>
    <i name="e_fr_energy">   -230.58990243 </i>
    <i name="e_wo_entrp">   -230.56751519 </i>
    <i name="e_0_energy">   -230.58244001 </i>
   </energy>
  </scstep>
  <scstep>
   <time name="diag">    2.46    2.48</time>
   <time name="diis">    9.09    9.16</time>
   <time name="orth">    0.33    0.33</time>
   <time name="total">   13.07   13.17</time>
   <energy>
    <i name="e_fr_energy">   -230.58849438 </i>
    <i name="e_wo_entrp">   -230.56322905 </i>
    <i name="e_0_energy">   -230.58007260 </i>
   </energy>
  </scstep>
  <scstep>
   <time name="diag">    2.65    2.67</time>
   <time name="diis">    8.69    8.75</time>
   <time name="orth">    0.32    0.32</time>
   <time name="total">   12.67   12.81</time>
   <energy>
    <i name="e_fr_energy">   -230.58790134 </i>
    <i name="e_wo_entrp">   -230.56471205 </i>
    <i name="e_0_energy">   -230.58017158 </i>
   </energy>
  </scstep>
  <scstep>
   <time name="diag">    2.30    2.31</time>
   <time name="diis">    6.14    6.18</time>
   <time name="orth">    0.31    0.31</time>
   <time name="total">    9.82    9.89</time>
   <energy>
    <i name="e_fr_energy">   -230.58775804 </i>
    <i name="e_wo_entrp">   -230.56296712 </i>
    <i name="e_0_energy">   -230.57949440 </i>
   </energy>
  </scstep>
  <scstep>
   <time name="diag">    2.48    2.50</time>
   <time name="diis">    5.40    5.44</time>
   <time name="orth">    0.32    0.32</time>
   <time name="total">    8.41    8.47</time>
   <energy>
    <i name="alphaZ">    975.10247152 </i>
    <i name="ewald">  91500.45381813 </i>
    <i name="hartreedc">-120208.65602397 </i>
    <i name="XCdc">    178.33705495 </i>
    <i name="pawpsdc">  30126.59733083 </i>
    <i name="pawaedc"> -29212.82540573 </i>
    <i name="eentropy">     -0.02419546 </i>
    <i name="bandstr">   -849.46693784 </i>
    <i name="atom">  27259.89416086 </i>
    <i name="e_fr_energy">   -230.58772671 </i>
    <i name="e_wo_entrp">   -230.56353125 </i>
    <i name="e_0_energy">   -230.57966156 </i>
   </energy>
  </scstep>
  <structure>
   <crystal>
    <varray name="basis" >
     <v>       7.29695512      -4.21289900       0.00000000 </v>
     <v>       0.00000000       8.42579800       0.00000000 </v>
     <v>       0.00000000       0.00000000      21.87963500 </v>
    </varray>
    <i name="volume">   1345.21837528 </i>
    <varray name="rec_basis" >
     <v>       0.13704346       0.00000000       0.00000000 </v>
     <v>       0.06852173       0.11868312       0.00000000 </v>
     <v>       0.00000000       0.00000000       0.04570460 </v>
    </varray>
   </crystal>
   <varray name="positions" >
    <v>       0.69165433       0.42906251       0.47445415 </v>
    <v>       0.90900048       0.39096690       0.46495766 </v>
    <v>       0.67503587       0.46587481       0.52486545 </v>
    <v>       0.98675500       0.32859100       0.07437600 </v>
    <v>       0.32008800       0.32859100       0.07437600 </v>
    <v>       0.65342200       0.32859100       0.07437600 </v>
    <v>       0.98675500       0.66192500       0.07437600 </v>
    <v>       0.32008800       0.66192500       0.07437600 </v>
    <v>       0.65342200       0.66192500       0.07437600 </v>
    <v>       0.32008800       0.99525800       0.07437600 </v>
    <v>       0.65342200       0.99525800       0.07437600 </v>
    <v>       0.98675500       0.99525800       0.07437600 </v>
    <v>       0.20897700       0.10636900       0.17918600 </v>
    <v>       0.54231100       0.10636900       0.17918600 </v>
    <v>       0.87564400       0.10636900       0.17918600 </v>
    <v>       0.20897700       0.43970300       0.17918600 </v>
    <v>       0.54231100       0.43970300       0.17918600 </v>
    <v>       0.87564400       0.43970300       0.17918600 </v>
    <v>       0.20897700       0.77303600       0.17918600 </v>
    <v>       0.54231100       0.77303600       0.17918600 </v>
    <v>       0.87564400       0.77303600       0.17918600 </v>
    <v>       0.09893679       0.54684371       0.28530223 </v>
    <v>       0.43108705       0.88218262       0.28222228 </v>
    <v>       0.76306841       0.21582941       0.28605271 </v>
    <v>       0.09568752       0.21945141       0.28341437 </v>
    <v>       0.43396302       0.21371576       0.28522691 </v>
    <v>       0.10034503       0.88087992       0.28118897 </v>
    <v>       0.76627385       0.88409486       0.28146007 </v>
    <v>       0.43431937       0.55178419       0.28258968 </v>
    <v>       0.76745643       0.54732342       0.28130860 </v>
    <v>       0.32347045       0.66184885       0.38798507 </v>
    <v>       0.65279866       0.98569656       0.38615750 </v>
    <v>       0.31912265       0.32637184       0.38472544 </v>
    <v>       0.98786027       0.99060945       0.38548311 </v>
    <v>       0.31878850       0.99082137       0.38995874 </v>
    <v>       0.64192123       0.32957235       0.39388247 </v>
    <v>       0.99560165       0.67083320       0.38706338 </v>
    <v>       0.99340290       0.32014625       0.39329690 </v>
    <v>       0.65886025       0.66419209       0.38640715 </v>
   </varray>
  </structure>
  <varray name="forces" >
   <v>      -0.49830763      -0.35520349       0.84603252 </v>
   <v>       0.59474026       0.15931890       0.00378490 </v>
   <v>       0.32441333      -0.26400226      -1.05614558 </v>
   <v>      -0.00627822      -0.03024404       0.18660140 </v>
   <v>      -0.01961555      -0.06552702       0.16380071 </v>
   <v>      -0.05433167      -0.00067316       0.13024832 </v>
   <v>       0.01137040       0.07589263       0.10112001 </v>
   <v>      -0.02025153       0.02692555       0.17449480 </v>
   <v>       0.02952942       0.00529804       0.12561083 </v>
   <v>       0.00486917      -0.00995846       0.02802929 </v>
   <v>       0.01018403       0.02969388       0.12052580 </v>
   <v>       0.01178405      -0.00828749       0.02078768 </v>
   <v>       0.05856858       0.04767596      -0.06997641 </v>
   <v>       0.06192136       0.08285716       0.03773081 </v>
   <v>       0.07877833       0.07961472      -0.12095119 </v>
   <v>      -0.02901729       0.00375776      -0.02058791 </v>
   <v>      -0.09426950      -0.12325745      -0.07440174 </v>
   <v>       0.07885246      -0.18750552       0.05350906 </v>
   <v>      -0.03384181      -0.12122621      -0.21913717 </v>
   <v>       0.02415783      -0.00635552      -0.24111477 </v>
   <v>       0.08133874       0.06203270      -0.44761793 </v>
   <v>      -0.07211127       0.05361691      -0.32851712 </v>
   <v>       0.02176874       0.00948264       0.17922888 </v>
   <v>       0.05354712       0.09763632      -0.16096600 </v>
   <v>      -0.01688416      -0.06101573       0.00956255 </v>
   <v>      -0.00940038       0.12795744      -0.38204670 </v>
   <v>      -0.08711224       0.14766044       0.32667977 </v>
   <v>      -0.02090220      -0.07516056       0.05810404 </v>
   <v>      -0.09244335      -0.12515773      -0.01610992 </v>
   <v>      -0.10101103       0.12545659       0.36405326 </v>
   <v>       0.10967020       0.04500671      -0.12435987 </v>
   <v>      -0.13471153       0.33924893       0.06622514 </v>
   <v>      -0.06214260      -0.05272702       0.21943399 </v>
   <v>       0.08602210       0.06138659       0.23363975 </v>
   <v>       0.17642452      -0.08188657      -0.23809126 </v>
   <v>      -0.30230980      -0.00030165       0.03233463 </v>
   <v>      -0.04837750      -0.17607918      -0.05831047 </v>
   <v>      -0.02942654      -0.05769554       0.20171580 </v>
   <v>      -0.08519487       0.22174473      -0.12491988 </v>
  </varray>
  <varray name="stress" >
   <v>     -41.60846610       0.83153271       1.28935672 </v>
   <v>       0.83153274     -44.34126969      -1.27419326 </v>
   <v>       1.28935679      -1.27419332      -5.23820423 </v>
  </varray>
  <energy>
   <i name="e_fr_energy">   -230.58772671 </i>
   <i name="e_wo_entrp">   -230.57966156 </i>
   <i name="e_0_energy">     -0.02419546 </i>
  </energy>
  <time name="totalsc">  144.98  147.00</time>
 </calculation>
 <calculation>
  <scstep>
   <time name="dav">   14.25   14.38</time>
   <time name="total">   15.26   15.48</time>
   <energy>
    <i name="alphaZ">    975.10247152 </i>
    <i name="ewald">  91493.05923899 </i>
    <i name="hartreedc">-120199.90726459 </i>
    <i name="XCdc">    178.38009901 </i>
    <i name="pawpsdc">  30126.54894189 </i>
    <i name="pawaedc"> -29212.77713039 </i>
    <i name="eentropy">     -0.02669761 </i>
    <i name="bandstr">   -850.91616658 </i>
    <i name="atom">  27259.89416086 </i>
    <i name="e_fr_energy">   -230.64234689 </i>
    <i name="e_wo_entrp">   -230.61564928 </i>
    <i name="e_0_energy">   -230.63344769 </i>
   </energy>
  </scstep>
  <scstep>
   <time name="diag">    2.35    2.37</time>
   <time name="diis">    9.25    9.32</time>
   <time name="orth">    0.40    0.40</time>
   <time name="total">   13.04   13.14</time>
   <energy>
    <i name="e_fr_energy">   -230.67414088 </i>
    <i name="e_wo_entrp">   -230.65311749 </i>
    <i name="e_0_energy">   -230.66713308 </i>
   </energy>
  </scstep>
  <scstep>
   <time name="diag">    2.34    2.35</time>
   <time name="diis">    8.86    8.93</time>
   <time name="orth">    0.31    0.32</time>
   <time name="total">   12.63   12.72</time>
   <energy>
    <i name="e_fr_energy">   -230.67713769 </i>
    <i name="e_wo_entrp">   -230.64502185 </i>
    <i name="e_0_energy">   -230.66643241 </i>
   </energy>
  </scstep>
  <scstep>
   <time name="diag">    2.62    2.64</time>
   <time name="diis">    8.29    8.35</time>
   <time name="orth">    0.31    0.31</time>
   <time name="total">   12.23   12.32</time>
   <energy>
    <i name="e_fr_energy">   -230.66986858 </i>
    <i name="e_wo_entrp">   -230.64364785 </i>
    <i name="e_0_energy">   -230.66112834 </i>
   </energy>
  </scstep>
  <scstep>
   <time name="diag">    2.28    2.30</time>
   <time name="diis">    7.77    7.83</time>
   <time name="orth">    0.31    0.32</time>
   <time name="total">   11.43   11.51</time>
   <energy>
    <i name="e_fr_energy">   -230.66747518 </i>
    <i name="e_wo_entrp">   -230.64223930 </i>
    <i name="e_0_energy">   -230.65906322 </i>
   </energy>
  </scstep>
  <scstep>
   <time name="diag">    2.27    2.29</time>
   <time name="diis">    8.95    9.07</time>
   <time name="orth">    0.33    0.33</time>
   <time name="total">   12.71   12.86</time>
   <energy>
    <i name="e_fr_energy">   -230.66782244 </i>
    <i name="e_wo_entrp">   -230.64064214 </i>
    <i name="e_0_energy">   -230.65876234 </i>
   </energy>
  </scstep>
  <scstep>
   <time name="diag">    2.52    2.56</time>
   <time name="diis">    8.44    8.51</time>
   <time name="orth">    0.33    0.33</time>
   <time name="total">   12.38   12.49</time>
   <energy>
    <i name="e_fr_energy">   -230.66749204 </i>
    <i name="e_wo_entrp">   -230.64290632 </i>
    <i name="e_0_energy">   -230.65929680 </i>
   </energy>
  </scstep>
  <scstep>
   <time name="diag">    2.36    2.38</time>
   <time name="diis">    7.00    7.05</time>
   <time name="orth">    0.31    0.31</time>
   <time name="total">   10.89   10.96</time>
   <energy>
    <i name="e_fr_energy">   -230.66715315 </i>
    <i name="e_wo_entrp">   -230.64134330 </i>
    <i name="e_0_energy">   -230.65854987 </i>
   </energy>
  </scstep>
  <scstep>
   <time name="diag">    2.68    2.70</time>
   <time name="diis">    5.33    5.37</time>
   <time name="orth">    0.32    0.33</time>
   <time name="total">    8.56    8.62</time>
   <energy>
    <i name="alphaZ">    975.10247152 </i>
    <i name="ewald">  91493.05923899 </i>
    <i name="hartreedc">-120201.27618169 </i>
    <i name="XCdc">    178.40997323 </i>
    <i name="pawpsdc">  30131.49107464 </i>
    <i name="pawaedc"> -29217.76245224 </i>
    <i name="eentropy">     -0.02578488 </i>
    <i name="bandstr">   -849.55962136 </i>
    <i name="atom">  27259.89416086 </i>
    <i name="e_fr_energy">   -230.66712092 </i>
    <i name="e_wo_entrp">   -230.64133604 </i>
    <i name="e_0_energy">   -230.65852596 </i>
   </energy>
  </scstep>
  <structure>
   <crystal>
    <varray name="basis" >
     <v>       7.29695512      -4.21289900       0.00000000 </v>
     <v>       0.00000000       8.42579800       0.00000000 </v>
     <v>       0.00000000       0.00000000      21.87963500 </v>
    </varray>
    <i name="volume">   1345.21837528 </i>
    <varray name="rec_basis" >
     <v>       0.13704346       0.00000000       0.00000000 </v>
     <v>       0.06852173       0.11868312       0.00000000 </v>
     <v>       0.00000000       0.00000000       0.04570460 </v>
    </varray>
   </crystal>
   <varray name="positions" >
    <v>       0.68947010       0.42556280       0.47452900 </v>
    <v>       0.91171479       0.39299174       0.46503548 </v>
    <v>       0.67623936       0.46623298       0.52420978 </v>
    <v>       0.98675500       0.32859100       0.07437600 </v>
    <v>       0.32008800       0.32859100       0.07437600 </v>
    <v>       0.65342200       0.32859100       0.07437600 </v>
    <v>       0.98675500       0.66192500       0.07437600 </v>
    <v>       0.32008800       0.66192500       0.07437600 </v>
    <v>       0.65342200       0.66192500       0.07437600 </v>
    <v>       0.32008800       0.99525800       0.07437600 </v>
    <v>       0.65342200       0.99525800       0.07437600 </v>
    <v>       0.98675500       0.99525800       0.07437600 </v>
    <v>       0.20897700       0.10636900       0.17918600 </v>
    <v>       0.54231100       0.10636900       0.17918600 </v>
    <v>       0.87564400       0.10636900       0.17918600 </v>
    <v>       0.20897700       0.43970300       0.17918600 </v>
    <v>       0.54231100       0.43970300       0.17918600 </v>
    <v>       0.87564400       0.43970300       0.17918600 </v>
    <v>       0.20897700       0.77303600       0.17918600 </v>
    <v>       0.54231100       0.77303600       0.17918600 </v>
    <v>       0.87564400       0.77303600       0.17918600 </v>
    <v>       0.09855358       0.54688156       0.28475446 </v>
    <v>       0.43119631       0.88227069       0.28254523 </v>
    <v>       0.76338309       0.21639529       0.28574723 </v>
    <v>       0.09560784       0.21911506       0.28341964 </v>
    <v>       0.43386673       0.21417272       0.28453709 </v>
    <v>       0.09988148       0.88131827       0.28176052 </v>
    <v>       0.76619926       0.88364721       0.28154001 </v>
    <v>       0.43394074       0.55106614       0.28255650 </v>
    <v>       0.76698813       0.54767605       0.28191088 </v>
    <v>       0.32409169       0.66239867       0.38779458 </v>
    <v>       0.65201431       0.98667180       0.38627503 </v>
    <v>       0.31877135       0.32603526       0.38509501 </v>
    <v>       0.98834053       0.99106028       0.38583739 </v>
    <v>       0.31960894       0.99082166       0.38957891 </v>
    <v>       0.64069841       0.32923479       0.39421709 </v>
    <v>       0.99533915       0.67003217       0.38695365 </v>
    <v>       0.99336455       0.31979002       0.39357872 </v>
    <v>       0.65845584       0.66482644       0.38620319 </v>
   </varray>
  </structure>
  <varray name="forces" >
   <v>      -0.34745678      -0.56302490       0.08120875 </v>
   <v>       0.61630366       0.17494223      -0.03457417 </v>
   <v>       0.17616923       0.04299947      -0.04663330 </v>
   <v>      -0.00213027      -0.03339279       0.17307509 </v>
   <v>      -0.02270730      -0.05888143       0.15696140 </v>
   <v>      -0.04981562      -0.00191058       0.13184865 </v>
   <v>       0.00972869       0.07451818       0.10853457 </v>
   <v>      -0.01651857       0.02402819       0.16695086 </v>
   <v>       0.02467133      -0.00148853       0.12882340 </v>
   <v>       0.00400321      -0.01774623       0.03806411 </v>
   <v>       0.00586511       0.03265465       0.11987951 </v>
   <v>       0.01367708      -0.00604380       0.02096227 </v>
   <v>       0.02512521       0.02781975      -0.08325924 </v>
   <v>       0.05489078       0.05645506       0.01661200 </v>
   <v>       0.07610961       0.05924081      -0.11784512 </v>
   <v>      -0.02544247      -0.00565043      -0.04117699 </v>
   <v>      -0.06133820      -0.10425463      -0.08601010 </v>
   <v>       0.04973387      -0.14470036       0.06186301 </v>
   <v>      -0.03098698      -0.07881727      -0.17755994 </v>
   <v>       0.01866588       0.00355535      -0.21631598 </v>
   <v>       0.09368796       0.04411362      -0.40581623 </v>
   <v>      -0.04583667       0.03634376      -0.22349100 </v>
   <v>       0.01216678       0.01096773       0.05302855 </v>
   <v>       0.02975856       0.06796407      -0.08276725 </v>
   <v>      -0.02677052      -0.02110360       0.04072662 </v>
   <v>      -0.00645474       0.10380557      -0.20874621 </v>
   <v>      -0.05753040       0.08873244       0.18207879 </v>
   <v>      -0.02510982      -0.00040966       0.06089579 </v>
   <v>      -0.10553015      -0.07483804      -0.00614790 </v>
   <v>      -0.07494710       0.07088688       0.23560649 </v>
   <v>       0.04399761       0.00222172      -0.12139359 </v>
   <v>      -0.02843799       0.29463932       0.05464649 </v>
   <v>      -0.06926416      -0.04690925       0.14696829 </v>
   <v>       0.03376691       0.06725724       0.21969909 </v>
   <v>       0.10654020      -0.03457573      -0.19588514 </v>
   <v>      -0.28200487      -0.06239919      -0.17657835 </v>
   <v>      -0.02816889      -0.17289340      -0.01582187 </v>
   <v>      -0.02014365      -0.05919727       0.13196419 </v>
   <v>      -0.06826655       0.20509108      -0.09037552 </v>
  </varray>
  <varray name="stress" >
   <v>     -41.65001939       0.64381661       1.20305940 </v>
   <v>       0.64381648     -44.49539814      -0.59055145 </v>
   <v>       1.20305940      -0.59055145      -3.69520034 </v>
  </varray>
  <energy>
   <i name="e_fr_energy">   -230.66712092 </i>
   <i name="e_wo_entrp">   -230.65852596 </i>
   <i name="e_0_energy">     -0.02578488 </i>
  </energy>
  <time name="totalsc">  130.01  131.96</time>
 </calculation>
 <calculation>
  <scstep>
