metal                                   
           1
     7.296955   -4.212899    0.000000
     0.000000    8.425798    0.000000
     0.000000    0.000000   21.879635
   C    O    Pt
   1   2  36
Direct configuration=     1
   0.69907817  0.43847576  0.47696647
   0.90542463  0.38589875  0.46243946
   0.67094162  0.46533164  0.52685500
   0.98675500  0.32859100  0.07437600
   0.32008800  0.32859100  0.07437600
   0.65342200  0.32859100  0.07437600
   0.98675500  0.66192500  0.07437600
   0.32008800  0.66192500  0.07437600
   0.65342200  0.66192500  0.07437600
   0.32008800  0.99525800  0.07437600
   0.65342200  0.99525800  0.07437600
   0.98675500  0.99525800  0.07437600
   0.20897700  0.10636900  0.17918600
   0.54231100  0.10636900  0.17918600
   0.87564400  0.10636900  0.17918600
   0.20897700  0.43970300  0.17918600
   0.54231100  0.43970300  0.17918600
   0.87564400  0.43970300  0.17918600
   0.20897700  0.77303600  0.17918600
   0.54231100  0.77303600  0.17918600
   0.87564400  0.77303600  0.17918600
   0.10061125  0.54711822  0.28709901
   0.43071211  0.88203755  0.28077929
   0.76093003  0.21386225  0.28776505
   0.09589647  0.22099622  0.28353496
   0.43554516  0.21374981  0.28863990
   0.10237364  0.87910272  0.27880485
   0.76603953  0.88677227  0.28150470
   0.43409912  0.55313805  0.28281171
   0.76843199  0.54504671  0.27942293
   0.32017655  0.65869740  0.38829872
   0.65716026  0.98515747  0.38561258
   0.32138285  0.32664532  0.38335257
   0.98536955  0.98948428  0.38492417
   0.31734287  0.99244276  0.39086845
   0.64223121  0.32532837  0.38940578
   0.99676945  0.67181607  0.38758495
   0.99070350  0.32276618  0.39410309
   0.65980551  0.66410559  0.38692773
Direct configuration=     2
   0.69651573  0.43551751  0.47564119
   0.90604418  0.38779483  0.46388676
   0.67220738  0.46555867  0.52653886
   0.98675500  0.32859100  0.07437600
   0.32008800  0.32859100  0.07437600
   0.65342200  0.32859100  0.07437600
   0.98675500  0.66192500  0.07437600
   0.32008800  0.66192500  0.07437600
   0.65342200  0.66192500  0.07437600
   0.32008800  0.99525800  0.07437600
   0.65342200  0.99525800  0.07437600
   0.98675500  0.99525800  0.07437600
   0.20897700  0.10636900  0.17918600
   0.54231100  0.10636900  0.17918600
   0.87564400  0.10636900  0.17918600
   0.20897700  0.43970300  0.17918600
   0.54231100  0.43970300  0.17918600
   0.87564400  0.43970300  0.17918600
   0.20897700  0.77303600  0.17918600
   0.54231100  0.77303600  0.17918600
   0.87564400  0.77303600  0.17918600
   0.09993950  0.54690601  0.28646599
   0.43083242  0.88206782  0.28131797
   0.76193024  0.21457949  0.28706731
   0.09578434  0.22041710  0.28349919
   0.43476927  0.21351941  0.28724686
   0.10160225  0.87976834  0.27971399
   0.76616826  0.88569973  0.28144903
   0.43434643  0.55277093  0.28271821
   0.76815656  0.54598562  0.28007057
   0.32147245  0.65994704  0.38822729
   0.65541043  0.98506075  0.38583876
   0.32031422  0.32665058  0.38387096
   0.98637466  0.98989356  0.38506617
   0.31764834  0.99163175  0.39059105
   0.64241491  0.32721268  0.39118445
   0.99634885  0.67172282  0.38737451
   0.99243662  0.32135602  0.39332136
   0.65951158  0.66393353  0.38674484
Direct configuration=     3
   0.69418803  0.43349909  0.47605695
   0.90714979  0.38911460  0.46439378
   0.67377436  0.46507566  0.52490009
   0.98675500  0.32859100  0.07437600
   0.32008800  0.32859100  0.07437600
   0.65342200  0.32859100  0.07437600
   0.98675500  0.66192500  0.07437600
   0.32008800  0.66192500  0.07437600
   0.65342200  0.66192500  0.07437600
   0.32008800  0.99525800  0.07437600
   0.65342200  0.99525800  0.07437600
   0.98675500  0.99525800  0.07437600
   0.20897700  0.10636900  0.17918600
   0.54231100  0.10636900  0.17918600
   0.87564400  0.10636900  0.17918600
   0.20897700  0.43970300  0.17918600
   0.54231100  0.43970300  0.17918600
   0.87564400  0.43970300  0.17918600
   0.20897700  0.77303600  0.17918600
   0.54231100  0.77303600  0.17918600
   0.87564400  0.77303600  0.17918600
   0.09951135  0.54687326  0.28597511
   0.43094231  0.88211320  0.28170715
   0.76243099  0.21510516  0.28662368
   0.09574873  0.22000266  0.28346006
   0.43439388  0.21356503  0.28636830
   0.10106060  0.88024617  0.28034699
   0.76622156  0.88499775  0.28144757
   0.43436449  0.55237754  0.28266186
   0.76786833  0.54657331  0.28059143
   0.32234090  0.66077548  0.38813177
   0.65428041  0.98527655  0.38597608
   0.31978885  0.32654940  0.38423708
   0.98701880  0.99018960  0.38522866
   0.31810381  0.99125839  0.39033227
   0.64223573  0.32825257  0.39234331
   0.99602671  0.67138243  0.38724367
   0.99288705  0.32081571  0.39327729
   0.65924538  0.66399783  0.38661085
Direct configuration=     4
   0.69165433  0.42906251  0.47445415
   0.90900048  0.39096690  0.46495766
   0.67503587  0.46587481  0.52486545
   0.98675500  0.32859100  0.07437600
   0.32008800  0.32859100  0.07437600
   0.65342200  0.32859100  0.07437600
   0.98675500  0.66192500  0.07437600
   0.32008800  0.66192500  0.07437600
   0.65342200  0.66192500  0.07437600
   0.32008800  0.99525800  0.07437600
   0.65342200  0.99525800  0.07437600
   0.98675500  0.99525800  0.07437600
   0.20897700  0.10636900  0.17918600
   0.54231100  0.10636900  0.17918600
   0.87564400  0.10636900  0.17918600
   0.20897700  0.43970300  0.17918600
   0.54231100  0.43970300  0.17918600
   0.87564400  0.43970300  0.17918600
   0.20897700  0.77303600  0.17918600
   0.54231100  0.77303600  0.17918600
   0.87564400  0.77303600  0.17918600
   0.09893679  0.54684371  0.28530223
   0.43108705  0.88218262  0.28222228
   0.76306841  0.21582941  0.28605271
   0.09568752  0.21945141  0.28341437
   0.43396302  0.21371576  0.28522691
   0.10034503  0.88087992  0.28118897
   0.76627385  0.88409486  0.28146007
   0.43431937  0.55178419  0.28258968
   0.76745643  0.54732342  0.28130860
   0.32347045  0.66184885  0.38798507
   0.65279866  0.98569656  0.38615750
   0.31912265  0.32637184  0.38472544
   0.98786027  0.99060945  0.38548311
   0.31878850  0.99082137  0.38995874
   0.64192123  0.32957235  0.39388247
   0.99560165  0.67083320  0.38706338
   0.99340290  0.32014625  0.39329690
   0.65886025  0.66419209  0.38640715
Direct configuration=     5
   0.68947010  0.42556280  0.47452900
   0.91171479  0.39299174  0.46503548
   0.67623936  0.46623298  0.52420978
   0.98675500  0.32859100  0.07437600
   0.32008800  0.32859100  0.07437600
   0.65342200  0.32859100  0.07437600
   0.98675500  0.66192500  0.07437600
   0.32008800  0.66192500  0.07437600
   0.65342200  0.66192500  0.07437600
   0.32008800  0.99525800  0.07437600
   0.65342200  0.99525800  0.07437600
   0.98675500  0.99525800  0.07437600
   0.20897700  0.10636900  0.17918600
   0.54231100  0.10636900  0.17918600
   0.87564400  0.10636900  0.17918600
   0.20897700  0.43970300  0.17918600
   0.54231100  0.43970300  0.17918600
   0.87564400  0.43970300  0.17918600
   0.20897700  0.77303600  0.17918600
   0.54231100  0.77303600  0.17918600
   0.87564400  0.77303600  0.17918600
   0.09855358  0.54688156  0.28475446
   0.43119631  0.88227069  0.28254523
   0.76338309  0.21639529  0.28574723
   0.09560784  0.21911506  0.28341964
   0.43386673  0.21417272  0.28453709
   0.09988148  0.88131827  0.28176052
   0.76619926  0.88364721  0.28154001
   0.43394074  0.55106614  0.28255650
   0.76698813  0.54767605  0.28191088
   0.32409169  0.66239867  0.38779458
   0.65201431  0.98667180  0.38627503
   0.31877135  0.32603526  0.38509501
   0.98834053  0.99106028  0.38583739
   0.31960894  0.99082166  0.38957891
   0.64069841  0.32923479  0.39421709
   0.99533915  0.67003217  0.38695365
   0.99336455  0.31979002  0.39357872
   0.65845584  0.66482644  0.38620319
