 vasp.5.4.4 16052018 (build Apr 24 2014 20:13:14) complex standard
 Contain Constrained Minimization Technique (TS), Periodic NBO, VASPsol, libbeef, VASP2WANNIER90, Constrained Cell Relaxation
 executed on Center for Computational Chemistry by phu@node11 date 2025.11.24 21:37:34
 running on    8 total cores
 distrk:  each k-point on    8 cores,    1 groups
 distr:  one band on NCORES_PER_BAND=   2 cores,    4 groups


--------------------------------------------------------------------------------------------------------


 INCAR:
 POTCAR:   PAW_PBE C 08Apr2002                    
 POTCAR:   PAW_PBE O 08Apr2002                    
 POTCAR:    PAW_PBE Pt 04Feb2005                  
 POTCAR:   PAW_PBE C 08Apr2002                    
   VRHFIN =C: s2p2                                                              
   LEXCH  = PE                                                                  
   EATOM  =   147.1560 eV,   10.8157 Ry                                         
                                                                                
   TITEL  = PAW_PBE C 08Apr2002                                                 
   LULTRA =        F    use ultrasoft PP ?                                      
   IUNSCR =        0    unscreen: 0-lin 1-nonlin 2-no                           
   RPACOR =     .000    partial core radius                                     
   POMASS =   12.011; ZVAL   =    4.000    mass and valenz                      
   RCORE  =    1.500    outmost cutoff radius                                   
   RWIGS  =    1.630; RWIGS  =     .863    wigner-seitz radius (au A)           
   ENMAX  =  400.000; ENMIN  =  300.000 eV                                      
   ICORE  =        2    local potential                                         
   LCOR   =        T    correct aug charges                                     
   LPAW   =        T    paw PP                                                  
   EAUG   =  644.873                                                            
   DEXC   =     .000                                                            
   RMAX   =    2.266    core radius for proj-oper                               
   RAUG   =    1.300    factor for augmentation sphere                          
   RDEP   =    1.501    radius for radial grids                                 
   RDEPT  =    1.300    core radius for aug-charge                              
   QCUT   =   -5.516; QGAM   =   11.032    optimization parameters              
                                                                                
   Description                                                                  
     l     E      TYP  RCUT    TYP  RCUT                                        
     0   .000     23  1.200                                                     
     0   .000     23  1.200                                                     
     1   .000     23  1.500                                                     
     1  2.500     23  1.500                                                     
     2   .000      7  1.500                                                     
  local pseudopotential read in
  atomic valenz-charges read in
  non local Contribution for L=           0  read in
    real space projection operators read in
  non local Contribution for L=           0  read in
    real space projection operators read in
  non local Contribution for L=           1  read in
    real space projection operators read in
  non local Contribution for L=           1  read in
    real space projection operators read in
    PAW grid and wavefunctions read in
 
   number of l-projection  operators is LMAX  =           4
   number of lm-projection operators is LMMAX =           8
 
 POTCAR:   PAW_PBE O 08Apr2002                    
   VRHFIN =O: s2p4                                                              
   LEXCH  = PE                                                                  
   EATOM  =   432.3788 eV,   31.7789 Ry                                         
                                                                                
   TITEL  = PAW_PBE O 08Apr2002                                                 
   LULTRA =        F    use ultrasoft PP ?                                      
   IUNSCR =        0    unscreen: 0-lin 1-nonlin 2-no                           
   RPACOR =     .000    partial core radius                                     
   POMASS =   16.000; ZVAL   =    6.000    mass and valenz                      
   RCORE  =    1.520    outmost cutoff radius                                   
   RWIGS  =    1.550; RWIGS  =     .820    wigner-seitz radius (au A)           
   ENMAX  =  400.000; ENMIN  =  300.000 eV                                      
   ICORE  =        2    local potential                                         
   LCOR   =        T    correct aug charges                                     
   LPAW   =        T    paw PP                                                  
   EAUG   =  605.392                                                            
   DEXC   =     .000                                                            
   RMAX   =    2.264    core radius for proj-oper                               
   RAUG   =    1.300    factor for augmentation sphere                          
   RDEP   =    1.550    radius for radial grids                                 
   QCUT   =   -5.520; QGAM   =   11.041    optimization parameters              
                                                                                
   Description                                                                  
     l     E      TYP  RCUT    TYP  RCUT                                        
     0   .000     23  1.200                                                     
     0  -.700     23  1.200                                                     
     1   .000     23  1.520                                                     
     1   .600     23  1.520                                                     
     2   .000      7  1.500                                                     
  local pseudopotential read in
  atomic valenz-charges read in
  non local Contribution for L=           0  read in
    real space projection operators read in
  non local Contribution for L=           0  read in
    real space projection operators read in
  non local Contribution for L=           1  read in
    real space projection operators read in
  non local Contribution for L=           1  read in
    real space projection operators read in
    PAW grid and wavefunctions read in
 
   number of l-projection  operators is LMAX  =           4
   number of lm-projection operators is LMMAX =           8
 
 POTCAR:    PAW_PBE Pt 04Feb2005                  
   VRHFIN =Pt: s1d9                                                             
   LEXCH  = PE                                                                  
   EATOM  =   729.1182 eV,   53.5887 Ry                                         
                                                                                
   TITEL  = PAW_PBE Pt 04Feb2005                                                
   LULTRA =        F    use ultrasoft PP ?                                      
   IUNSCR =        1    unscreen: 0-lin 1-nonlin 2-no                           
   RPACOR =    2.330    partial core radius                                     
   POMASS =  195.080; ZVAL   =   10.000    mass and valenz                      
   RCORE  =    2.600    outmost cutoff radius                                   
   RWIGS  =    2.750; RWIGS  =    1.455    wigner-seitz radius (au A)           
   ENMAX  =  230.283; ENMIN  =  172.712 eV                                      
   ICORE  =        3    local potential                                         
   LCOR   =        T    correct aug charges                                     
   LPAW   =        T    paw PP                                                  
   EAUG   =  358.966                                                            
   DEXC   =     .000                                                            
   RMAX   =    3.038    core radius for proj-oper                               
   RAUG   =    1.300    factor for augmentation sphere                          
   RDEP   =    2.761    radius for radial grids                                 
   QCUT   =   -4.114; QGAM   =    8.228    optimization parameters              
                                                                                
   Description                                                                  
     l     E      TYP  RCUT    TYP  RCUT                                        
     2   .000     23  2.500                                                     
     2   .000     23  2.500                                                     
     0   .000     23  2.500                                                     
     0   .000     23  2.500                                                     
     1  -.200     23  2.600                                                     
     1  1.500     23  2.600                                                     
     3   .000     23  2.500                                                     
  local pseudopotential read in
  partial core-charges read in
  atomic valenz-charges read in
  non local Contribution for L=           2  read in
    real space projection operators read in
  non local Contribution for L=           2  read in
    real space projection operators read in
  non local Contribution for L=           0  read in
    real space projection operators read in
  non local Contribution for L=           0  read in
    real space projection operators read in
  non local Contribution for L=           1  read in
    real space projection operators read in
  non local Contribution for L=           1  read in
    real space projection operators read in
    PAW grid and wavefunctions read in
 
   number of l-projection  operators is LMAX  =           6
   number of lm-projection operators is LMMAX =          18
 
 Optimization of the real space projectors (new method)

 maximal supplied QI-value         = 25.13
 optimisation between [QCUT,QGAM] = [ 10.81, 21.61] = [ 32.71,130.83] Ry 
 Optimized for a Real-space Cutoff    1.23 Angstroem

   l    n(q)    QCUT    max X(q) W(low)/X(q) W(high)/X(q)  e(spline) 
   0      8    10.807     5.582    0.53E-04    0.84E-04    0.44E-07
   0      8    10.807    69.432    0.35E-03    0.71E-03    0.24E-06
   1      7    10.807     2.780    0.44E-04    0.88E-04    0.89E-07
   1      7    10.807     4.549    0.14E-03    0.28E-03    0.13E-06
 Optimization of the real space projectors (new method)

 maximal supplied QI-value         = 24.76
 optimisation between [QCUT,QGAM] = [ 10.64, 21.54] = [ 31.73,129.89] Ry 
 Optimized for a Real-space Cutoff    1.23 Angstroem

   l    n(q)    QCUT    max X(q) W(low)/X(q) W(high)/X(q)  e(spline) 
   0      8    10.645     4.192    0.69E-04    0.93E-04    0.58E-07
   0      8    10.645     8.473    0.40E-03    0.65E-03    0.17E-06
   1      7    10.645     2.474    0.80E-04    0.12E-03    0.30E-07
   1      7    10.645     3.912    0.24E-03    0.53E-03    0.16E-06
 Optimization of the real space projectors (new method)

 maximal supplied QI-value         = 14.36
 optimisation between [QCUT,QGAM] = [ 10.77, 21.69] = [ 32.49,131.70] Ry 
 Optimized for a Real-space Cutoff    1.46 Angstroem

   l    n(q)    QCUT    max X(q) W(low)/X(q) W(high)/X(q)  e(spline) 
   2      9    10.771     3.903    0.38E-04    0.12E-03    0.82E-07
   2      9    10.771    18.372    0.13E-03    0.32E-03    0.28E-06
   0     10    10.771    13.697    0.11E-04    0.86E-05    0.85E-08
   0     10    10.771    65.529    0.40E-04    0.12E-03    0.14E-06
   1      9    10.771     7.604    0.48E-04    0.31E-04    0.38E-07
   1      9    10.771    12.136    0.35E-03    0.16E-03    0.23E-06
 PAW_PBE C 08Apr2002                    :
 energy of atom  1       EATOM= -147.1560
 kinetic energy error for atom=    0.0116 (will be added to EATOM!!)
 PAW_PBE O 08Apr2002                    :
 energy of atom  2       EATOM= -432.3788
 kinetic energy error for atom=    0.0389 (will be added to EATOM!!)
  PAW_PBE Pt 04Feb2005                  :
 energy of atom  3       EATOM= -729.1182
 kinetic energy error for atom=    0.0051 (will be added to EATOM!!)
 
 
 POSCAR: C    O    Pt                            
  positions in direct lattice
  No initial velocities read in
 exchange correlation table for  LEXCH =        8
   RHO(1)=    0.500       N(1)  =     2000
   RHO(2)=  100.500       N(2)  =     4000

 VTST: version 3.2, (02/03/18)

 CHAIN: initializing optimizer
 
 OPT: Using VASP QUASI-newton optimizer
 CHAIN: Read ICHAIN            0
 
 POSCAR: C    O    Pt                            
  positions in direct lattice
  No initial velocities read in
 


--------------------------------------------------------------------------------------------------------


 ion  position               nearest neighbor table
   1  0.701  0.435  0.472-   3 1.16   2 1.98  36 1.99  39 2.77
   2  0.906  0.384  0.469-   1 1.98  38 2.06  36 2.71  37 2.72
   3  0.672  0.462  0.522-   1 1.16
   4  0.987  0.329  0.074-  15 2.81  16 2.81  12 2.81   5 2.81  11 2.81   6 2.81  18 2.81   8 2.81
                             7 2.81
   5  0.320  0.329  0.074-  13 2.81  10 2.81   4 2.81  12 2.81  16 2.81  17 2.81   8 2.81   9 2.81
                             6 2.81
   6  0.653  0.329  0.074-  14 2.81  18 2.81  11 2.81   4 2.81  17 2.81   7 2.81  10 2.81   9 2.81
                             5 2.81
   7  0.987  0.662  0.074-  18 2.81  21 2.81  19 2.81  12 2.81   8 2.81  10 2.81   9 2.81   6 2.81
                             4 2.81
   8  0.320  0.662  0.074-  16 2.81  19 2.81  10 2.81   7 2.81  20 2.81   4 2.81  11 2.81   5 2.81
                             9 2.81
   9  0.653  0.662  0.074-  17 2.81  20 2.81  21 2.81  11 2.81  12 2.81   7 2.81   6 2.81   5 2.81
                             8 2.81
  10  0.320  0.995  0.074-  13 2.81  19 2.81   5 2.81   8 2.81  12 2.81   7 2.81  14 2.81   6 2.81
                            11 2.81
  11  0.653  0.995  0.074-  14 2.81  20 2.81  15 2.81   9 2.81   6 2.81  12 2.81   4 2.81   8 2.81
                            10 2.81
  12  0.987  0.995  0.074-  15 2.81  21 2.81  13 2.81   7 2.81   4 2.81  10 2.81   5 2.81  11 2.81
                             9 2.81
  13  0.209  0.106  0.179-  26 2.78  25 2.80   5 2.81  10 2.81  12 2.81  19 2.81  15 2.81  21 2.81
                            16 2.81  14 2.81  17 2.81  27 2.83
  14  0.542  0.106  0.179-  26 2.76  11 2.81   6 2.81  20 2.81  15 2.81  10 2.81  18 2.81  19 2.81
                            17 2.81  13 2.81  24 2.81  23 2.86
  15  0.876  0.106  0.179-  25 2.77  12 2.81   4 2.81  11 2.81  21 2.81  13 2.81  14 2.81  20 2.81
                            16 2.81  18 2.81  28 2.82  24 2.84
  16  0.209  0.440  0.179-  25 2.75  29 2.77  22 2.78   8 2.81   4 2.81  19 2.81  18 2.81   5 2.81
                            15 2.81  20 2.81  13 2.81  17 2.81
  17  0.542  0.440  0.179-  26 2.75  29 2.76   9 2.81  20 2.81  21 2.81  18 2.81   6 2.81   5 2.81
                            14 2.81  16 2.81  13 2.81  30 2.89
  18  0.876  0.440  0.179-  22 2.77  24 2.80   7 2.81   6 2.81  21 2.81  19 2.81  16 2.81  17 2.81
                             4 2.81  14 2.81  15 2.81  30 2.85
  19  0.209  0.773  0.179-  22 2.76  10 2.81   8 2.81   7 2.81  16 2.81  13 2.81  21 2.81  18 2.81
                            14 2.81  20 2.81  27 2.82  23 2.87
  20  0.542  0.773  0.179-  29 2.77  28 2.81   9 2.81  11 2.81  17 2.81  14 2.81  15 2.81  21 2.81
                             8 2.81  16 2.81  19 2.81  23 2.88
  21  0.876  0.773  0.179-   7 2.81  12 2.81   9 2.81  18 2.81  15 2.81  19 2.81  13 2.81  17 2.81
                            20 2.81  28 2.82  27 2.82  30 2.88
  22  0.097  0.552  0.282-  30 2.75  19 2.76  18 2.77  25 2.78  16 2.78  27 2.78  31 2.79  24 2.80
                            37 2.81  23 2.82  29 2.83  38 2.94
  23  0.432  0.886  0.287-  35 2.67  31 2.67  32 2.76  27 2.80  26 2.80  28 2.80  24 2.82  22 2.82
                            29 2.84  14 2.86  19 2.87  20 2.88
  24  0.764  0.222  0.284-  30 2.74  26 2.77  22 2.80  18 2.80  25 2.80  14 2.81  23 2.82  15 2.84
                            36 2.85  28 2.85  32 2.87  38 2.87
  25  0.097  0.223  0.282-  16 2.75  15 2.77  22 2.78  38 2.78  29 2.79  13 2.80  24 2.80  34 2.81
                            28 2.84  26 2.85  33 2.87  27 2.87
  26  0.434  0.220  0.281-  17 2.75  14 2.76  24 2.77  13 2.78  36 2.78  29 2.79  30 2.80  23 2.80
                            35 2.83  33 2.84  27 2.84  25 2.85
  27  0.097  0.882  0.285-  34 2.68  35 2.74  22 2.78  30 2.79  37 2.79  23 2.80  19 2.82  21 2.82
                            28 2.82  13 2.83  26 2.84  25 2.87
  28  0.763  0.883  0.284-  34 2.75  29 2.79  23 2.80  20 2.81  15 2.82  21 2.82  27 2.82  32 2.82
                            39 2.84  25 2.84  30 2.85  24 2.85
  29  0.433  0.551  0.282-  31 2.75  17 2.76  20 2.77  16 2.77  26 2.79  25 2.79  28 2.79  22 2.83
                            23 2.84  30 2.84  33 2.89  39 2.89
  30  0.769  0.549  0.288-  24 2.74  36 2.75  22 2.75  37 2.78  39 2.78  27 2.79  26 2.80  29 2.84
                            28 2.85  18 2.85  21 2.88  17 2.89
  31  0.327  0.663  0.384-  23 2.67  32 2.74  29 2.75  37 2.79  35 2.79  22 2.79  39 2.79  33 2.84
                            38 2.87
  32  0.649  0.990  0.390-  31 2.74  23 2.76  35 2.78  39 2.81  28 2.82  38 2.83  24 2.87  34 2.88
                            36 2.90
  33  0.321  0.323  0.390-  36 2.65  38 2.72  34 2.79  35 2.80  39 2.83  31 2.84  26 2.84  25 2.87
                            29 2.89
  34  0.991  0.991  0.384-  27 2.68  38 2.73  28 2.75  35 2.77  37 2.78  33 2.79  39 2.81  25 2.81
                            32 2.88
  35  0.320  0.990  0.386-  23 2.67  37 2.74  27 2.74  36 2.77  34 2.77  32 2.78  31 2.79  33 2.80
                            26 2.83
  36  0.638  0.328  0.389-   1 1.99  33 2.65   2 2.71  39 2.73  30 2.75  35 2.77  26 2.78  24 2.85
                            32 2.90  37 2.93  38 3.05
  37  0.996  0.664  0.389-   2 2.72  35 2.74  30 2.78  34 2.78  31 2.79  27 2.79  22 2.81  39 2.85
                            38 2.92  36 2.93
  38  0.994  0.316  0.391-   2 2.06  33 2.72  34 2.73  25 2.78  32 2.83  31 2.87  24 2.87  37 2.92
                            22 2.94  36 3.05
  39  0.656  0.660  0.391-  36 2.73   1 2.77  30 2.78  31 2.79  34 2.81  32 2.81  33 2.83  28 2.84
                            37 2.85  29 2.89
 

IMPORTANT INFORMATION: All symmetrisations will be switched off!
NOSYMM: (Re-)initialisation of all symmetry stuff for point group C_1.

 
 
 KPOINTS: mesh auto                               

Automatic generation of k-mesh.
Space group operators:
 irot       det(A)        alpha          n_x          n_y          n_z        tau_x        tau_y        tau_z
    1     1.000000     0.000000     1.000000     0.000000     0.000000     0.000000     0.000000     0.000000
 
 Subroutine IBZKPT returns following result:
 ===========================================
 
 Found      4 irreducible k-points:
 
 Following reciprocal coordinates:
            Coordinates               Weight
  0.000000  0.000000  0.000000      1.000000
  0.500000  0.000000  0.000000      1.000000
 -0.000000  0.500000  0.000000      1.000000
  0.500000  0.500000  0.000000      1.000000
 
 Following cartesian coordinates:
            Coordinates               Weight
  0.000000  0.000000  0.000000      1.000000
  0.068522  0.000000  0.000000      1.000000
  0.034261  0.059342  0.000000      1.000000
  0.102783  0.059342  0.000000      1.000000
 


--------------------------------------------------------------------------------------------------------




 Dimension of arrays:
   k-points           NKPTS =      4   k-points in BZ     NKDIM =      4   number of bands    NBANDS=    228
   number of dos      NEDOS =    301   number of ions     NIONS =     39
   non local maximal  LDIM  =      6   non local SUM 2l+1 LMDIM =     18
   total plane-waves  NPLWV = 276480
   max r-space proj   IRMAX =   2756   max aug-charges    IRDMAX=  12646
   dimension x,y,z NGX =    48 NGY =   48 NGZ =  120
   dimension x,y,z NGXF=    96 NGYF=   96 NGZF=  240
   support grid    NGXF=    96 NGYF=   96 NGZF=  240
   ions per type =               1   2  36
   NGX,Y,Z   is equivalent  to a cutoff of   9.47,  9.47,  9.12 a.u.
   NGXF,Y,Z  is equivalent  to a cutoff of  18.94, 18.94, 18.24 a.u.

 SYSTEM =  metal                                   
 POSCAR =  C    O    Pt                            

 Startparameter for this run:
   NWRITE =      2    write-flag & timer
   PREC   = normal    normal or accurate (medium, high low for compatibility)
   ISTART =      0    job   : 0-new  1-cont  2-samecut
   ICHARG =      2    charge: 1-file 2-atom 10-const
   ISPIN  =      1    spin polarized calculation?
   LNONCOLLINEAR =      F non collinear calculations
   LSORBIT =      F    spin-orbit coupling
   INIWAV =      1    electr: 0-lowe 1-rand  2-diag
   LASPH  =      F    aspherical Exc in radial PAW
   METAGGA=      F    non-selfconsistent MetaGGA calc.

 Electronic Relaxation 1
   ENCUT  =  450.0 eV  33.07 Ry    5.75 a.u.  14.57 14.57 37.84*2*pi/ulx,y,z
   ENINI  =  450.0     initial cutoff
   ENAUG  =  644.9 eV  augmentation charge cutoff
   NELM   =     60;   NELMIN=  8; NELMDL= -5     # of ELM steps 
   EDIFF  = 0.1E-03   stopping-criterion for ELM
   LREAL  =      T    real-space projection
   NLSPLINE    = F    spline interpolate recip. space projectors
   LCOMPAT=      F    compatible to vasp.4.4
   GGA_COMPAT  = T    GGA compatible to vasp.4.4-vasp.4.6
   LMAXPAW     = -100 max onsite density
   LMAXMIX     =    2 max onsite mixed and CHGCAR
   VOSKOWN=      0    Vosko Wilk Nusair interpolation
   ROPT   =   -0.00050  -0.00050  -0.00050
 Ionic relaxation
   EDIFFG = -.5E-01   stopping-criterion for IOM
   NSW    =   5000    number of steps for IOM
   NBLOCK =      1;   KBLOCK =   5000    inner block; outer block 
   IBRION =      1    ionic relax: 0-MD 1-quasi-New 2-CG
   NFREE  =      0    steps in history (QN), initial steepest desc. (CG)
   ISIF   =      2    stress and relaxation
   IWAVPR =     11    prediction:  0-non 1-charg 2-wave 3-comb
   ISYM   =      0    0-nonsym 1-usesym 2-fastsym
   LCORR  =      T    Harris-Foulkes like correction to forces

   POTIM  = 0.2000    time-step for ionic-motion
   TEIN   =    0.0    initial temperature
   TEBEG  =    0.0;   TEEND  =   0.0 temperature during run
   SMASS  =  -3.00    Nose mass-parameter (am)
   estimated Nose-frequenzy (Omega)   =  0.10E-29 period in steps =****** mass=  -0.162E-26a.u.
   SCALEE = 1.0000    scale energy and forces
   NPACO  =    256;   APACO  = 16.0  distance and # of slots for P.C.
   PSTRESS=    0.0 pullay stress

  Mass of Ions in am
   POMASS =  12.01 16.00195.08
  Ionic Valenz
   ZVAL   =   4.00  6.00 10.00
  Atomic Wigner-Seitz radii
   RWIGS  =  -1.00 -1.00 -1.00
  virtual crystal weights 
   VCA    =   1.00  1.00  1.00
   NELECT =     376.0000    total number of electrons
   NUPDOWN=      -1.0000    fix difference up-down

 DOS related values:
   EMIN   =  10.00;   EMAX   =-10.00  energy-range for DOS
   EFERMI =   0.00
   ISMEAR =     1;   SIGMA  =   0.20  broadening in eV -4-tet -1-fermi 0-gaus

 Electronic relaxation 2 (details)
   IALGO  =     68    algorithm
   LDIAG  =      T    sub-space diagonalisation (order eigenvalues)
   LSUBROT=      F    optimize rotation matrix (better conditioning)
   TURBO    =      0    0=normal 1=particle mesh
   IRESTART =      0    0=no restart 2=restart with 2 vectors
   NREBOOT  =      0    no. of reboots
   NMIN     =      0    reboot dimension
   EREF     =   0.00    reference energy to select bands
   IMIX   =      4    mixing-type and parameters
     AMIX     =   0.40;   BMIX     =  1.00
     AMIX_MAG =   1.60;   BMIX_MAG =  1.00
     AMIN     =   0.10
     WC   =   100.;   INIMIX=   1;  MIXPRE=   1;  MAXMIX= -45

 Intra band minimization:
   WEIMIN = 0.0010     energy-eigenvalue tresh-hold
   EBREAK =  0.11E-06  absolut break condition
   DEPER  =   0.30     relativ break condition  

   TIME   =   0.40     timestep for ELM

  volume/ion in A,a.u.               =      34.49       232.77
  Fermi-wavevector in a.u.,A,eV,Ry     =   1.070385  2.022734 15.588510  1.145723
  Thomas-Fermi vector in A             =   2.206093
 
 Write flags
   LWAVE        =      F    write WAVECAR
   LDOWNSAMPLE  =      F    k-point downsampling of WAVECAR
   LCHARG       =      F    write CHGCAR
   LVTOT        =      F    write LOCPOT, total local potential
   LVHAR        =      F    write LOCPOT, Hartree potential only
   LELF         =      F    write electronic localiz. function (ELF)
   LORBIT       =      0    0 simple, 1 ext, 2 COOP (PROOUT), +10 PAW based schemes


 Dipole corrections
   LMONO  =      F    monopole corrections only (constant potential shift)
   LDIPOL =      F    correct potential (dipole corrections)
   IDIPOL =      0    1-x, 2-y, 3-z, 4-all directions 
   EPSILON=  1.0000000 bulk dielectric constant

 Exchange correlation treatment:
   GGA     =    --    GGA type
   LEXCH   =     8    internal setting for exchange type
   VOSKOWN=      0    Vosko Wilk Nusair interpolation
   LHFCALC =     F    Hartree Fock is set to
   LHFONE  =     F    Hartree Fock one center treatment
   AEXX    =    0.0000 exact exchange contribution

 Linear response parameters
   LEPSILON=     F    determine dielectric tensor
   LRPA    =     F    only Hartree local field effects (RPA)
   LNABLA  =     F    use nabla operator in PAW spheres
   LVEL    =     F    velocity operator in full k-point grid
   LINTERFAST=   F  fast interpolation
   KINTER  =     0    interpolate to denser k-point grid
   CSHIFT  =0.1000    complex shift for real part using Kramers Kronig
   OMEGAMAX=  -1.0    maximum frequency
   DEG_THRESHOLD= 0.2000000E-02 threshold for treating states as degnerate
   RTIME   =   -0.100 relaxation time in fs
  (WPLASMAI=    0.000 imaginary part of plasma frequency in eV, 0.658/RTIME)
   DFIELD  = 0.0000000 0.0000000 0.0000000 field for delta impulse in time
 
 Orbital magnetization related:
   ORBITALMAG=     F  switch on orbital magnetization
   LCHIMAG   =     F  perturbation theory with respect to B field
   DQ        =  0.001000  dq finite difference perturbation B field
   LLRAUG    =     F  two centre corrections for induced B field



--------------------------------------------------------------------------------------------------------


 quasi-Newton-method for relaxation of ions
   using selective dynamics as specified on POSCAR
 charge density and potential will be updated during run
 non-spin polarized calculation
 RMM-DIIS sequential band-by-band and
  variant of blocked Davidson during initial phase
 perform sub-space diagonalisation
    before iterative eigenvector-optimisation
 modified Broyden-mixing scheme, WC =      100.0
 initial mixing is a Kerker type mixing with AMIX =  0.4000 and BMIX =      1.0000
 Hartree-type preconditioning will be used
 using additional bands           40
 real space projection scheme for non local part
 use partial core corrections
 calculate Harris-corrections to forces 
   (improved forces if not selfconsistent)
 use gradient corrections 
 use of overlap-Matrix (Vanderbilt PP)
 Methfessel and Paxton  Order N= 1 SIGMA  =   0.20


--------------------------------------------------------------------------------------------------------


  energy-cutoff  :      450.00
  volume of cell :     1345.22
      direct lattice vectors                 reciprocal lattice vectors
     7.296955120 -4.212899000  0.000000000     0.137043463  0.000000000  0.000000000
     0.000000000  8.425798000  0.000000000     0.068521732  0.118683121  0.000000000
     0.000000000  0.000000000 21.879635000     0.000000000  0.000000000  0.045704602

  length of vectors
     8.425798004  8.425798000 21.879635000     0.137043463  0.137043463  0.045704602


 
 k-points in units of 2pi/SCALE and weight: mesh auto                               
   0.00000000  0.00000000  0.00000000       0.250
   0.06852173  0.00000000  0.00000000       0.250
   0.03426087  0.05934156  0.00000000       0.250
   0.10278260  0.05934156  0.00000000       0.250
 
 k-points in reciprocal lattice and weights: mesh auto                               
   0.00000000  0.00000000  0.00000000       0.250
   0.50000000  0.00000000  0.00000000       0.250
  -0.00000000  0.50000000  0.00000000       0.250
   0.50000000  0.50000000  0.00000000       0.250
 
 position of ions in fractional coordinates (direct lattice) 
   0.70053925  0.43511279  0.47249918
   0.90563748  0.38359484  0.46926267
   0.67240271  0.46196868  0.52238771
   0.98675500  0.32859100  0.07437600
   0.32008800  0.32859100  0.07437600
   0.65342200  0.32859100  0.07437600
   0.98675500  0.66192500  0.07437600
   0.32008800  0.66192500  0.07437600
   0.65342200  0.66192500  0.07437600
   0.32008800  0.99525800  0.07437600
   0.65342200  0.99525800  0.07437600
   0.98675500  0.99525800  0.07437600
   0.20897700  0.10636900  0.17918600
   0.54231100  0.10636900  0.17918600
   0.87564400  0.10636900  0.17918600
   0.20897700  0.43970300  0.17918600
   0.54231100  0.43970300  0.17918600
   0.87564400  0.43970300  0.17918600
   0.20897700  0.77303600  0.17918600
   0.54231100  0.77303600  0.17918600
   0.87564400  0.77303600  0.17918600
   0.09717599  0.55245659  0.28182901
   0.43153493  0.88630489  0.28728414
   0.76408436  0.22192724  0.28437603
   0.09740807  0.22311354  0.28181830
   0.43424899  0.22008834  0.28146041
   0.09705669  0.88232195  0.28472083
   0.76291805  0.88348734  0.28430449
   0.43272610  0.55064840  0.28161342
   0.76921977  0.54912224  0.28753865
   0.32659566  0.66297888  0.38387175
   0.64934548  0.98989067  0.39028925
   0.32082358  0.32306452  0.38953617
   0.99105021  0.99072372  0.38443679
   0.31975058  0.99045766  0.38572979
   0.63809815  0.32816396  0.38881567
   0.99646369  0.66352389  0.38930586
   0.99399996  0.31595208  0.39063370
   0.65623697  0.66024007  0.39056973
 
 position of ions in cartesian coordinates  (Angst):
   5.11180348  0.71487140 10.33810949
   6.60839608 -0.58326665 10.26729596
   4.90649237  1.05969006 11.42965236
   7.20030695 -1.38845776  1.62731973
   2.33566777  1.42014298  1.62731973
   4.76799101  0.01584050  1.62731973
   7.20030695  1.42014719  1.62731973
   2.33566777  4.22874793  1.62731973
   4.76799101  2.82444545  1.62731973
   2.33566777  7.03734445  1.62731973
   4.76799101  5.63304198  1.62731973
   7.20030695  4.22874371  1.62731973
   1.52489579  0.01584471  3.92052428
   3.95721903 -1.38845776  3.92052428
   6.38953497 -2.79275602  3.92052428
   1.52489579  2.82444966  3.92052428
   3.95721903  1.42014719  3.92052428
   6.38953497  0.01584893  3.92052428
   1.52489579  5.63304619  3.92052428
   3.95721903  4.22874371  3.92052428
   6.38953497  2.82444545  3.92052428
   0.70908884  4.24549501  6.16631597
   3.14889102  5.64981290  6.28567217
   5.57548927 -1.34909613  6.22204374
   0.71078228  1.46953930  6.16608148
   3.16869540  0.02497274  6.15825108
   0.70821830  7.02537648  6.22958790
   5.56697878  4.22998919  6.22047846
   3.15758295  2.81662084  6.16159876
   5.61296214  1.38614790  6.29124078
   2.38315388  4.21021156  8.39897384
   4.73824484  5.60499190  8.53938640
   2.34103529  1.37047899  8.52290925
   7.23164890  4.17244354  8.41133670
   2.33320566  6.99831929  8.43962711
   4.65617354  0.07680021  8.50714488
   7.27115081  1.39271737  8.51787016
   7.25317313 -1.52547305  8.54692282
   4.78853172  2.79838940  8.54552315
 


--------------------------------------------------------------------------------------------------------


 k-point  1 :   0.0000 0.0000 0.0000  plane waves:   29241
 k-point  2 :   0.5000 0.0000 0.0000  plane waves:   29108
 k-point  3 :  -0.0000 0.5000 0.0000  plane waves:   29108
 k-point  4 :   0.5000 0.5000 0.0000  plane waves:   29108

 maximum and minimum number of plane-waves per node :     14624    14548

 maximum number of plane-waves:     29241
 maximum index in each direction: 
   IXMAX=   14   IYMAX=   14   IZMAX=   37
   IXMIN=  -15   IYMIN=  -15   IZMIN=  -37


 real space projection operators:
  total allocation   :      13557.48 KBytes
  max/ min on nodes  :       6790.59       6766.89


 parallel 3D FFT for wavefunctions:
    minimum data exchange during FFTs selected (reduces bandwidth)
 parallel 3D FFT for charge:
    minimum data exchange during FFTs selected (reduces bandwidth)


 total amount of memory used by VASP MPI-rank0   131958. kBytes
=======================================================================

   base      :      30000. kBytes
   nonlr-proj:      10150. kBytes
   fftplans  :      13556. kBytes
   grid      :      23353. kBytes
   one-center:        311. kBytes
   wavefun   :      54588. kBytes
 
     INWAV:  cpu time    0.0001: real time    0.0050
 Broyden mixing: mesh for mixing (old mesh)
   NGX = 29   NGY = 29   NGZ = 75
  (NGX  = 96   NGY  = 96   NGZ  =240)
  gives a total of  63075 points

 initial charge density was supplied:
 charge density of overlapping atoms calculated
 number of electron     376.0000000 magnetization 
 keeping initial charge density in first step


--------------------------------------------------------------------------------------------------------


 Maximum index for non-local projection operator         1321
 Maximum index for augmentation-charges         1558 (set IRDMAX)


--------------------------------------------------------------------------------------------------------


 First call to EWALD:  gamma=   0.161
 Maximum number of real-space cells 4x 4x 2
 Maximum number of reciprocal cells 2x 2x 5

    FEWALD:  cpu time    0.0024: real time    0.0025


--------------------------------------- Iteration      1(   1)  ---------------------------------------


    POTLOK:  cpu time    0.1803: real time    0.2630
    SETDIJ:  cpu time    0.0126: real time    0.0126
     EDDAV:  cpu time   11.3308: real time   11.4422
       DOS:  cpu time    0.0011: real time    0.6813
    --------------------------------------------
      LOOP:  cpu time   11.5248: real time   12.3992

 eigenvalue-minimisations  :  1824
 total energy-change (2. order) : 0.2419897E+04  (-0.1595243E+05)
 number of electron     376.0000000 magnetization 
 augmentation part      376.0000000 magnetization 

 Free energy of the ion-electron system (eV)
  ---------------------------------------------------
  alpha Z        PSCENC =       975.10247152
  Ewald energy   TEWEN  =     91457.93754298
  -Hartree energ DENC   =   -120549.22750897
  -exchange      EXHF   =         0.00000000
  -V(xc)+E(xc)   XCENC  =       189.59799685
  PAW double counting   =     24789.08602224   -23775.73976456
  entropy T*S    EENTRO =        -0.01770428
  eigenvalues    EBANDS =      2073.26390909
  atomic energy  EATOM  =     27259.89416086
  Solvation  Ediel_sol  =         0.00000000
  ---------------------------------------------------
  free energy    TOTEN  =      2419.89712574 eV

  energy without entropy =     2419.91483001  energy(sigma->0) =     2419.90302716


--------------------------------------------------------------------------------------------------------




--------------------------------------- Iteration      1(   2)  ---------------------------------------


     EDDAV:  cpu time   12.8461: real time   12.9428
       DOS:  cpu time    0.0012: real time    0.0012
    --------------------------------------------
      LOOP:  cpu time   12.8473: real time   12.9440

 eigenvalue-minimisations  :  2144
 total energy-change (2. order) :-0.2487020E+04  (-0.2310760E+04)
 number of electron     376.0000000 magnetization 
 augmentation part      376.0000000 magnetization 

 Free energy of the ion-electron system (eV)
  ---------------------------------------------------
  alpha Z        PSCENC =       975.10247152
  Ewald energy   TEWEN  =     91457.93754298
  -Hartree energ DENC   =   -120549.22750897
  -exchange      EXHF   =         0.00000000
  -V(xc)+E(xc)   XCENC  =       189.59799685
  PAW double counting   =     24789.08602224   -23775.73976456
  entropy T*S    EENTRO =         0.00249539
  eigenvalues    EBANDS =      -413.77601297
  atomic energy  EATOM  =     27259.89416086
  Solvation  Ediel_sol  =         0.00000000
  ---------------------------------------------------
  free energy    TOTEN  =       -67.12259666 eV

  energy without entropy =      -67.12509205  energy(sigma->0) =      -67.12342846


--------------------------------------------------------------------------------------------------------




--------------------------------------- Iteration      1(   3)  ---------------------------------------


     EDDAV:  cpu time   13.0505: real time   13.1987
       DOS:  cpu time    0.0012: real time    0.0012
    --------------------------------------------
      LOOP:  cpu time   13.0517: real time   13.1999

 eigenvalue-minimisations  :  2160
 total energy-change (2. order) :-0.1742029E+03  (-0.1586756E+03)
 number of electron     376.0000000 magnetization 
 augmentation part      376.0000000 magnetization 

 Free energy of the ion-electron system (eV)
  ---------------------------------------------------
  alpha Z        PSCENC =       975.10247152
  Ewald energy   TEWEN  =     91457.93754298
  -Hartree energ DENC   =   -120549.22750897
  -exchange      EXHF   =         0.00000000
  -V(xc)+E(xc)   XCENC  =       189.59799685
  PAW double counting   =     24789.08602224   -23775.73976456
  entropy T*S    EENTRO =        -0.00068550
  eigenvalues    EBANDS =      -587.97577516
  atomic energy  EATOM  =     27259.89416086
  Solvation  Ediel_sol  =         0.00000000
  ---------------------------------------------------
  free energy    TOTEN  =      -241.32553974 eV

  energy without entropy =     -241.32485424  energy(sigma->0) =     -241.32531124


--------------------------------------------------------------------------------------------------------




--------------------------------------- Iteration      1(   4)  ---------------------------------------


     EDDAV:  cpu time   13.9933: real time   14.0939
       DOS:  cpu time    0.0011: real time    0.0011
    --------------------------------------------
      LOOP:  cpu time   13.9945: real time   14.0951

 eigenvalue-minimisations  :  2336
 total energy-change (2. order) :-0.7302339E+01  (-0.7050434E+01)
 number of electron     376.0000000 magnetization 
 augmentation part      376.0000000 magnetization 

 Free energy of the ion-electron system (eV)
  ---------------------------------------------------
  alpha Z        PSCENC =       975.10247152
  Ewald energy   TEWEN  =     91457.93754298
  -Hartree energ DENC   =   -120549.22750897
  -exchange      EXHF   =         0.00000000
  -V(xc)+E(xc)   XCENC  =       189.59799685
  PAW double counting   =     24789.08602224   -23775.73976456
  entropy T*S    EENTRO =         0.00293873
  eigenvalues    EBANDS =      -595.28173813
  atomic energy  EATOM  =     27259.89416086
  Solvation  Ediel_sol  =         0.00000000
  ---------------------------------------------------
  free energy    TOTEN  =      -248.62787848 eV

  energy without entropy =     -248.63081721  energy(sigma->0) =     -248.62885805


--------------------------------------------------------------------------------------------------------




--------------------------------------- Iteration      1(   5)  ---------------------------------------


     EDDAV:  cpu time   14.3822: real time   14.4841
       DOS:  cpu time    0.0011: real time    0.0011
    CHARGE:  cpu time    0.7274: real time    0.7325
    MIXING:  cpu time    0.0089: real time    0.0089
    --------------------------------------------
      LOOP:  cpu time   15.1196: real time   15.2267

 eigenvalue-minimisations  :  2392
 total energy-change (2. order) :-0.2229650E+00  (-0.2209325E+00)
 number of electron     376.0000043 magnetization 
 augmentation part      105.7880623 magnetization 

 Broyden mixing:
  rms(total) = 0.27389E+01    rms(broyden)= 0.27385E+01
  rms(prec ) = 0.30568E+01
  weight for this iteration     100.00

 Free energy of the ion-electron system (eV)
  ---------------------------------------------------
  alpha Z        PSCENC =       975.10247152
  Ewald energy   TEWEN  =     91457.93754298
  -Hartree energ DENC   =   -120549.22750897
  -exchange      EXHF   =         0.00000000
  -V(xc)+E(xc)   XCENC  =       189.59799685
  PAW double counting   =     24789.08602224   -23775.73976456
  entropy T*S    EENTRO =         0.00300887
  eigenvalues    EBANDS =      -595.50477325
  atomic energy  EATOM  =     27259.89416086
  Solvation  Ediel_sol  =         0.00000000
  ---------------------------------------------------
  free energy    TOTEN  =      -248.85084346 eV

  energy without entropy =     -248.85385233  energy(sigma->0) =     -248.85184642


--------------------------------------------------------------------------------------------------------




--------------------------------------- Iteration      1(   6)  ---------------------------------------


    POTLOK:  cpu time    0.1727: real time    0.1750
    SETDIJ:  cpu time    0.0121: real time    0.0123
    EDDIAG:  cpu time    1.9965: real time    2.0161
  RMM-DIIS:  cpu time    7.0043: real time    7.0643
    ORTHCH:  cpu time    0.2645: real time    0.2679
       DOS:  cpu time    0.0013: real time    1.6410
    CHARGE:  cpu time    0.5453: real time    0.5540
    MIXING:  cpu time    0.0082: real time    0.0083
    --------------------------------------------
      LOOP:  cpu time   10.0049: real time   11.7388

 eigenvalue-minimisations  :  1832
 total energy-change (2. order) : 0.2149453E+01  (-0.5435661E+01)
 number of electron     376.0000039 magnetization 
 augmentation part      113.0363558 magnetization 

 Broyden mixing:
  rms(total) = 0.30470E+01    rms(broyden)= 0.30460E+01
  rms(prec ) = 0.40386E+01
  weight for this iteration     100.00

 eigenvalues of (default mixing * dielectric matrix)
  average eigenvalue GAMMA=   0.4759
  0.4759

 Free energy of the ion-electron system (eV)
  ---------------------------------------------------
  alpha Z        PSCENC =       975.10247152
  Ewald energy   TEWEN  =     91457.93754298
  -Hartree energ DENC   =   -120078.91459407
  -exchange      EXHF   =         0.00000000
  -V(xc)+E(xc)   XCENC  =       182.50028777
  PAW double counting   =     26713.18711417   -25753.50856003
  entropy T*S    EENTRO =        -0.14628699
  eigenvalues    EBANDS =     -1002.75352618
  atomic energy  EATOM  =     27259.89416086
  Solvation  Ediel_sol  =         0.00000000
  ---------------------------------------------------
  free energy    TOTEN  =      -246.70138997 eV

  energy without entropy =     -246.55510298  energy(sigma->0) =     -246.65262764


--------------------------------------------------------------------------------------------------------




--------------------------------------- Iteration      1(   7)  ---------------------------------------


    POTLOK:  cpu time    0.1637: real time    0.1662
    SETDIJ:  cpu time    0.0123: real time    0.0123
    EDDIAG:  cpu time    1.9129: real time    1.9394
  RMM-DIIS:  cpu time    6.7847: real time    6.8814
    ORTHCH:  cpu time    0.2652: real time    0.2689
       DOS:  cpu time    0.0013: real time    0.0013
    CHARGE:  cpu time    0.6709: real time    0.6795
    MIXING:  cpu time    0.0071: real time    0.0072
    --------------------------------------------
      LOOP:  cpu time    9.8180: real time    9.9563

 eigenvalue-minimisations  :  1830
 total energy-change (2. order) : 0.4939037E+01  (-0.3302513E+01)
 number of electron     376.0000054 magnetization 
 augmentation part      111.3394078 magnetization 

 Broyden mixing:
  rms(total) = 0.19896E+01    rms(broyden)= 0.19887E+01
  rms(prec ) = 0.32156E+01
  weight for this iteration     100.00

 eigenvalues of (default mixing * dielectric matrix)
  average eigenvalue GAMMA=   0.6028
  0.9523  0.2533

 Free energy of the ion-electron system (eV)
  ---------------------------------------------------
  alpha Z        PSCENC =       975.10247152
  Ewald energy   TEWEN  =     91457.93754298
  -Hartree energ DENC   =   -120279.64817183
  -exchange      EXHF   =         0.00000000
  -V(xc)+E(xc)   XCENC  =       180.11977502
  PAW double counting   =     27353.67091513   -26401.06461289
  entropy T*S    EENTRO =        -0.10134605
  eigenvalues    EBANDS =      -787.67308745
  atomic energy  EATOM  =     27259.89416086
  Solvation  Ediel_sol  =         0.00000000
  ---------------------------------------------------
  free energy    TOTEN  =      -241.76235270 eV

  energy without entropy =     -241.66100665  energy(sigma->0) =     -241.72857068


--------------------------------------------------------------------------------------------------------




--------------------------------------- Iteration      1(   8)  ---------------------------------------


    POTLOK:  cpu time    0.1714: real time    0.1740
    SETDIJ:  cpu time    0.0116: real time    0.0117
    EDDIAG:  cpu time    1.9259: real time    1.9532
  RMM-DIIS:  cpu time    6.7126: real time    6.8098
    ORTHCH:  cpu time    0.2596: real time    0.2629
       DOS:  cpu time    0.0013: real time    0.0013
    CHARGE:  cpu time    0.7019: real time    0.7104
    MIXING:  cpu time    0.0058: real time    0.0058
    --------------------------------------------
      LOOP:  cpu time    9.7901: real time    9.9291

 eigenvalue-minimisations  :  1828
 total energy-change (2. order) :-0.4066566E+01  (-0.9371963E+00)
 number of electron     376.0000041 magnetization 
 augmentation part      112.0329489 magnetization 

 Broyden mixing:
  rms(total) = 0.23259E+01    rms(broyden)= 0.23258E+01
  rms(prec ) = 0.42999E+01
  weight for this iteration     100.00

 eigenvalues of (default mixing * dielectric matrix)
  average eigenvalue GAMMA=   0.5467
  1.2065  0.2863  0.1474

 Free energy of the ion-electron system (eV)
  ---------------------------------------------------
  alpha Z        PSCENC =       975.10247152
  Ewald energy   TEWEN  =     91457.93754298
  -Hartree energ DENC   =   -120223.86404618
  -exchange      EXHF   =         0.00000000
  -V(xc)+E(xc)   XCENC  =       179.04748647
  PAW double counting   =     28014.26972083   -27072.18708587
  entropy T*S    EENTRO =        -0.12575150
  eigenvalues    EBANDS =      -835.90341772
  atomic energy  EATOM  =     27259.89416086
  Solvation  Ediel_sol  =         0.00000000
  ---------------------------------------------------
  free energy    TOTEN  =      -245.82891861 eV

  energy without entropy =     -245.70316711  energy(sigma->0) =     -245.78700144


--------------------------------------------------------------------------------------------------------




--------------------------------------- Iteration      1(   9)  ---------------------------------------


    POTLOK:  cpu time    0.1674: real time    0.1689
    SETDIJ:  cpu time    0.0109: real time    0.0112
    EDDIAG:  cpu time    1.9567: real time    1.9755
  RMM-DIIS:  cpu time    6.9903: real time    7.0581
    ORTHCH:  cpu time    0.2729: real time    0.2748
       DOS:  cpu time    0.0013: real time    0.0013
    CHARGE:  cpu time    0.7637: real time    0.7687
    MIXING:  cpu time    0.0065: real time    0.0065
    --------------------------------------------
      LOOP:  cpu time   10.1697: real time   10.2651

 eigenvalue-minimisations  :  1832
 total energy-change (2. order) : 0.1402425E+02  (-0.4543135E+00)
 number of electron     376.0000045 magnetization 
 augmentation part      112.6320455 magnetization 

 Broyden mixing:
  rms(total) = 0.86409E+00    rms(broyden)= 0.86382E+00
  rms(prec ) = 0.11597E+01
  weight for this iteration     100.00

 eigenvalues of (default mixing * dielectric matrix)
  average eigenvalue GAMMA=   0.5309
  1.3070  0.3433  0.3433  0.1299

 Free energy of the ion-electron system (eV)
  ---------------------------------------------------
  alpha Z        PSCENC =       975.10247152
  Ewald energy   TEWEN  =     91457.93754298
  -Hartree energ DENC   =   -120179.92092704
  -exchange      EXHF   =         0.00000000
  -V(xc)+E(xc)   XCENC  =       178.40390271
  PAW double counting   =     28708.34201114   -27777.18909885
  entropy T*S    EENTRO =        -0.03750086
  eigenvalues    EBANDS =      -854.33722836
  atomic energy  EATOM  =     27259.89416086
  Solvation  Ediel_sol  =         0.00000000
  ---------------------------------------------------
  free energy    TOTEN  =      -231.80466589 eV

  energy without entropy =     -231.76716503  energy(sigma->0) =     -231.79216560


--------------------------------------------------------------------------------------------------------




--------------------------------------- Iteration      1(  10)  ---------------------------------------


    POTLOK:  cpu time    0.1661: real time    0.1673
    SETDIJ:  cpu time    0.0125: real time    0.0126
    EDDIAG:  cpu time    1.9723: real time    1.9868
  RMM-DIIS:  cpu time    6.8921: real time    6.9424
    ORTHCH:  cpu time    0.2664: real time    0.2682
       DOS:  cpu time    0.0014: real time    0.0145
    CHARGE:  cpu time    0.6966: real time    0.7014
    MIXING:  cpu time    0.0066: real time    0.0067
    --------------------------------------------
      LOOP:  cpu time   10.0140: real time   10.0999

 eigenvalue-minimisations  :  1831
 total energy-change (2. order) : 0.1069288E+01  (-0.1406204E+00)
 number of electron     376.0000044 magnetization 
 augmentation part      112.7506569 magnetization 

 Broyden mixing:
  rms(total) = 0.53698E+00    rms(broyden)= 0.53693E+00
  rms(prec ) = 0.70922E+00
  weight for this iteration     100.00

 eigenvalues of (default mixing * dielectric matrix)
  average eigenvalue GAMMA=   0.5569
  1.4142  0.5685  0.1329  0.4030  0.2659

 Free energy of the ion-electron system (eV)
  ---------------------------------------------------
  alpha Z        PSCENC =       975.10247152
  Ewald energy   TEWEN  =     91457.93754298
  -Hartree energ DENC   =   -120170.53437553
  -exchange      EXHF   =         0.00000000
  -V(xc)+E(xc)   XCENC  =       178.32512817
  PAW double counting   =     29013.78524691   -28086.85936306
  entropy T*S    EENTRO =         0.01010656
  eigenvalues    EBANDS =      -858.39629652
  atomic energy  EATOM  =     27259.89416086
  Solvation  Ediel_sol  =         0.00000000
  ---------------------------------------------------
  free energy    TOTEN  =      -230.73537810 eV

  energy without entropy =     -230.74548465  energy(sigma->0) =     -230.73874695


--------------------------------------------------------------------------------------------------------




--------------------------------------- Iteration      1(  11)  ---------------------------------------


    POTLOK:  cpu time    0.1751: real time    0.1768
    SETDIJ:  cpu time    0.0112: real time    0.0113
    EDDIAG:  cpu time    1.9783: real time    1.9929
  RMM-DIIS:  cpu time    6.9160: real time    6.9730
    ORTHCH:  cpu time    0.2582: real time    0.2602
       DOS:  cpu time    0.0013: real time    0.0013
    CHARGE:  cpu time    0.7491: real time    0.7547
    MIXING:  cpu time    0.0076: real time    0.0077
    --------------------------------------------
      LOOP:  cpu time   10.0969: real time   10.1778

 eigenvalue-minimisations  :  1832
 total energy-change (2. order) : 0.4177919E+00  (-0.4545831E-01)
 number of electron     376.0000043 magnetization 
 augmentation part      112.9106457 magnetization 

 Broyden mixing:
  rms(total) = 0.31323E+00    rms(broyden)= 0.31295E+00
  rms(prec ) = 0.40522E+00
  weight for this iteration     100.00

 eigenvalues of (default mixing * dielectric matrix)
  average eigenvalue GAMMA=   0.5791
  1.5337  0.8152  0.3801  0.3801  0.1318  0.2339

 Free energy of the ion-electron system (eV)
  ---------------------------------------------------
  alpha Z        PSCENC =       975.10247152
  Ewald energy   TEWEN  =     91457.93754298
  -Hartree energ DENC   =   -120159.23700728
  -exchange      EXHF   =         0.00000000
  -V(xc)+E(xc)   XCENC  =       178.33213388
  PAW double counting   =     29321.83516686   -28398.88978552
  entropy T*S    EENTRO =        -0.02733357
  eigenvalues    EBANDS =      -865.26493598
  atomic energy  EATOM  =     27259.89416086
  Solvation  Ediel_sol  =         0.00000000
  ---------------------------------------------------
  free energy    TOTEN  =      -230.31758624 eV

  energy without entropy =     -230.29025267  energy(sigma->0) =     -230.30847505


--------------------------------------------------------------------------------------------------------




--------------------------------------- Iteration      1(  12)  ---------------------------------------


    POTLOK:  cpu time    0.1717: real time    0.1731
    SETDIJ:  cpu time    0.0111: real time    0.0112
    EDDIAG:  cpu time    2.0029: real time    2.0180
  RMM-DIIS:  cpu time    6.9954: real time    7.0477
    ORTHCH:  cpu time    0.2638: real time    0.2655
       DOS:  cpu time    0.0012: real time    0.0012
    CHARGE:  cpu time    0.7318: real time    0.7366
    MIXING:  cpu time    0.0062: real time    0.0062
    --------------------------------------------
      LOOP:  cpu time   10.1842: real time   10.2594

 eigenvalue-minimisations  :  1849
 total energy-change (2. order) : 0.1445119E+00  (-0.1757272E-01)
 number of electron     376.0000042 magnetization 
 augmentation part      112.9742519 magnetization 

 Broyden mixing:
  rms(total) = 0.20702E+00    rms(broyden)= 0.20697E+00
  rms(prec ) = 0.25506E+00
  weight for this iteration     100.00

 eigenvalues of (default mixing * dielectric matrix)
  average eigenvalue GAMMA=   0.6558
  1.7780  1.0138  0.6609  0.4720  0.1321  0.2807  0.2531

 Free energy of the ion-electron system (eV)
  ---------------------------------------------------
  alpha Z        PSCENC =       975.10247152
  Ewald energy   TEWEN  =     91457.93754298
  -Hartree energ DENC   =   -120148.72290784
  -exchange      EXHF   =         0.00000000
  -V(xc)+E(xc)   XCENC  =       178.29855105
  PAW double counting   =     29546.31713248   -28626.11983223
  entropy T*S    EENTRO =        -0.02002162
  eigenvalues    EBANDS =      -872.86017154
  atomic energy  EATOM  =     27259.89416086
  Solvation  Ediel_sol  =         0.00000000
  ---------------------------------------------------
  free energy    TOTEN  =      -230.17307433 eV

  energy without entropy =     -230.15305271  energy(sigma->0) =     -230.16640045


--------------------------------------------------------------------------------------------------------




--------------------------------------- Iteration      1(  13)  ---------------------------------------


    POTLOK:  cpu time    0.1729: real time    0.1740
    SETDIJ:  cpu time    0.0126: real time    0.0127
    EDDIAG:  cpu time    1.9952: real time    2.0093
  RMM-DIIS:  cpu time    7.0649: real time    7.1180
    ORTHCH:  cpu time    0.2582: real time    0.2598
       DOS:  cpu time    0.0012: real time    0.0237
    CHARGE:  cpu time    0.6494: real time    0.6546
    MIXING:  cpu time    0.0077: real time    0.0078
    --------------------------------------------
      LOOP:  cpu time   10.1620: real time   10.2598

 eigenvalue-minimisations  :  1830
 total energy-change (2. order) : 0.1029872E-01  (-0.1214469E-01)
 number of electron     376.0000042 magnetization 
 augmentation part      112.9731480 magnetization 

 Broyden mixing:
  rms(total) = 0.17979E+00    rms(broyden)= 0.17978E+00
  rms(prec ) = 0.21889E+00
  weight for this iteration     100.00

 eigenvalues of (default mixing * dielectric matrix)
  average eigenvalue GAMMA=   0.6901
  1.9976  1.0987  0.9702  0.1321  0.4034  0.4034  0.2812  0.2345

 Free energy of the ion-electron system (eV)
  ---------------------------------------------------
  alpha Z        PSCENC =       975.10247152
  Ewald energy   TEWEN  =     91457.93754298
  -Hartree energ DENC   =   -120147.36771179
  -exchange      EXHF   =         0.00000000
  -V(xc)+E(xc)   XCENC  =       178.19164960
  PAW double counting   =     29799.92520254   -28882.73699943
  entropy T*S    EENTRO =        -0.01666522
  eigenvalues    EBANDS =      -871.09242668
  atomic energy  EATOM  =     27259.89416086
  Solvation  Ediel_sol  =         0.00000000
  ---------------------------------------------------
  free energy    TOTEN  =      -230.16277560 eV

  energy without entropy =     -230.14611039  energy(sigma->0) =     -230.15722053


--------------------------------------------------------------------------------------------------------




--------------------------------------- Iteration      1(  14)  ---------------------------------------


    POTLOK:  cpu time    0.1741: real time    0.1754
    SETDIJ:  cpu time    0.0114: real time    0.0115
    EDDIAG:  cpu time    1.9404: real time    1.9541
  RMM-DIIS:  cpu time    6.7276: real time    6.7776
    ORTHCH:  cpu time    0.2550: real time    0.2565
       DOS:  cpu time    0.0013: real time    0.0013
    CHARGE:  cpu time    0.6894: real time    0.6940
    MIXING:  cpu time    0.0066: real time    0.0067
    --------------------------------------------
      LOOP:  cpu time    9.8059: real time    9.8771

 eigenvalue-minimisations  :  1832
 total energy-change (2. order) : 0.4241128E-01  (-0.8340038E-02)
 number of electron     376.0000043 magnetization 
 augmentation part      112.9537962 magnetization 

 Broyden mixing:
  rms(total) = 0.79532E-01    rms(broyden)= 0.79516E-01
  rms(prec ) = 0.97273E-01
  weight for this iteration     100.00

 eigenvalues of (default mixing * dielectric matrix)
  average eigenvalue GAMMA=   0.7502
  2.5037  1.3084  0.8215  0.7241  0.4328  0.1321  0.3279  0.2680  0.2337

 Free energy of the ion-electron system (eV)
  ---------------------------------------------------
  alpha Z        PSCENC =       975.10247152
  Ewald energy   TEWEN  =     91457.93754298
  -Hartree energ DENC   =   -120151.19645649
  -exchange      EXHF   =         0.00000000
  -V(xc)+E(xc)   XCENC  =       178.11973175
  PAW double counting   =     29961.43068473   -29046.09489816
  entropy T*S    EENTRO =        -0.00939289
  eigenvalues    EBANDS =      -865.30420863
  atomic energy  EATOM  =     27259.89416086
  Solvation  Ediel_sol  =         0.00000000
  ---------------------------------------------------
  free energy    TOTEN  =      -230.12036432 eV

  energy without entropy =     -230.11097143  energy(sigma->0) =     -230.11723336


--------------------------------------------------------------------------------------------------------




--------------------------------------- Iteration      1(  15)  ---------------------------------------


    POTLOK:  cpu time    0.1689: real time    0.1702
    SETDIJ:  cpu time    0.0131: real time    0.0132
    EDDIAG:  cpu time    1.9316: real time    1.9455
  RMM-DIIS:  cpu time    6.6157: real time    6.6641
    ORTHCH:  cpu time    0.2621: real time    0.2636
       DOS:  cpu time    0.0013: real time    0.0013
    CHARGE:  cpu time    0.7254: real time    0.7308
    MIXING:  cpu time    0.0077: real time    0.0077
    --------------------------------------------
      LOOP:  cpu time    9.7258: real time    9.7963

 eigenvalue-minimisations  :  1830
 total energy-change (2. order) : 0.5352285E-02  (-0.3072702E-02)
 number of electron     376.0000043 magnetization 
 augmentation part      112.9581261 magnetization 

 Broyden mixing:
  rms(total) = 0.58467E-01    rms(broyden)= 0.58450E-01
  rms(prec ) = 0.70699E-01
  weight for this iteration     100.00

 eigenvalues of (default mixing * dielectric matrix)
  average eigenvalue GAMMA=   0.7216
  2.5587  1.2957  0.8058  0.8058  0.1321  0.4095  0.4095  0.2971  0.2698  0.2327

 Free energy of the ion-electron system (eV)
  ---------------------------------------------------
  alpha Z        PSCENC =       975.10247152
  Ewald energy   TEWEN  =     91457.93754298
  -Hartree energ DENC   =   -120149.43865136
  -exchange      EXHF   =         0.00000000
  -V(xc)+E(xc)   XCENC  =       178.09177702
  PAW double counting   =     30082.69286580   -29168.68590577
  entropy T*S    EENTRO =        -0.00901126
  eigenvalues    EBANDS =      -865.70026183
  atomic energy  EATOM  =     27259.89416086
  Solvation  Ediel_sol  =         0.00000000
  ---------------------------------------------------
  free energy    TOTEN  =      -230.11501204 eV

  energy without entropy =     -230.10600078  energy(sigma->0) =     -230.11200828


--------------------------------------------------------------------------------------------------------




--------------------------------------- Iteration      1(  16)  ---------------------------------------


    POTLOK:  cpu time    0.1719: real time    0.1731
    SETDIJ:  cpu time    0.0116: real time    0.0117
    EDDIAG:  cpu time    1.9535: real time    1.9670
  RMM-DIIS:  cpu time    6.7243: real time    6.7735
    ORTHCH:  cpu time    0.2537: real time    0.2552
       DOS:  cpu time    0.0013: real time    0.0013
    CHARGE:  cpu time    0.7092: real time    0.7142
    MIXING:  cpu time    0.0080: real time    0.0080
    --------------------------------------------
      LOOP:  cpu time    9.8334: real time    9.9041

 eigenvalue-minimisations  :  1831
 total energy-change (2. order) : 0.4619942E-02  (-0.7769985E-03)
 number of electron     376.0000043 magnetization 
 augmentation part      112.9621213 magnetization 

 Broyden mixing:
  rms(total) = 0.29435E-01    rms(broyden)= 0.29425E-01
  rms(prec ) = 0.36513E-01
  weight for this iteration     100.00

 eigenvalues of (default mixing * dielectric matrix)
  average eigenvalue GAMMA=   0.7022
  2.5341  1.2731  0.8418  0.8418  0.5542  0.4535  0.1321  0.3093  0.2955  0.2331
  0.2554

 Free energy of the ion-electron system (eV)
  ---------------------------------------------------
  alpha Z        PSCENC =       975.10247152
  Ewald energy   TEWEN  =     91457.93754298
  -Hartree energ DENC   =   -120150.12886649
  -exchange      EXHF   =         0.00000000
  -V(xc)+E(xc)   XCENC  =       178.09879238
  PAW double counting   =     30095.26807438   -29181.38092882
  entropy T*S    EENTRO =        -0.01198900
  eigenvalues    EBANDS =      -864.88964991
  atomic energy  EATOM  =     27259.89416086
  Solvation  Ediel_sol  =         0.00000000
  ---------------------------------------------------
  free energy    TOTEN  =      -230.11039210 eV

  energy without entropy =     -230.09840310  energy(sigma->0) =     -230.10639576


--------------------------------------------------------------------------------------------------------




--------------------------------------- Iteration      1(  17)  ---------------------------------------


    POTLOK:  cpu time    0.1856: real time    0.1869
    SETDIJ:  cpu time    0.0132: real time    0.0133
    EDDIAG:  cpu time    1.9513: real time    1.9660
  RMM-DIIS:  cpu time    6.7563: real time    6.8060
    ORTHCH:  cpu time    0.2621: real time    0.2636
       DOS:  cpu time    0.0013: real time    0.0013
    CHARGE:  cpu time    0.7147: real time    0.7198
    MIXING:  cpu time    0.0077: real time    0.0077
    --------------------------------------------
      LOOP:  cpu time    9.8921: real time    9.9647

 eigenvalue-minimisations  :  1821
 total energy-change (2. order) : 0.6737497E-03  (-0.1996916E-03)
 number of electron     376.0000043 magnetization 
 augmentation part      112.9601695 magnetization 

 Broyden mixing:
  rms(total) = 0.18333E-01    rms(broyden)= 0.18331E-01
  rms(prec ) = 0.22351E-01
  weight for this iteration     100.00

 eigenvalues of (default mixing * dielectric matrix)
  average eigenvalue GAMMA=   0.7364
  2.4551  1.2973  1.2973  0.8898  0.8898  0.1321  0.4174  0.4032  0.3164  0.2720
  0.2368  0.2296

 Free energy of the ion-electron system (eV)
  ---------------------------------------------------
  alpha Z        PSCENC =       975.10247152
  Ewald energy   TEWEN  =     91457.93754298
  -Hartree energ DENC   =   -120150.70606916
  -exchange      EXHF   =         0.00000000
  -V(xc)+E(xc)   XCENC  =       178.10240847
  PAW double counting   =     30091.92706788   -29177.96870568
  entropy T*S    EENTRO =        -0.01092802
  eigenvalues    EBANDS =      -864.38766721
  atomic energy  EATOM  =     27259.89416086
  Solvation  Ediel_sol  =         0.00000000
  ---------------------------------------------------
  free energy    TOTEN  =      -230.10971835 eV

  energy without entropy =     -230.09879033  energy(sigma->0) =     -230.10607567


--------------------------------------------------------------------------------------------------------




--------------------------------------- Iteration      1(  18)  ---------------------------------------


    POTLOK:  cpu time    0.1742: real time    0.1754
    SETDIJ:  cpu time    0.0119: real time    0.0119
    EDDIAG:  cpu time    1.9318: real time    1.9458
  RMM-DIIS:  cpu time    6.7926: real time    6.8419
    ORTHCH:  cpu time    0.2669: real time    0.2685
       DOS:  cpu time    0.0013: real time    0.0013
    CHARGE:  cpu time    0.6652: real time    0.6699
    MIXING:  cpu time    0.0078: real time    0.0078
    --------------------------------------------
      LOOP:  cpu time    9.8516: real time    9.9225

 eigenvalue-minimisations  :  1813
 total energy-change (2. order) :-0.2825010E-03  (-0.1044366E-03)
 number of electron     376.0000043 magnetization 
 augmentation part      112.9544390 magnetization 

 Broyden mixing:
  rms(total) = 0.14289E-01    rms(broyden)= 0.14284E-01
  rms(prec ) = 0.17286E-01
  weight for this iteration     100.00

 eigenvalues of (default mixing * dielectric matrix)
  average eigenvalue GAMMA=   0.7464
  2.4374  1.5968  1.4786  0.8878  0.8878  0.4495  0.4495  0.1321  0.3288  0.3288
  0.2646  0.2348  0.2267

 Free energy of the ion-electron system (eV)
  ---------------------------------------------------
  alpha Z        PSCENC =       975.10247152
  Ewald energy   TEWEN  =     91457.93754298
  -Hartree energ DENC   =   -120151.81017325
  -exchange      EXHF   =         0.00000000
  -V(xc)+E(xc)   XCENC  =       178.10651954
  PAW double counting   =     30084.82447685   -29170.71610957
  entropy T*S    EENTRO =        -0.01049207
  eigenvalues    EBANDS =      -863.43839772
  atomic energy  EATOM  =     27259.89416086
  Solvation  Ediel_sol  =         0.00000000
  ---------------------------------------------------
  free energy    TOTEN  =      -230.11000085 eV

  energy without entropy =     -230.09950878  energy(sigma->0) =     -230.10650349


--------------------------------------------------------------------------------------------------------




--------------------------------------- Iteration      1(  19)  ---------------------------------------


    POTLOK:  cpu time    0.1736: real time    0.1751
    SETDIJ:  cpu time    0.0108: real time    0.0109
    EDDIAG:  cpu time    1.9603: real time    1.9737
  RMM-DIIS:  cpu time    5.5302: real time    5.5716
    ORTHCH:  cpu time    0.2648: real time    0.2666
       DOS:  cpu time    0.0013: real time    0.0013
    CHARGE:  cpu time    0.6685: real time    0.6732
    MIXING:  cpu time    0.0085: real time    0.0085
    --------------------------------------------
      LOOP:  cpu time    8.6179: real time    8.6810

 eigenvalue-minimisations  :  1411
 total energy-change (2. order) :-0.1566633E-03  (-0.4629784E-04)
 number of electron     376.0000043 magnetization 
 augmentation part      112.9543380 magnetization 

 Broyden mixing:
  rms(total) = 0.73236E-02    rms(broyden)= 0.73226E-02
  rms(prec ) = 0.98780E-02
  weight for this iteration     100.00

 eigenvalues of (default mixing * dielectric matrix)
  average eigenvalue GAMMA=   0.7599
  2.5678  1.9161  1.2887  0.9337  0.9337  0.6461  0.1321  0.4621  0.3997  0.3314
  0.3021  0.2658  0.2348  0.2251

 Free energy of the ion-electron system (eV)
  ---------------------------------------------------
  alpha Z        PSCENC =       975.10247152
  Ewald energy   TEWEN  =     91457.93754298
  -Hartree energ DENC   =   -120152.61328212
  -exchange      EXHF   =         0.00000000
  -V(xc)+E(xc)   XCENC  =       178.11194396
  PAW double counting   =     30084.31407732   -29170.16003374
  entropy T*S    EENTRO =        -0.01075881
  eigenvalues    EBANDS =      -862.68627949
  atomic energy  EATOM  =     27259.89416086
  Solvation  Ediel_sol  =         0.00000000
  ---------------------------------------------------
  free energy    TOTEN  =      -230.11015751 eV

  energy without entropy =     -230.09939870  energy(sigma->0) =     -230.10657124


--------------------------------------------------------------------------------------------------------




--------------------------------------- Iteration      1(  20)  ---------------------------------------


    POTLOK:  cpu time    0.1675: real time    0.1686
    SETDIJ:  cpu time    0.0117: real time    0.0117
    EDDIAG:  cpu time    1.9362: real time    1.9500
  RMM-DIIS:  cpu time    4.0616: real time    4.0919
    ORTHCH:  cpu time    0.2640: real time    0.2657
       DOS:  cpu time    0.0012: real time    0.0012
    CHARGE:  cpu time    0.7460: real time    0.7514
    MIXING:  cpu time    0.0090: real time    0.0090
    --------------------------------------------
      LOOP:  cpu time    7.1972: real time    7.2497

 eigenvalue-minimisations  :  1034
 total energy-change (2. order) :-0.2269935E-03  (-0.1508963E-04)
 number of electron     376.0000043 magnetization 
 augmentation part      112.9556779 magnetization 

 Broyden mixing:
  rms(total) = 0.36136E-02    rms(broyden)= 0.36097E-02
  rms(prec ) = 0.53027E-02
  weight for this iteration     100.00

 eigenvalues of (default mixing * dielectric matrix)
  average eigenvalue GAMMA=   0.7608
  2.5965  2.0824  1.2423  0.9831  0.9831  0.7524  0.4630  0.4630  0.1321  0.3728
  0.3235  0.2925  0.2663  0.2347  0.2249

 Free energy of the ion-electron system (eV)
  ---------------------------------------------------
  alpha Z        PSCENC =       975.10247152
  Ewald energy   TEWEN  =     91457.93754298
  -Hartree energ DENC   =   -120152.95907963
  -exchange      EXHF   =         0.00000000
  -V(xc)+E(xc)   XCENC  =       178.11611499
  PAW double counting   =     30086.62694361   -29172.47664043
  entropy T*S    EENTRO =        -0.01104736
  eigenvalues    EBANDS =      -862.34085106
  atomic energy  EATOM  =     27259.89416086
  Solvation  Ediel_sol  =         0.00000000
  ---------------------------------------------------
  free energy    TOTEN  =      -230.11038450 eV

  energy without entropy =     -230.09933715  energy(sigma->0) =     -230.10670205


--------------------------------------------------------------------------------------------------------




--------------------------------------- Iteration      1(  21)  ---------------------------------------


    POTLOK:  cpu time    0.1687: real time    0.1699
    SETDIJ:  cpu time    0.0110: real time    0.0111
    EDDIAG:  cpu time    1.9341: real time    1.9484
  RMM-DIIS:  cpu time    3.8719: real time    3.9009
    ORTHCH:  cpu time    0.2520: real time    0.2536
       DOS:  cpu time    0.0012: real time    0.0012
    CHARGE:  cpu time    0.6147: real time    0.6189
    MIXING:  cpu time    0.0092: real time    0.0093
    --------------------------------------------
      LOOP:  cpu time    6.8628: real time    6.9132

 eigenvalue-minimisations  :   999
 total energy-change (2. order) :-0.1920853E-03  (-0.6012074E-05)
 number of electron     376.0000043 magnetization 
 augmentation part      112.9556965 magnetization 

 Broyden mixing:
  rms(total) = 0.30472E-02    rms(broyden)= 0.30466E-02
  rms(prec ) = 0.48535E-02
  weight for this iteration     100.00

 eigenvalues of (default mixing * dielectric matrix)
  average eigenvalue GAMMA=   0.7739
  2.5004  2.3536  1.2599  1.1139  1.1139  0.7616  0.6065  0.4782  0.1321  0.4044
  0.3256  0.3256  0.2830  0.2647  0.2346  0.2249

 Free energy of the ion-electron system (eV)
  ---------------------------------------------------
  alpha Z        PSCENC =       975.10247152
  Ewald energy   TEWEN  =     91457.93754298
  -Hartree energ DENC   =   -120153.29053087
  -exchange      EXHF   =         0.00000000
  -V(xc)+E(xc)   XCENC  =       178.11841138
  PAW double counting   =     30086.03870895   -29171.87137847
  entropy T*S    EENTRO =        -0.01116053
  eigenvalues    EBANDS =      -862.02880242
  atomic energy  EATOM  =     27259.89416086
  Solvation  Ediel_sol  =         0.00000000
  ---------------------------------------------------
  free energy    TOTEN  =      -230.11057659 eV

  energy without entropy =     -230.09941606  energy(sigma->0) =     -230.10685641


--------------------------------------------------------------------------------------------------------




--------------------------------------- Iteration      1(  22)  ---------------------------------------


    POTLOK:  cpu time    0.1592: real time    0.1606
    SETDIJ:  cpu time    0.0120: real time    0.0121
    EDDIAG:  cpu time    1.9173: real time    1.9314
  RMM-DIIS:  cpu time    4.0220: real time    4.0535
    ORTHCH:  cpu time    0.2624: real time    0.2641
       DOS:  cpu time    0.0013: real time    0.0013
    CHARGE:  cpu time    0.6992: real time    0.7039
    MIXING:  cpu time    0.0092: real time    0.0093
    --------------------------------------------
      LOOP:  cpu time    7.0827: real time    7.1362

 eigenvalue-minimisations  :   987
 total energy-change (2. order) :-0.2194746E-03  (-0.4225209E-05)
 number of electron     376.0000043 magnetization 
 augmentation part      112.9550025 magnetization 

 Broyden mixing:
  rms(total) = 0.24541E-02    rms(broyden)= 0.24539E-02
  rms(prec ) = 0.37289E-02
  weight for this iteration     100.00

 eigenvalues of (default mixing * dielectric matrix)
  average eigenvalue GAMMA=   0.7861
  2.5484  2.5484  1.3060  1.2302  1.2302  0.7425  0.7425  0.4545  0.4545  0.1321
  0.3476  0.3476  0.2903  0.2248  0.2348  0.2731  0.2568

 Free energy of the ion-electron system (eV)
  ---------------------------------------------------
  alpha Z        PSCENC =       975.10247152
  Ewald energy   TEWEN  =     91457.93754298
  -Hartree energ DENC   =   -120153.70694994
  -exchange      EXHF   =         0.00000000
  -V(xc)+E(xc)   XCENC  =       178.12003084
  PAW double counting   =     30084.38654108   -29170.19533791
  entropy T*S    EENTRO =        -0.01091481
  eigenvalues    EBANDS =      -861.63834069
  atomic energy  EATOM  =     27259.89416086
  Solvation  Ediel_sol  =         0.00000000
  ---------------------------------------------------
  free energy    TOTEN  =      -230.11079606 eV

  energy without entropy =     -230.09988125  energy(sigma->0) =     -230.10715779


--------------------------------------------------------------------------------------------------------




--------------------------------------- Iteration      1(  23)  ---------------------------------------


    POTLOK:  cpu time    0.1676: real time    0.1688
    SETDIJ:  cpu time    0.0113: real time    0.0113
    EDDIAG:  cpu time    1.9529: real time    1.9675
  RMM-DIIS:  cpu time    3.9843: real time    4.0147
    ORTHCH:  cpu time    0.2648: real time    0.2666
       DOS:  cpu time    0.0013: real time    0.0013
    CHARGE:  cpu time    0.7063: real time    0.7117
    MIXING:  cpu time    0.0091: real time    0.0091
    --------------------------------------------
      LOOP:  cpu time    7.0976: real time    7.1511

 eigenvalue-minimisations  :   984
 total energy-change (2. order) :-0.2392850E-03  (-0.4269641E-05)
 number of electron     376.0000043 magnetization 
 augmentation part      112.9544648 magnetization 

 Broyden mixing:
  rms(total) = 0.20641E-02    rms(broyden)= 0.20635E-02
  rms(prec ) = 0.29544E-02
  weight for this iteration     100.00

 eigenvalues of (default mixing * dielectric matrix)
  average eigenvalue GAMMA=   0.8058
  2.8179  2.5517  1.4562  1.2638  1.2638  0.8256  0.8256  0.5385  0.5031  0.1321
  0.3934  0.3562  0.3169  0.2940  0.2655  0.2248  0.2349  0.2399

 Free energy of the ion-electron system (eV)
  ---------------------------------------------------
  alpha Z        PSCENC =       975.10247152
  Ewald energy   TEWEN  =     91457.93754298
  -Hartree energ DENC   =   -120154.11400422
  -exchange      EXHF   =         0.00000000
  -V(xc)+E(xc)   XCENC  =       178.12122779
  PAW double counting   =     30083.17032339   -29168.96314739
  entropy T*S    EENTRO =        -0.01084693
  eigenvalues    EBANDS =      -861.24876337
  atomic energy  EATOM  =     27259.89416086
  Solvation  Ediel_sol  =         0.00000000
  ---------------------------------------------------
  free energy    TOTEN  =      -230.11103535 eV

  energy without entropy =     -230.10018842  energy(sigma->0) =     -230.10741971


--------------------------------------------------------------------------------------------------------




--------------------------------------- Iteration      1(  24)  ---------------------------------------


    POTLOK:  cpu time    0.1609: real time    0.1623
    SETDIJ:  cpu time    0.0117: real time    0.0118
    EDDIAG:  cpu time    1.9530: real time    1.9671
  RMM-DIIS:  cpu time    3.8892: real time    3.9189
    ORTHCH:  cpu time    0.2696: real time    0.2715
       DOS:  cpu time    0.0013: real time    0.0013
    CHARGE:  cpu time    0.7384: real time    0.7437
    MIXING:  cpu time    0.0098: real time    0.0098
    --------------------------------------------
      LOOP:  cpu time    7.0338: real time    7.0864

 eigenvalue-minimisations  :   894
 total energy-change (2. order) :-0.2366436E-03  (-0.3651600E-05)
 number of electron     376.0000043 magnetization 
 augmentation part      112.9549692 magnetization 

 Broyden mixing:
  rms(total) = 0.11159E-02    rms(broyden)= 0.11154E-02
  rms(prec ) = 0.16615E-02
  weight for this iteration     100.00

 eigenvalues of (default mixing * dielectric matrix)
  average eigenvalue GAMMA=   0.8292
  3.2541  2.4540  1.7937  1.1980  1.1980  1.0784  0.7094  0.7094  0.4706  0.4706
  0.1321  0.3635  0.3635  0.3066  0.2938  0.2642  0.2248  0.2337  0.2371

 Free energy of the ion-electron system (eV)
  ---------------------------------------------------
  alpha Z        PSCENC =       975.10247152
  Ewald energy   TEWEN  =     91457.93754298
  -Hartree energ DENC   =   -120154.40000056
  -exchange      EXHF   =         0.00000000
  -V(xc)+E(xc)   XCENC  =       178.12216817
  PAW double counting   =     30083.25403425   -29169.04987086
  entropy T*S    EENTRO =        -0.01087239
  eigenvalues    EBANDS =      -860.96090597
  atomic energy  EATOM  =     27259.89416086
  Solvation  Ediel_sol  =         0.00000000
  ---------------------------------------------------
  free energy    TOTEN  =      -230.11127199 eV

  energy without entropy =     -230.10039960  energy(sigma->0) =     -230.10764786


--------------------------------------------------------------------------------------------------------




--------------------------------------- Iteration      1(  25)  ---------------------------------------


    POTLOK:  cpu time    0.1731: real time    0.1745
    SETDIJ:  cpu time    0.0112: real time    0.0112
    EDDIAG:  cpu time    1.9560: real time    1.9702
  RMM-DIIS:  cpu time    3.5022: real time    3.5281
    ORTHCH:  cpu time    0.2732: real time    0.2748
[...]
     89      -2.1877      2.00000
     90      -2.1570      2.00000
     91      -2.1476      2.00000
     92      -2.1308      2.00000
     93      -2.0968      2.00000
     94      -2.0170      2.00000
     95      -2.0099      2.00000
     96      -1.9755      2.00000
     97      -1.9428      2.00000
     98      -1.9073      2.00000
     99      -1.8960      2.00000
    100      -1.8475      2.00000
    101      -1.7896      2.00000
    102      -1.7870      2.00000
    103      -1.7591      2.00000
    104      -1.7251      2.00000
    105      -1.7147      2.00000
    106      -1.7002      2.00000
    107      -1.6704      2.00000
    108      -1.6494      2.00000
    109      -1.6174      2.00000
    110      -1.5766      2.00000
    111      -1.5614      2.00000
    112      -1.4776      2.00000
    113      -1.4473      2.00000
    114      -1.3942      2.00000
    115      -1.3208      2.00000
    116      -1.3010      2.00000
    117      -1.2601      2.00000
    118      -1.2059      2.00000
    119      -1.1412      2.00000
    120      -1.1158      2.00000
    121      -1.1002      2.00000
    122      -1.0661      2.00000
    123      -1.0349      2.00000
    124      -1.0169      2.00000
    125      -1.0156      2.00000
    126      -1.0043      2.00000
    127      -0.9868      2.00000
    128      -0.9628      2.00000
    129      -0.9461      2.00000
    130      -0.9196      2.00000
    131      -0.8790      2.00000
    132      -0.8231      2.00000
    133      -0.7903      2.00000
    134      -0.7704      2.00000
    135      -0.7493      2.00000
    136      -0.7211      2.00000
    137      -0.7075      2.00000
    138      -0.6647      2.00000
    139      -0.6223      2.00000
    140      -0.5655      2.00000
    141      -0.5126      2.00000
    142      -0.4934      2.00000
    143      -0.4235      2.00000
    144      -0.3182      2.00000
    145      -0.2628      2.00000
    146      -0.1983      2.00000
    147      -0.1816      2.00000
    148      -0.1506      2.00000
    149      -0.1097      2.00000
    150      -0.0888      2.00000
    151      -0.0715      2.00000
    152       0.0121      2.00000
    153       0.0223      2.00000
    154       0.0527      2.00000
    155       0.0599      2.00000
    156       0.0803      2.00000
    157       0.0984      2.00000
    158       0.1444      2.00000
    159       0.1692      2.00000
    160       0.1778      2.00000
    161       0.2334      2.00000
    162       0.2508      2.00000
    163       0.2906      2.00000
    164       0.3131      2.00000
    165       0.3320      2.00000
    166       0.3676      2.00001
    167       0.5167      2.00072
    168       0.5650      2.00226
    169       0.5806      2.00318
    170       0.6004      2.00481
    171       0.6288      2.00836
    172       0.6414      2.01051
    173       0.6798      2.01980
    174       0.7550      2.05022
    175       0.7596      2.05234
    176       0.7787      2.06068
    177       0.8206      2.07091
    178       0.8411      2.06745
    179       0.8877      2.02008
    180       0.9021      1.98999
    181       0.9202      1.93978
    182       0.9656      1.74308
    183       1.0111      1.44696
    184       1.0498      1.13809
    185       1.0812      0.87296
    186       1.0929      0.77543
    187       1.0957      0.75277
    188       1.1246      0.52771
    189       1.1326      0.47059
    190       1.1375      0.43646
    191       1.2670     -0.05115
    192       1.3009     -0.07005
    193       1.3494     -0.06233
    194       1.3631     -0.05667
    195       1.3814     -0.04832
    196       1.4682     -0.01545
    197       1.5775     -0.00179
    198       1.6786     -0.00013
    199       1.7919     -0.00000
    200       1.9518     -0.00000
    201       2.2305     -0.00000
    202       2.3360     -0.00000
    203       2.7683     -0.00000
    204       2.9216     -0.00000
    205       2.9331     -0.00000
    206       2.9647     -0.00000
    207       2.9810     -0.00000
    208       3.2068     -0.00000
    209       3.3702     -0.00000
    210       3.4966     -0.00000
    211       3.5263     -0.00000
    212       3.5899     -0.00000
    213       3.6823     -0.00000
    214       3.7873     -0.00000
    215       3.9343     -0.00000
    216       4.1321     -0.00000
    217       4.1992     -0.00000
    218       4.3810     -0.00000
    219       4.4064     -0.00000
    220       4.6076     -0.00000
    221       4.6550     -0.00000
    222       4.8014     -0.00000
    223       5.1688     -0.00000
    224       5.4540     -0.00000
    225       5.9901     -0.00000
    226       6.4841     -0.00000
    227       6.5177     -0.00000
    228       6.6362      0.00000


--------------------------------------------------------------------------------------------------------


 soft charge-density along one line, spin component           1
         0         1         2         3         4         5         6         7         8         9
 total charge-density along one line
 
 pseudopotential strength for first ion, spin component:           1
 10.092   0.015   0.004   0.011  -0.000  -0.004  -0.010   0.001
  0.015  -0.002  -0.000  -0.000  -0.000  -0.000  -0.000   0.000
  0.004  -0.000  -4.243  -0.006   0.001  -0.010  -0.002   0.000
  0.011  -0.000  -0.006  -4.258   0.004  -0.002  -0.016   0.001
 -0.000  -0.000   0.001   0.004  -4.241   0.000   0.001  -0.009
 -0.004  -0.000  -0.010  -0.002   0.000  -0.770  -0.000   0.000
 -0.010  -0.000  -0.002  -0.016   0.001  -0.000  -0.770   0.000
  0.001   0.000   0.000   0.001  -0.009   0.000   0.000  -0.770
 total augmentation occupancy for first ion, spin component:           1
  1.626  -0.865   0.017   0.021  -0.062   0.033   0.087  -0.029
 -0.865   1.229  -0.206  -0.563   0.125  -0.082  -0.232   0.046
  0.017  -0.206   0.842   0.184  -0.007   0.114   0.051  -0.007
  0.021  -0.563   0.184   1.318  -0.033   0.051   0.245  -0.016
 -0.062   0.125  -0.007  -0.033   0.799  -0.007  -0.017   0.101
  0.033  -0.082   0.114   0.051  -0.007   0.019   0.020  -0.004
  0.087  -0.232   0.051   0.245  -0.017   0.020   0.070  -0.009
 -0.029   0.046  -0.007  -0.016   0.101  -0.004  -0.009   0.015


------------------------ aborting loop because EDIFF is reached ----------------------------------------


    CHARGE:  cpu time    0.5628: real time    0.5667
    FORLOC:  cpu time    0.0489: real time    0.0492
    FORNL :  cpu time    3.0852: real time    3.1089
    STRESS:  cpu time    8.5920: real time    8.6558
    FORCOR:  cpu time    0.1524: real time    0.1534
    FORHAR:  cpu time    0.0841: real time    0.0846
    MIXING:  cpu time    0.0060: real time    0.0060
    OFIELD:  cpu time    0.0001: real time    0.0000

  FORCE on cell =-STRESS in cart. coord.  units (eV):
  Direction    XX          YY          ZZ          XY          YZ          ZX
  --------------------------------------------------------------------------------------
  Alpha Z   975.10247   975.10247   975.10247
  Ewald  111192.80826111208.95011************  -202.38349   217.40129   -95.12727
  Hartree117940.55964117928.75813************  -134.24467    89.36453   -49.50723
  E(xc)   -1665.82601 -1665.52953 -1673.13955    -0.43370     0.65140    -0.31010
  Local  ************************239825.57082   327.54237  -285.16231   135.63498
  n-local   122.92306   122.17811    87.98918    -0.96409     0.72724     0.44764
  augment  1895.37191  1893.31335  1933.22201     2.17210    -3.81796     1.29149
  Kinetic  5523.23865  5513.57635  5601.21238     8.96506   -19.31755     9.08559
  Fock        0.00000     0.00000     0.00000     0.00000     0.00000     0.00000
  -------------------------------------------------------------------------------------
  Total     -36.47421   -39.08132    -4.20934     0.65358    -0.15337     1.51509
  in kB     -43.44138   -46.54650    -5.01339     0.77842    -0.18267     1.80450
  external pressure =      -31.67 kB  Pullay stress =        0.00 kB


 VOLUME and BASIS-vectors are now :
 -----------------------------------------------------------------------------
  energy-cutoff  :      450.00
  volume of cell :     1345.22
      direct lattice vectors                 reciprocal lattice vectors
     7.296955120 -4.212899000  0.000000000     0.137043463  0.000000000  0.000000000
     0.000000000  8.425798000  0.000000000     0.068521732  0.118683121  0.000000000
     0.000000000  0.000000000 21.879635000     0.000000000  0.000000000  0.045704602

  length of vectors
     8.425798004  8.425798000 21.879635000     0.137043463  0.137043463  0.045704602


 FORCES acting on ions
    electron-ion (+dipol)            ewald-force                    non-local-force                 convergence-correction
 -----------------------------------------------------------------------------------------------
   0.183E+01 0.150E+02 -.878E+03   -.185E+01 -.199E+02 0.866E+03   0.139E+00 0.332E+01 0.106E+02   -.676E-03 -.128E-02 0.509E-01
   -.817E+02 0.627E+02 -.159E+04   0.830E+02 -.613E+02 0.161E+04   -.674E+00 -.118E+01 -.221E+02   -.140E-01 0.955E-02 0.491E-01
   0.692E+02 -.102E+03 -.156E+04   -.801E+02 0.122E+03 0.162E+04   0.110E+02 -.200E+02 -.577E+02   0.635E-02 -.138E-01 0.297E-01
   0.667E+00 0.284E+00 0.234E+04   -.678E+00 -.335E+00 -.234E+04   0.253E-01 -.416E-01 -.119E+01   0.153E-01 0.478E-01 0.221E-01
   -.950E-01 0.286E+00 0.234E+04   -.315E-02 -.292E+00 -.234E+04   0.497E-02 -.381E-01 -.110E+01   0.359E-01 0.732E-02 0.106E-01
   -.235E+00 0.187E+00 0.234E+04   0.207E+00 -.178E+00 -.234E+04   0.207E-01 -.306E-01 -.115E+01   -.301E-02 0.282E-01 0.185E-01
   0.224E+00 -.643E+00 0.234E+04   -.247E+00 0.672E+00 -.234E+04   0.869E-02 0.283E-01 -.115E+01   0.643E-02 -.396E-02 0.165E-01
   -.654E+00 -.735E+00 0.234E+04   0.633E+00 0.687E+00 -.234E+04   0.596E-02 0.309E-01 -.126E+01   -.484E-02 0.145E-01 0.201E-01
   -.680E+00 -.544E+00 0.234E+04   0.690E+00 0.491E+00 -.234E+04   0.212E-01 0.372E-01 -.120E+01   -.970E-02 -.246E-01 0.390E-02
   0.920E-01 0.270E+00 0.234E+04   -.154E-01 -.398E+00 -.234E+04   -.739E-01 0.108E+00 -.108E+01   -.492E-02 -.217E-01 0.140E-01
   0.280E-01 0.368E+00 0.234E+04   0.237E-01 -.313E+00 -.234E+04   -.768E-02 -.228E-01 -.122E+01   -.442E-01 -.373E-02 0.125E-01
   0.655E+00 0.384E+00 0.234E+04   -.610E+00 -.333E+00 -.234E+04   -.263E-01 0.961E-02 -.104E+01   0.909E-02 -.438E-01 0.306E-02
   0.491E+01 0.326E+01 0.859E+03   -.504E+01 -.328E+01 -.858E+03   -.156E-01 -.457E-01 -.486E+00   0.233E-01 -.605E-02 0.660E-05
   -.136E+01 0.735E+01 0.860E+03   0.126E+01 -.740E+01 -.860E+03   0.132E+00 0.583E-03 -.179E+00   -.251E-02 0.429E-02 0.890E-02
   0.523E+01 0.316E+01 0.856E+03   -.517E+01 -.330E+01 -.856E+03   -.569E-01 0.710E-01 -.252E+00   -.640E-02 0.266E-01 0.443E-01
   -.817E+00 -.589E+00 0.868E+03   0.770E+00 0.479E+00 -.867E+03   0.413E-01 0.123E+00 -.482E+00   0.671E-02 0.306E-01 0.216E-01
   -.801E+01 -.179E+01 0.864E+03   0.795E+01 0.184E+01 -.863E+03   0.216E+00 -.502E-02 -.339E+00   0.822E-02 -.652E-03 -.625E-02
   0.475E+01 -.181E+01 0.863E+03   -.476E+01 0.182E+01 -.863E+03   -.928E-01 0.460E-01 -.195E+00   0.897E-02 0.114E-01 0.146E-01
   -.503E+01 -.355E+01 0.861E+03   0.503E+01 0.374E+01 -.860E+03   0.710E-01 -.621E-01 -.246E+00   -.134E-02 -.249E-01 -.190E-01
   -.280E+01 -.563E+01 0.858E+03   0.290E+01 0.570E+01 -.857E+03   -.257E-01 0.746E-01 -.296E+00   -.311E-01 -.382E-02 0.466E-02
   0.249E+01 -.110E+01 0.855E+03   -.242E+01 0.125E+01 -.855E+03   -.500E-01 -.681E-01 -.106E+00   -.580E-02 -.379E-01 -.112E-01
   -.560E+01 0.641E+01 -.622E+03   0.546E+01 -.642E+01 0.621E+03   0.205E+00 -.189E+00 0.755E+00   -.410E-02 -.223E-01 -.284E-01
   -.666E+01 0.298E+01 -.649E+03   0.670E+01 -.290E+01 0.648E+03   0.343E-01 -.152E+00 -.625E+00   0.107E-01 -.147E-01 0.348E-03
   -.273E+01 0.183E+02 -.649E+03   0.252E+01 -.179E+02 0.649E+03   0.190E+00 -.605E+00 0.278E+00   0.936E-02 0.135E-01 -.540E-02
   0.144E+01 0.141E+02 -.628E+03   -.185E+01 -.133E+02 0.628E+03   0.288E+00 -.861E+00 0.586E-02   -.548E-02 0.338E-01 -.782E-02
   0.168E+02 0.191E+01 -.608E+03   -.161E+02 -.193E+01 0.608E+03   -.769E+00 -.435E-01 0.463E+00   0.289E-01 0.565E-02 -.831E-02
   -.285E+01 -.143E+02 -.629E+03   0.266E+01 0.141E+02 0.628E+03   0.214E+00 0.168E+00 -.803E-01   -.146E-02 -.817E-02 -.605E-02
   -.214E+01 -.605E+01 -.641E+03   0.214E+01 0.602E+01 0.641E+03   0.721E-01 0.168E-01 0.189E+00   -.151E-01 0.166E-01 0.993E-02
   -.225E+01 -.273E+01 -.622E+03   0.230E+01 0.268E+01 0.622E+03   0.141E-01 0.119E-01 0.667E+00   -.140E-01 0.111E-01 -.778E-02
   0.253E+01 -.143E+02 -.649E+03   -.247E+01 0.141E+02 0.649E+03   -.217E+00 0.475E+00 -.417E+00   -.706E-02 -.329E-01 0.494E-02
   -.149E+02 -.622E+00 -.214E+04   0.155E+02 0.745E+00 0.213E+04   -.653E+00 -.259E+00 0.167E+01   0.791E-02 -.851E-02 0.945E-02
   0.908E+01 0.336E+02 -.218E+04   -.956E+01 -.343E+02 0.218E+04   0.670E+00 0.670E+00 0.133E+01   -.246E-03 0.576E-02 0.204E-01
   0.448E+02 -.122E+02 -.215E+04   -.451E+02 0.122E+02 0.215E+04   0.100E+00 0.235E+00 0.813E+00   0.124E-01 0.876E-02 0.287E-01
   -.121E+01 -.389E+01 -.214E+04   0.117E+01 0.367E+01 0.214E+04   -.142E+00 0.325E+00 0.145E+01   -.919E-02 0.143E-01 0.194E-01
   0.174E+02 0.103E+02 -.216E+04   -.174E+02 -.105E+02 0.216E+04   0.263E-01 0.342E+00 0.120E+01   0.202E-01 -.227E-02 0.248E-01
   0.625E+02 0.702E+02 -.196E+04   -.649E+02 -.687E+02 0.197E+04   0.250E+01 -.162E+01 -.225E+01   0.110E-01 -.317E-02 0.537E-02
   -.662E+02 -.566E+02 -.210E+04   0.676E+02 0.588E+02 0.210E+04   -.146E+01 -.202E+01 0.224E+01   -.119E-01 -.217E-01 0.296E-01
   -.622E+02 0.857E+02 -.204E+04   0.623E+02 -.863E+02 0.204E+04   -.409E+00 0.101E+01 -.405E+00   -.942E-02 0.727E-02 0.188E-01
   0.124E+02 -.867E+02 -.213E+04   -.124E+02 0.879E+02 0.213E+04   0.383E-02 -.682E+00 0.123E+01   -.124E-01 -.699E-02 0.259E-01
 -----------------------------------------------------------------------------------------------
   -.112E+02 0.210E+02 0.732E+02   0.124E-12 0.128E-12 -.409E-11   0.113E+02 -.208E+02 -.736E+02   0.178E-02 -.976E-02 0.442E+00
 
 
 POSITION                                       TOTAL-FORCE (eV/Angst)
 -----------------------------------------------------------------------------------
      5.11055      0.68100     10.33815         0.121729     -1.595682     -1.626217
      6.62350     -0.57656     10.23880         0.554182      0.258385     -0.548018
      4.91431      1.05844     11.40991         0.012434      0.524501      1.157074
      7.20031     -1.38846      1.62732         0.028311     -0.048297      0.107111
      2.33567      1.42014      1.62732        -0.059024     -0.040425      0.111062
      4.76799      0.01584      1.62732        -0.011486      0.003022      0.124059
      7.20031      1.42015      1.62732        -0.010167      0.049526      0.122955
      2.33567      4.22875      1.62732        -0.021176     -0.005596      0.132362
      4.76799      2.82445      1.62732         0.020249     -0.044370      0.151561
      2.33567      7.03734      1.62732        -0.003913     -0.046328      0.081398
      4.76799      5.63304      1.62732        -0.001888      0.024459      0.190800
      7.20031      4.22874      1.62732         0.026287      0.013174      0.034152
      1.52490      0.01584      3.92052        -0.122232     -0.073820     -0.171480
      3.95722     -1.38846      3.92052         0.022298     -0.050106      0.007807
      6.38953     -2.79276      3.92052        -0.006653     -0.044840     -0.070506
      1.52490      2.82445      3.92052        -0.001149      0.039173     -0.270551
      3.95722      1.42015      3.92052         0.162644      0.042241     -0.060889
      6.38953      0.01585      3.92052        -0.098210      0.072059      0.028034
      1.52490      5.63305      3.92052         0.073003      0.105847     -0.054323
      3.95722      4.22874      3.92052         0.049503      0.145705      0.032961
      6.38953      2.82445      3.92052         0.008467      0.041489      0.034546
      0.71261      4.23635      6.17344         0.065277     -0.227953      0.236572
      3.15567      5.64640      6.24788         0.085563     -0.095182     -0.837490
      5.57546     -1.36150      6.22456        -0.007386     -0.259709      0.086679
      0.70712      1.46698      6.18017        -0.128180     -0.078831      0.412715
      3.16243      0.02413      6.16533        -0.111847     -0.061998      0.259905
      0.70783      7.02440      6.20947         0.018445     -0.021896     -0.382578
      5.56696      4.22942      6.21418         0.054169     -0.003057     -0.182615
      3.16065      2.81477      6.17098         0.049113     -0.031842      0.248085
      5.60683      1.40182      6.26336        -0.170568      0.294750     -0.653274
      2.37732      4.19928      8.41501        -0.121063     -0.148358      0.376338
      4.74888      5.60457      8.52936         0.196900      0.002233     -0.338451
      2.33210      1.37889      8.50781        -0.207985      0.212074     -0.416348
      7.22441      4.17776      8.42811        -0.189306      0.117005      0.441980
      2.33453      7.00580      8.45659         0.024087      0.100750      0.323247
      4.66060      0.06922      8.53831         0.041642     -0.104672      0.638054
      7.27114      1.39243      8.52056        -0.011008      0.082841     -0.061703
      7.23948     -1.50569      8.57655        -0.324424      0.419183      0.680533
      4.78810      2.81505      8.53690        -0.006636      0.434545     -0.345549
 -----------------------------------------------------------------------------------
    total drift:                                0.066945      0.155100      0.058204
  FORCES: max atom, RMS     2.281579    0.552458
  Number: max atom                 1
  FORCE total and by dimension    3.450099    1.626217


--------------------------------------------------------------------------------------------------------



  FREE ENERGIE OF THE ION-ELECTRON SYSTEM (eV)
  ---------------------------------------------------
  free  energy   TOTEN  =      -230.43892659 eV

  energy  without entropy=     -230.42267147  energy(sigma->0) =     -230.43350822
 
 d Force = 0.8428988E-01[ 0.197E-02, 0.167E+00]  d Energy = 0.8805179E-01-0.376E-02
 d Force =-0.7199415E+01[-0.767E+01,-0.673E+01]  d Ewald  =-0.7193610E+01-0.580E-02


--------------------------------------------------------------------------------------------------------


    POTLOK:  cpu time    0.1513: real time    0.3388


--------------------------------------------------------------------------------------------------------


 stress matrix after NEB project (eV)
    -36.47421      0.65358      1.51509
      0.65358    -39.08132     -0.15337
      1.51509     -0.15337     -4.20934
  FORCES: max atom, RMS     2.281579    0.552458
  FORCE total and by dimension    3.450099    1.626217
  Stress total and by dimension   53.674281   39.081323
 Quasi-Newton relaxation of ions (Broydens 2nd method)
  g(Force)  = 0.230E+00   g(Stress)= 0.000E+00

 retain information from N=  2 steps
 eigenvalues of (default step * inverse Hessian matrix)
  average eigenvalue of G=   2.0728
 eigenvalue spectrum of G is  0.4398  3.7058
  RESET_HESSIAN           0


--------------------------------------------------------------------------------------------------------


    WAVPRE:  cpu time    0.0807: real time    0.2705
    FEWALD:  cpu time    0.0010: real time    0.0010

 real space projection operators:
  total allocation   :      13552.39 KBytes
  max/ min on nodes  :       6784.09       6768.30

    ORTHCH:  cpu time    1.1196: real time    1.1285
     LOOP+:  cpu time   99.1544: real time  100.7502


--------------------------------------- Iteration      4(   1)  ---------------------------------------


    POTLOK:  cpu time    0.1572: real time    0.1938
    SETDIJ:  cpu time    0.0109: real time    0.0110
