 running on    8 total cores
 distrk:  each k-point on    8 cores,    1 groups
 distr:  one band on    2 cores,    4 groups
 using from now: INCAR     
 vasp.5.4.4 16052018 (build Apr 24 2014 20:13:14) complex standard
 Contain Constrained Minimization Technique (TS), Periodic NBO, VASPsol, libbeef, VASP2WANNIER90, Constrained Cell Relaxation
 POSCAR found type information on POSCAR  C  O  Pt
 POSCAR found :  3 types and      39 ions
 scaLAPACK will be used
 LDA part: xc-table for Pade appr. of Perdew
 POSCAR found type information on POSCAR  C  O  Pt
 POSCAR found :  3 types and      39 ions
 POSCAR, INCAR and KPOINTS ok, starting setup
 FFT: planning ...
 WAVECAR not read
 entering main loop
       N       E                     dE             d eps       ncg     rms          rms(c)
DAV:   1     0.241989712574E+04    0.24199E+04   -0.15952E+05  1824   0.129E+03
DAV:   2    -0.671225966585E+02   -0.24870E+04   -0.23108E+04  2144   0.286E+02
DAV:   3    -0.241325539742E+03   -0.17420E+03   -0.15868E+03  2160   0.688E+01
DAV:   4    -0.248627878475E+03   -0.73023E+01   -0.70504E+01  2336   0.135E+01
DAV:   5    -0.248850843461E+03   -0.22296E+00   -0.22093E+00  2392   0.239E+00    0.274E+01
RMM:   6    -0.246701389968E+03    0.21495E+01   -0.54357E+01  1832   0.148E+01    0.305E+01
RMM:   7    -0.241762352699E+03    0.49390E+01   -0.33025E+01  1830   0.902E+00    0.199E+01
RMM:   8    -0.245828918608E+03   -0.40666E+01   -0.93720E+00  1828   0.470E+00    0.233E+01
RMM:   9    -0.231804665888E+03    0.14024E+02   -0.45431E+00  1832   0.349E+00    0.864E+00
RMM:  10    -0.230735378097E+03    0.10693E+01   -0.14062E+00  1831   0.190E+00    0.537E+00
RMM:  11    -0.230317586240E+03    0.41779E+00   -0.45458E-01  1832   0.105E+00    0.313E+00
RMM:  12    -0.230173074327E+03    0.14451E+00   -0.17573E-01  1849   0.648E-01    0.207E+00
RMM:  13    -0.230162775603E+03    0.10299E-01   -0.12145E-01  1830   0.589E-01    0.180E+00
RMM:  14    -0.230120364323E+03    0.42411E-01   -0.83400E-02  1832   0.503E-01    0.795E-01
RMM:  15    -0.230115012038E+03    0.53523E-02   -0.30727E-02  1830   0.305E-01    0.585E-01
RMM:  16    -0.230110392096E+03    0.46199E-02   -0.77700E-03  1831   0.150E-01    0.294E-01
RMM:  17    -0.230109718346E+03    0.67375E-03   -0.19969E-03  1821   0.763E-02    0.183E-01
RMM:  18    -0.230110000847E+03   -0.28250E-03   -0.10444E-03  1813   0.552E-02    0.143E-01
RMM:  19    -0.230110157510E+03   -0.15666E-03   -0.46298E-04  1411   0.375E-02    0.732E-02
RMM:  20    -0.230110384504E+03   -0.22699E-03   -0.15090E-04  1034   0.222E-02    0.361E-02
RMM:  21    -0.230110576589E+03   -0.19209E-03   -0.60121E-05   999   0.136E-02    0.305E-02
RMM:  22    -0.230110796063E+03   -0.21947E-03   -0.42252E-05   987   0.105E-02    0.245E-02
RMM:  23    -0.230111035348E+03   -0.23929E-03   -0.42696E-05   984   0.983E-03    0.206E-02
RMM:  24    -0.230111271992E+03   -0.23664E-03   -0.36516E-05   894   0.851E-03    0.112E-02
RMM:  25    -0.230111469191E+03   -0.19720E-03   -0.27534E-05   789   0.732E-03    0.984E-03
RMM:  26    -0.230111668611E+03   -0.19942E-03   -0.23008E-05   731   0.657E-03    0.103E-02
RMM:  27    -0.230111783813E+03   -0.11520E-03   -0.13676E-05   547   0.537E-03    0.466E-03
RMM:  28    -0.230111849875E+03   -0.66062E-04   -0.66285E-06   384   0.452E-03
   1 F= -.23011185E+03 E0= -.23010823E+03  d E =-.230112E+03
 BRION: g(F)=  0.335E+00 g(S)=  0.000E+00
 bond charge predicted
       N       E                     dE             d eps       ncg     rms          rms(c)
DAV:   1    -0.230301234727E+03   -0.18945E+00   -0.31868E+01  1844   0.105E+01    0.817E-01
RMM:   2    -0.230386120468E+03   -0.84886E-01   -0.70135E-01  1834   0.170E+00    0.159E+00
RMM:   3    -0.230356594902E+03    0.29526E-01   -0.49012E-02  1848   0.390E-01    0.548E-01
RMM:   4    -0.230354874656E+03    0.17202E-02   -0.84690E-03  1846   0.162E-01    0.500E-01
RMM:   5    -0.230358708534E+03   -0.38339E-02   -0.45527E-03  1834   0.113E-01    0.733E-01
RMM:   6    -0.230353876342E+03    0.48322E-02   -0.52486E-03  1830   0.118E-01    0.411E-01
RMM:   7    -0.230351492950E+03    0.23834E-02   -0.45329E-03  1829   0.116E-01    0.196E-01
RMM:   8    -0.230351125394E+03    0.36756E-03   -0.14223E-03  1819   0.641E-02    0.130E-01
RMM:   9    -0.230350896346E+03    0.22905E-03   -0.31306E-04  1136   0.325E-02    0.563E-02
RMM:  10    -0.230350874799E+03    0.21546E-04   -0.98836E-05   964   0.196E-02
   2 F= -.23035087E+03 E0= -.23034590E+03  d E =-.239025E+00
 BRION: g(F)=  0.324E+00 g(S)=  0.000E+00 retain N=  1 mean eig= 0.77
 eig:   0.774
 bond charge predicted
       N       E                     dE             d eps       ncg     rms          rms(c)
DAV:   1    -0.230417315137E+03   -0.66419E-01   -0.84497E+00  1832   0.559E+00    0.545E-01
RMM:   2    -0.230452613289E+03   -0.35298E-01   -0.35912E-01  1845   0.946E-01    0.748E-01
RMM:   3    -0.230445714140E+03    0.68991E-02   -0.13880E-02  1846   0.193E-01    0.556E-01
RMM:   4    -0.230444876648E+03    0.83749E-03   -0.32592E-03  1858   0.918E-02    0.528E-01
RMM:   5    -0.230441873888E+03    0.30028E-02   -0.34221E-03  1831   0.932E-02    0.380E-01
RMM:   6    -0.230440594212E+03    0.12797E-02   -0.67395E-03  1828   0.133E-01    0.278E-01
RMM:   7    -0.230439305159E+03    0.12891E-02   -0.23107E-03  1825   0.802E-02    0.136E-01
RMM:   8    -0.230439079271E+03    0.22589E-03   -0.55462E-04  1579   0.399E-02    0.909E-02
RMM:   9    -0.230438950025E+03    0.12925E-03   -0.15518E-04   997   0.234E-02    0.388E-02
RMM:  10    -0.230438926593E+03    0.23432E-04   -0.62332E-05   960   0.156E-02
   3 F= -.23043893E+03 E0= -.23043351E+03  d E =-.880518E-01
 BRION: g(F)=  0.230E+00 g(S)=  0.000E+00 retain N=  2 mean eig= 2.07
 eig:   0.440  3.706
 bond charge predicted
       N       E                     dE             d eps       ncg     rms          rms(c)
[mpiexec@node11] Sending Ctrl-C to processes as requested
[mpiexec@node11] Press Ctrl-C again to force abort
