metal                                   
           1
     7.296955   -4.212899    0.000000
     0.000000    8.425798    0.000000
     0.000000    0.000000   21.879635
   C    O    Pt
   1   2  36
Direct configuration=     1
   0.70053925  0.43511279  0.47249918
   0.90563748  0.38359484  0.46926267
   0.67240271  0.46196868  0.52238771
   0.98675500  0.32859100  0.07437600
   0.32008800  0.32859100  0.07437600
   0.65342200  0.32859100  0.07437600
   0.98675500  0.66192500  0.07437600
   0.32008800  0.66192500  0.07437600
   0.65342200  0.66192500  0.07437600
   0.32008800  0.99525800  0.07437600
   0.65342200  0.99525800  0.07437600
   0.98675500  0.99525800  0.07437600
   0.20897700  0.10636900  0.17918600
   0.54231100  0.10636900  0.17918600
   0.87564400  0.10636900  0.17918600
   0.20897700  0.43970300  0.17918600
   0.54231100  0.43970300  0.17918600
   0.87564400  0.43970300  0.17918600
   0.20897700  0.77303600  0.17918600
   0.54231100  0.77303600  0.17918600
   0.87564400  0.77303600  0.17918600
   0.09717599  0.55245659  0.28182901
   0.43153493  0.88630489  0.28728414
   0.76408436  0.22192724  0.28437603
   0.09740807  0.22311354  0.28181830
   0.43424899  0.22008834  0.28146041
   0.09705669  0.88232195  0.28472083
   0.76291805  0.88348734  0.28430449
   0.43272610  0.55064840  0.28161342
   0.76921977  0.54912224  0.28753865
   0.32659566  0.66297888  0.38387175
   0.64934548  0.98989067  0.39028925
   0.32082358  0.32306452  0.38953617
   0.99105021  0.99072372  0.38443679
   0.31975058  0.99045766  0.38572979
   0.63809815  0.32816396  0.38881567
   0.99646369  0.66352389  0.38930586
   0.99399996  0.31595208  0.39063370
   0.65623697  0.66024007  0.39056973
Direct configuration=     2
   0.70077804  0.43176855  0.47161882
   0.90704814  0.38474137  0.46826596
   0.67265927  0.46270124  0.52254785
   0.98675500  0.32859100  0.07437600
   0.32008800  0.32859100  0.07437600
   0.65342200  0.32859100  0.07437600
   0.98675500  0.66192500  0.07437600
   0.32008800  0.66192500  0.07437600
   0.65342200  0.66192500  0.07437600
   0.32008800  0.99525800  0.07437600
   0.65342200  0.99525800  0.07437600
   0.98675500  0.99525800  0.07437600
   0.20897700  0.10636900  0.17918600
   0.54231100  0.10636900  0.17918600
   0.87564400  0.10636900  0.17918600
   0.20897700  0.43970300  0.17918600
   0.54231100  0.43970300  0.17918600
   0.87564400  0.43970300  0.17918600
   0.20897700  0.77303600  0.17918600
   0.54231100  0.77303600  0.17918600
   0.87564400  0.77303600  0.17918600
   0.09755040  0.55186077  0.28204453
   0.43228419  0.88640064  0.28600321
   0.76409140  0.22082333  0.28444902
   0.09707429  0.22273923  0.28226072
   0.43358450  0.21971583  0.28166518
   0.09698809  0.88220092  0.28402941
   0.76286704  0.88340308  0.28410339
   0.43305302  0.55063512  0.28191546
   0.76864223  0.55026657  0.28660576
   0.32598874  0.66163264  0.38440811
   0.65046570  0.99040607  0.38998549
   0.31992215  0.32333198  0.38905095
   0.99034821  0.99084329  0.38498162
   0.31988666  0.99124134  0.38632348
   0.63867730  0.32781171  0.38996400
   0.99647157  0.66342605  0.38943032
   0.99264401  0.31701957  0.39163463
   0.65618788  0.66162792  0.39031599
Direct configuration=     3
   0.70036753  0.43100656  0.47250096
   0.90770688  0.38542536  0.46796050
   0.67347374  0.46235572  0.52148534
   0.98675500  0.32859100  0.07437600
   0.32008800  0.32859100  0.07437600
   0.65342200  0.32859100  0.07437600
   0.98675500  0.66192500  0.07437600
   0.32008800  0.66192500  0.07437600
   0.65342200  0.66192500  0.07437600
   0.32008800  0.99525800  0.07437600
   0.65342200  0.99525800  0.07437600
   0.98675500  0.99525800  0.07437600
   0.20897700  0.10636900  0.17918600
   0.54231100  0.10636900  0.17918600
   0.87564400  0.10636900  0.17918600
   0.20897700  0.43970300  0.17918600
   0.54231100  0.43970300  0.17918600
   0.87564400  0.43970300  0.17918600
   0.20897700  0.77303600  0.17918600
   0.54231100  0.77303600  0.17918600
   0.87564400  0.77303600  0.17918600
   0.09765834  0.55161255  0.28215459
   0.43246358  0.88636412  0.28555696
   0.76408039  0.22045254  0.28449082
   0.09690575  0.22255845  0.28246202
   0.43339063  0.21955902  0.28178409
   0.09700349  0.88217914  0.28380153
   0.76291557  0.88341802  0.28401684
   0.43314665  0.55063872  0.28204217
   0.76837908  0.55056230  0.28626421
   0.32579651  0.66128178  0.38460486
   0.65080291  0.99056975  0.38983095
   0.31959892  0.32345042  0.38884585
   0.99005812  0.99085816  0.38520331
   0.31993177  0.99143607  0.38650509
   0.63870515  0.32756805  0.39023996
   0.99646235  0.66348861  0.38942874
   0.99212274  0.31736163  0.39198781
   0.65617722  0.66218694  0.39017552
