       N       E                     dE             d eps       ncg     rms          rms(c)
DAV:   1     0.241732249639E+04    0.24173E+04   -0.15949E+05  1824   0.129E+03
DAV:   2    -0.641979810245E+02   -0.24815E+04   -0.23088E+04  2120   0.286E+02
DAV:   3    -0.240696234828E+03   -0.17650E+03   -0.16020E+03  2192   0.687E+01
DAV:   4    -0.248144589698E+03   -0.74484E+01   -0.71777E+01  2336   0.135E+01
DAV:   5    -0.248355746484E+03   -0.21116E+00   -0.20985E+00  2296   0.237E+00    0.272E+01
RMM:   6    -0.245442074054E+03    0.29137E+01   -0.54196E+01  1831   0.148E+01    0.293E+01
RMM:   7    -0.242154596629E+03    0.32875E+01   -0.32122E+01  1830   0.896E+00    0.201E+01
RMM:   8    -0.244836401152E+03   -0.26818E+01   -0.93561E+00  1826   0.471E+00    0.230E+01
RMM:   9    -0.231706655796E+03    0.13130E+02   -0.46757E+00  1831   0.354E+00    0.899E+00
RMM:  10    -0.230619963430E+03    0.10867E+01   -0.15557E+00  1831   0.202E+00    0.558E+00
RMM:  11    -0.230200453199E+03    0.41951E+00   -0.45571E-01  1831   0.106E+00    0.312E+00
RMM:  12    -0.230051386873E+03    0.14907E+00   -0.18771E-01  1843   0.676E-01    0.205E+00
RMM:  13    -0.230057892889E+03   -0.65060E-02   -0.13026E-01  1831   0.590E-01    0.201E+00
RMM:  14    -0.230001394622E+03    0.56498E-01   -0.76833E-02  1832   0.487E-01    0.769E-01
RMM:  15    -0.229999430663E+03    0.19640E-02   -0.34823E-02  1830   0.322E-01    0.661E-01
RMM:  16    -0.229993059682E+03    0.63710E-02   -0.89930E-03  1830   0.162E-01    0.291E-01
RMM:  17    -0.229992107886E+03    0.95180E-03   -0.19908E-03  1822   0.765E-02    0.153E-01
RMM:  18    -0.229992413819E+03   -0.30593E-03   -0.91252E-04  1802   0.515E-02    0.133E-01
RMM:  19    -0.229992380571E+03    0.33248E-04   -0.45721E-04  1419   0.379E-02
   1 F= -.22999238E+03 E0= -.22998794E+03  d E =-.229992E+03
       N       E                     dE             d eps       ncg     rms          rms(c)
DAV:   1    -0.230223958949E+03   -0.23155E+00   -0.33433E+01  1856   0.104E+01    0.822E-01
RMM:   2    -0.230279240584E+03   -0.55282E-01   -0.58743E-01  1835   0.163E+00    0.864E-01
RMM:   3    -0.230281235642E+03   -0.19951E-02   -0.45052E-02  1863   0.375E-01    0.969E-01
RMM:   4    -0.230272720734E+03    0.85149E-02   -0.80760E-03  1879   0.148E-01    0.705E-01
RMM:   5    -0.230268063345E+03    0.46574E-02   -0.61503E-03  1838   0.129E-01    0.459E-01
RMM:   6    -0.230267360741E+03    0.70260E-03   -0.75041E-03  1828   0.144E-01    0.376E-01
RMM:   7    -0.230266378292E+03    0.98245E-03   -0.43933E-03  1829   0.113E-01    0.225E-01
RMM:   8    -0.230265748995E+03    0.62930E-03   -0.14026E-03  1818   0.651E-02    0.104E-01
RMM:   9    -0.230265696582E+03    0.52412E-04   -0.34459E-04  1218   0.325E-02
   2 F= -.23026570E+03 E0= -.23026091E+03  d E =-.273316E+00
       N       E                     dE             d eps       ncg     rms          rms(c)
DAV:   1    -0.230335357200E+03   -0.69608E-01   -0.11189E+01  1832   0.628E+00    0.572E-01
RMM:   2    -0.230375512423E+03   -0.40155E-01   -0.43121E-01  1853   0.103E+00    0.545E-01
RMM:   3    -0.230369255003E+03    0.62574E-02   -0.16158E-02  1860   0.205E-01    0.437E-01
RMM:   4    -0.230371008052E+03   -0.17530E-02   -0.46773E-03  1848   0.111E-01    0.608E-01
RMM:   5    -0.230370185781E+03    0.82227E-03   -0.41762E-03  1836   0.102E-01    0.509E-01
RMM:   6    -0.230367126103E+03    0.30597E-02   -0.47398E-03  1830   0.111E-01    0.365E-01
RMM:   7    -0.230365488988E+03    0.16371E-02   -0.21046E-03  1823   0.756E-02    0.129E-01
RMM:   8    -0.230365306506E+03    0.18248E-03   -0.41094E-04  1287   0.362E-02    0.591E-02
RMM:   9    -0.230365277519E+03    0.28988E-04   -0.12379E-04   987   0.219E-02
   3 F= -.23036528E+03 E0= -.23036011E+03  d E =-.995809E-01
       N       E                     dE             d eps       ncg     rms          rms(c)
