 vasp.5.4.4 16052018 (build Apr 24 2014 20:13:14) complex standard
 Contain Constrained Minimization Technique (TS), Periodic NBO, VASPsol, libbeef, VASP2WANNIER90, Constrained Cell Relaxation
 executed on Center for Computational Chemistry by phu@node06 date 2025.09.27 23:31:57
 running on    8 total cores
 distrk:  each k-point on    8 cores,    1 groups
 distr:  one band on NCORES_PER_BAND=   2 cores,    4 groups


--------------------------------------------------------------------------------------------------------


 INCAR:
 POTCAR:   PAW_PBE C 08Apr2002                    
 POTCAR:   PAW_PBE O 08Apr2002                    
 POTCAR:    PAW_PBE Pt 04Feb2005                  
 POTCAR:   PAW_PBE C 08Apr2002                    
   VRHFIN =C: s2p2                                                              
   LEXCH  = PE                                                                  
   EATOM  =   147.1560 eV,   10.8157 Ry                                         
                                                                                
   TITEL  = PAW_PBE C 08Apr2002                                                 
   LULTRA =        F    use ultrasoft PP ?                                      
   IUNSCR =        0    unscreen: 0-lin 1-nonlin 2-no                           
   RPACOR =     .000    partial core radius                                     
   POMASS =   12.011; ZVAL   =    4.000    mass and valenz                      
   RCORE  =    1.500    outmost cutoff radius                                   
   RWIGS  =    1.630; RWIGS  =     .863    wigner-seitz radius (au A)           
   ENMAX  =  400.000; ENMIN  =  300.000 eV                                      
   ICORE  =        2    local potential                                         
   LCOR   =        T    correct aug charges                                     
   LPAW   =        T    paw PP                                                  
   EAUG   =  644.873                                                            
   DEXC   =     .000                                                            
   RMAX   =    2.266    core radius for proj-oper                               
   RAUG   =    1.300    factor for augmentation sphere                          
   RDEP   =    1.501    radius for radial grids                                 
   RDEPT  =    1.300    core radius for aug-charge                              
   QCUT   =   -5.516; QGAM   =   11.032    optimization parameters              
                                                                                
   Description                                                                  
     l     E      TYP  RCUT    TYP  RCUT                                        
     0   .000     23  1.200                                                     
     0   .000     23  1.200                                                     
     1   .000     23  1.500                                                     
     1  2.500     23  1.500                                                     
     2   .000      7  1.500                                                     
  local pseudopotential read in
  atomic valenz-charges read in
  non local Contribution for L=           0  read in
    real space projection operators read in
  non local Contribution for L=           0  read in
    real space projection operators read in
  non local Contribution for L=           1  read in
    real space projection operators read in
  non local Contribution for L=           1  read in
    real space projection operators read in
    PAW grid and wavefunctions read in
 
   number of l-projection  operators is LMAX  =           4
   number of lm-projection operators is LMMAX =           8
 
 POTCAR:   PAW_PBE O 08Apr2002                    
   VRHFIN =O: s2p4                                                              
   LEXCH  = PE                                                                  
   EATOM  =   432.3788 eV,   31.7789 Ry                                         
                                                                                
   TITEL  = PAW_PBE O 08Apr2002                                                 
   LULTRA =        F    use ultrasoft PP ?                                      
   IUNSCR =        0    unscreen: 0-lin 1-nonlin 2-no                           
   RPACOR =     .000    partial core radius                                     
   POMASS =   16.000; ZVAL   =    6.000    mass and valenz                      
   RCORE  =    1.520    outmost cutoff radius                                   
   RWIGS  =    1.550; RWIGS  =     .820    wigner-seitz radius (au A)           
   ENMAX  =  400.000; ENMIN  =  300.000 eV                                      
   ICORE  =        2    local potential                                         
   LCOR   =        T    correct aug charges                                     
   LPAW   =        T    paw PP                                                  
   EAUG   =  605.392                                                            
   DEXC   =     .000                                                            
   RMAX   =    2.264    core radius for proj-oper                               
   RAUG   =    1.300    factor for augmentation sphere                          
   RDEP   =    1.550    radius for radial grids                                 
   QCUT   =   -5.520; QGAM   =   11.041    optimization parameters              
                                                                                
   Description                                                                  
     l     E      TYP  RCUT    TYP  RCUT                                        
     0   .000     23  1.200                                                     
     0  -.700     23  1.200                                                     
     1   .000     23  1.520                                                     
     1   .600     23  1.520                                                     
     2   .000      7  1.500                                                     
  local pseudopotential read in
  atomic valenz-charges read in
  non local Contribution for L=           0  read in
    real space projection operators read in
  non local Contribution for L=           0  read in
    real space projection operators read in
  non local Contribution for L=           1  read in
    real space projection operators read in
  non local Contribution for L=           1  read in
    real space projection operators read in
    PAW grid and wavefunctions read in
 
   number of l-projection  operators is LMAX  =           4
   number of lm-projection operators is LMMAX =           8
 
 POTCAR:    PAW_PBE Pt 04Feb2005                  
   VRHFIN =Pt: s1d9                                                             
   LEXCH  = PE                                                                  
   EATOM  =   729.1182 eV,   53.5887 Ry                                         
                                                                                
   TITEL  = PAW_PBE Pt 04Feb2005                                                
   LULTRA =        F    use ultrasoft PP ?                                      
   IUNSCR =        1    unscreen: 0-lin 1-nonlin 2-no                           
   RPACOR =    2.330    partial core radius                                     
   POMASS =  195.080; ZVAL   =   10.000    mass and valenz                      
   RCORE  =    2.600    outmost cutoff radius                                   
   RWIGS  =    2.750; RWIGS  =    1.455    wigner-seitz radius (au A)           
   ENMAX  =  230.283; ENMIN  =  172.712 eV                                      
   ICORE  =        3    local potential                                         
   LCOR   =        T    correct aug charges                                     
   LPAW   =        T    paw PP                                                  
   EAUG   =  358.966                                                            
   DEXC   =     .000                                                            
   RMAX   =    3.038    core radius for proj-oper                               
   RAUG   =    1.300    factor for augmentation sphere                          
   RDEP   =    2.761    radius for radial grids                                 
   QCUT   =   -4.114; QGAM   =    8.228    optimization parameters              
                                                                                
   Description                                                                  
     l     E      TYP  RCUT    TYP  RCUT                                        
     2   .000     23  2.500                                                     
     2   .000     23  2.500                                                     
     0   .000     23  2.500                                                     
     0   .000     23  2.500                                                     
     1  -.200     23  2.600                                                     
     1  1.500     23  2.600                                                     
     3   .000     23  2.500                                                     
  local pseudopotential read in
  partial core-charges read in
  atomic valenz-charges read in
  non local Contribution for L=           2  read in
    real space projection operators read in
  non local Contribution for L=           2  read in
    real space projection operators read in
  non local Contribution for L=           0  read in
    real space projection operators read in
  non local Contribution for L=           0  read in
    real space projection operators read in
  non local Contribution for L=           1  read in
    real space projection operators read in
  non local Contribution for L=           1  read in
    real space projection operators read in
    PAW grid and wavefunctions read in
 
   number of l-projection  operators is LMAX  =           6
   number of lm-projection operators is LMMAX =          18
 
 Optimization of the real space projectors (new method)

 maximal supplied QI-value         = 25.13
 optimisation between [QCUT,QGAM] = [ 10.81, 21.61] = [ 32.71,130.83] Ry 
 Optimized for a Real-space Cutoff    1.23 Angstroem

   l    n(q)    QCUT    max X(q) W(low)/X(q) W(high)/X(q)  e(spline) 
   0      8    10.807     5.582    0.53E-04    0.84E-04    0.44E-07
   0      8    10.807    69.432    0.35E-03    0.71E-03    0.24E-06
   1      7    10.807     2.780    0.44E-04    0.88E-04    0.89E-07
   1      7    10.807     4.549    0.14E-03    0.28E-03    0.13E-06
 Optimization of the real space projectors (new method)

 maximal supplied QI-value         = 24.76
 optimisation between [QCUT,QGAM] = [ 10.64, 21.54] = [ 31.73,129.89] Ry 
 Optimized for a Real-space Cutoff    1.23 Angstroem

   l    n(q)    QCUT    max X(q) W(low)/X(q) W(high)/X(q)  e(spline) 
   0      8    10.645     4.192    0.69E-04    0.93E-04    0.58E-07
   0      8    10.645     8.473    0.40E-03    0.65E-03    0.17E-06
   1      7    10.645     2.474    0.80E-04    0.12E-03    0.30E-07
   1      7    10.645     3.912    0.24E-03    0.53E-03    0.16E-06
 Optimization of the real space projectors (new method)

 maximal supplied QI-value         = 14.36
 optimisation between [QCUT,QGAM] = [ 10.77, 21.69] = [ 32.49,131.70] Ry 
 Optimized for a Real-space Cutoff    1.46 Angstroem

   l    n(q)    QCUT    max X(q) W(low)/X(q) W(high)/X(q)  e(spline) 
   2      9    10.771     3.903    0.38E-04    0.12E-03    0.82E-07
   2      9    10.771    18.372    0.13E-03    0.32E-03    0.28E-06
   0     10    10.771    13.697    0.11E-04    0.86E-05    0.85E-08
   0     10    10.771    65.529    0.40E-04    0.12E-03    0.14E-06
   1      9    10.771     7.604    0.48E-04    0.31E-04    0.38E-07
   1      9    10.771    12.136    0.35E-03    0.16E-03    0.23E-06
 PAW_PBE C 08Apr2002                    :
 energy of atom  1       EATOM= -147.1560
 kinetic energy error for atom=    0.0116 (will be added to EATOM!!)
 PAW_PBE O 08Apr2002                    :
 energy of atom  2       EATOM= -432.3788
 kinetic energy error for atom=    0.0389 (will be added to EATOM!!)
  PAW_PBE Pt 04Feb2005                  :
 energy of atom  3       EATOM= -729.1182
 kinetic energy error for atom=    0.0051 (will be added to EATOM!!)
 
 
 POSCAR: C    O    Pt                            
  positions in direct lattice
  No initial velocities read in
 exchange correlation table for  LEXCH =        8
   RHO(1)=    0.500       N(1)  =     2000
   RHO(2)=  100.500       N(2)  =     4000

 VTST: version 3.2, (02/03/18)

 CHAIN: initializing optimizer
 
 OPT: Using VASP QUASI-newton optimizer
 CHAIN: Read ICHAIN            0
 
 POSCAR: C    O    Pt                            
  positions in direct lattice
  No initial velocities read in
 


--------------------------------------------------------------------------------------------------------


 ion  position               nearest neighbor table
   1  0.698  0.432  0.478-   3 1.16  36 2.06
   2  0.909  0.384  0.467-  38 1.94  36 2.60  37 2.73
   3  0.670  0.458  0.527-   1 1.16
   4  0.987  0.329  0.074-  15 2.81  16 2.81  12 2.81   5 2.81  11 2.81   6 2.81  18 2.81   8 2.81
                             7 2.81
   5  0.320  0.329  0.074-  13 2.81  10 2.81   4 2.81  12 2.81  16 2.81  17 2.81   8 2.81   9 2.81
                             6 2.81
   6  0.653  0.329  0.074-  14 2.81  18 2.81  11 2.81   4 2.81  17 2.81   7 2.81  10 2.81   9 2.81
                             5 2.81
   7  0.987  0.662  0.074-  18 2.81  21 2.81  19 2.81  12 2.81   8 2.81  10 2.81   9 2.81   6 2.81
                             4 2.81
   8  0.320  0.662  0.074-  16 2.81  19 2.81  10 2.81   7 2.81  20 2.81   4 2.81  11 2.81   5 2.81
                             9 2.81
   9  0.653  0.662  0.074-  17 2.81  20 2.81  21 2.81  11 2.81  12 2.81   7 2.81   6 2.81   5 2.81
                             8 2.81
  10  0.320  0.995  0.074-  13 2.81  19 2.81   5 2.81   8 2.81  12 2.81   7 2.81  14 2.81   6 2.81
                            11 2.81
  11  0.653  0.995  0.074-  14 2.81  20 2.81  15 2.81   9 2.81   6 2.81  12 2.81   4 2.81   8 2.81
                            10 2.81
  12  0.987  0.995  0.074-  15 2.81  21 2.81  13 2.81   7 2.81   4 2.81  10 2.81   5 2.81  11 2.81
                             9 2.81
  13  0.209  0.106  0.179-  26 2.75  27 2.79   5 2.81  10 2.81  12 2.81  19 2.81  15 2.81  21 2.81
                            16 2.81  14 2.81  17 2.81  25 2.82
  14  0.542  0.106  0.179-  26 2.69  23 2.77   6 2.81  11 2.81  20 2.81  15 2.81  10 2.81  18 2.81
                            19 2.81  17 2.81  13 2.81  24 2.87
  15  0.876  0.106  0.179-  28 2.79  25 2.80   4 2.81  12 2.81  11 2.81  21 2.81  13 2.81  20 2.81
                            14 2.81  16 2.81  18 2.81  24 2.90
  16  0.209  0.440  0.179-  29 2.79   8 2.81   4 2.81  19 2.81  18 2.81   5 2.81  15 2.81  20 2.81
                            13 2.81  17 2.81  25 2.82  22 2.88
  17  0.542  0.440  0.179-  26 2.73  29 2.76   9 2.81  20 2.81  21 2.81  18 2.81   6 2.81   5 2.81
                            14 2.81  16 2.81  13 2.81  30 2.88
  18  0.876  0.440  0.179-   7 2.81   6 2.81  21 2.81  19 2.81  16 2.81  17 2.81   4 2.81  14 2.81
                            15 2.81  22 2.86  24 2.88  30 2.88
  19  0.209  0.773  0.179-  23 2.77  10 2.81   8 2.81   7 2.81  16 2.81  13 2.81  21 2.81  18 2.81
                            14 2.81  20 2.81  27 2.82  22 2.87
  20  0.542  0.773  0.179-  23 2.79  28 2.79  29 2.80  11 2.81   9 2.81  17 2.81  14 2.81  21 2.81
                            15 2.81   8 2.81  16 2.81  19 2.81
  21  0.876  0.773  0.179-  27 2.78  12 2.81   7 2.81   9 2.81  18 2.81  15 2.81  19 2.81  13 2.81
                            17 2.81  20 2.81  28 2.82  30 2.90
  22  0.095  0.550  0.288-  37 2.65  30 2.79  24 2.81  23 2.82  25 2.82  31 2.82  38 2.83  27 2.83
                            29 2.85  18 2.86  19 2.87  16 2.88
  23  0.429  0.885  0.282-  32 2.73  26 2.76  19 2.77  14 2.77  20 2.79  28 2.80  24 2.80  35 2.81
                            22 2.82  27 2.83  29 2.85  31 2.90
  24  0.761  0.218  0.288-  32 2.68  26 2.73  36 2.76  30 2.77  28 2.80  23 2.80  22 2.81  38 2.82
                            25 2.83  14 2.87  18 2.88  15 2.90
  25  0.095  0.215  0.284-  33 2.74  27 2.77  28 2.78  15 2.80  38 2.82  13 2.82  22 2.82  16 2.82
                            29 2.82  34 2.83  24 2.83  26 2.88
  26  0.436  0.216  0.279-  14 2.69  17 2.73  24 2.73  13 2.75  23 2.76  30 2.78  29 2.82  33 2.82
                            27 2.83  25 2.88  36 2.89  35 2.93
  27  0.094  0.886  0.283-  25 2.77  37 2.78  21 2.78  34 2.79  13 2.79  28 2.80  19 2.82  30 2.82
                            23 2.83  22 2.83  26 2.83  35 2.87
  28  0.763  0.887  0.284-  32 2.67  25 2.78  15 2.79  20 2.79  24 2.80  27 2.80  23 2.80  29 2.82
                            21 2.82  34 2.86  30 2.86  39 2.94
  29  0.433  0.548  0.283-  33 2.74  17 2.76  30 2.78  16 2.79  20 2.80  26 2.82  28 2.82  25 2.82
                            31 2.84  23 2.85  22 2.85  39 2.94
  30  0.763  0.548  0.288-  37 2.75  24 2.77  26 2.78  36 2.78  29 2.78  22 2.79  27 2.82  39 2.83
                            28 2.86  17 2.88  18 2.88  21 2.90
  31  0.327  0.657  0.391-  32 2.75  39 2.76  33 2.76  37 2.80  35 2.81  22 2.82  38 2.84  29 2.84
                            23 2.90
  32  0.650  0.986  0.383-  28 2.67  24 2.68  23 2.73  31 2.75  35 2.77  39 2.78  34 2.85  36 2.85
                            38 2.85
  33  0.323  0.328  0.384-  29 2.74  25 2.74  36 2.76  31 2.76  38 2.79  39 2.82  34 2.82  26 2.82
                            35 2.86
  34  0.990  0.992  0.390-  38 2.78  27 2.79  39 2.81  37 2.81  33 2.82  35 2.82  25 2.83  32 2.85
                            28 2.86
  35  0.323  0.989  0.390-  37 2.74  32 2.77  36 2.77  23 2.81  31 2.81  34 2.82  33 2.86  27 2.87
                            26 2.93
  36  0.647  0.323  0.391-   1 2.06   2 2.60  24 2.76  33 2.76  35 2.77  30 2.78  39 2.81  32 2.85
                            26 2.89  38 2.89  37 2.91
  37  0.998  0.663  0.386-  22 2.65   2 2.73  35 2.74  30 2.75  27 2.78  31 2.80  34 2.81  38 2.84
                            39 2.88  36 2.91
  38  0.990  0.322  0.392-   2 1.94  34 2.78  33 2.79  25 2.82  24 2.82  22 2.83  31 2.84  37 2.84
                            32 2.85  36 2.89
  39  0.656  0.661  0.395-  31 2.76  32 2.78  34 2.81  36 2.81  33 2.82  30 2.83  37 2.88  28 2.94
                            29 2.94
 

IMPORTANT INFORMATION: All symmetrisations will be switched off!
NOSYMM: (Re-)initialisation of all symmetry stuff for point group C_1.

 
 
 KPOINTS: mesh auto                               

Automatic generation of k-mesh.
Space group operators:
 irot       det(A)        alpha          n_x          n_y          n_z        tau_x        tau_y        tau_z
    1     1.000000     0.000000     1.000000     0.000000     0.000000     0.000000     0.000000     0.000000
 
 Subroutine IBZKPT returns following result:
 ===========================================
 
 Found      4 irreducible k-points:
 
 Following reciprocal coordinates:
            Coordinates               Weight
  0.000000  0.000000  0.000000      1.000000
  0.500000  0.000000  0.000000      1.000000
 -0.000000  0.500000  0.000000      1.000000
  0.500000  0.500000  0.000000      1.000000
 
 Following cartesian coordinates:
            Coordinates               Weight
  0.000000  0.000000  0.000000      1.000000
  0.068522  0.000000  0.000000      1.000000
  0.034261  0.059342  0.000000      1.000000
  0.102783  0.059342  0.000000      1.000000
 


--------------------------------------------------------------------------------------------------------




 Dimension of arrays:
   k-points           NKPTS =      4   k-points in BZ     NKDIM =      4   number of bands    NBANDS=    228
   number of dos      NEDOS =    301   number of ions     NIONS =     39
   non local maximal  LDIM  =      6   non local SUM 2l+1 LMDIM =     18
   total plane-waves  NPLWV = 276480
   max r-space proj   IRMAX =   2756   max aug-charges    IRDMAX=  12646
   dimension x,y,z NGX =    48 NGY =   48 NGZ =  120
   dimension x,y,z NGXF=    96 NGYF=   96 NGZF=  240
   support grid    NGXF=    96 NGYF=   96 NGZF=  240
   ions per type =               1   2  36
   NGX,Y,Z   is equivalent  to a cutoff of   9.47,  9.47,  9.12 a.u.
   NGXF,Y,Z  is equivalent  to a cutoff of  18.94, 18.94, 18.24 a.u.

 SYSTEM =  metal                                   
 POSCAR =  C    O    Pt                            

 Startparameter for this run:
   NWRITE =      2    write-flag & timer
   PREC   = normal    normal or accurate (medium, high low for compatibility)
   ISTART =      0    job   : 0-new  1-cont  2-samecut
   ICHARG =      2    charge: 1-file 2-atom 10-const
   ISPIN  =      1    spin polarized calculation?
   LNONCOLLINEAR =      F non collinear calculations
   LSORBIT =      F    spin-orbit coupling
   INIWAV =      1    electr: 0-lowe 1-rand  2-diag
   LASPH  =      F    aspherical Exc in radial PAW
   METAGGA=      F    non-selfconsistent MetaGGA calc.

 Electronic Relaxation 1
   ENCUT  =  450.0 eV  33.07 Ry    5.75 a.u.  14.57 14.57 37.84*2*pi/ulx,y,z
   ENINI  =  450.0     initial cutoff
   ENAUG  =  644.9 eV  augmentation charge cutoff
   NELM   =     60;   NELMIN=  8; NELMDL= -5     # of ELM steps 
   EDIFF  = 0.1E-03   stopping-criterion for ELM
   LREAL  =      T    real-space projection
   NLSPLINE    = F    spline interpolate recip. space projectors
   LCOMPAT=      F    compatible to vasp.4.4
   GGA_COMPAT  = T    GGA compatible to vasp.4.4-vasp.4.6
   LMAXPAW     = -100 max onsite density
   LMAXMIX     =    2 max onsite mixed and CHGCAR
   VOSKOWN=      0    Vosko Wilk Nusair interpolation
   ROPT   =   -0.00050  -0.00050  -0.00050
 Ionic relaxation
   EDIFFG = -.5E-01   stopping-criterion for IOM
   NSW    =   5000    number of steps for IOM
   NBLOCK =      1;   KBLOCK =   5000    inner block; outer block 
   IBRION =      1    ionic relax: 0-MD 1-quasi-New 2-CG
   NFREE  =      0    steps in history (QN), initial steepest desc. (CG)
   ISIF   =      2    stress and relaxation
   IWAVPR =     11    prediction:  0-non 1-charg 2-wave 3-comb
   ISYM   =      0    0-nonsym 1-usesym 2-fastsym
   LCORR  =      T    Harris-Foulkes like correction to forces

   POTIM  = 0.2000    time-step for ionic-motion
   TEIN   =    0.0    initial temperature
   TEBEG  =    0.0;   TEEND  =   0.0 temperature during run
   SMASS  =  -3.00    Nose mass-parameter (am)
   estimated Nose-frequenzy (Omega)   =  0.10E-29 period in steps =****** mass=  -0.162E-26a.u.
   SCALEE = 1.0000    scale energy and forces
   NPACO  =    256;   APACO  = 16.0  distance and # of slots for P.C.
   PSTRESS=    0.0 pullay stress

  Mass of Ions in am
   POMASS =  12.01 16.00195.08
  Ionic Valenz
   ZVAL   =   4.00  6.00 10.00
  Atomic Wigner-Seitz radii
   RWIGS  =  -1.00 -1.00 -1.00
  virtual crystal weights 
   VCA    =   1.00  1.00  1.00
   NELECT =     376.0000    total number of electrons
   NUPDOWN=      -1.0000    fix difference up-down

 DOS related values:
   EMIN   =  10.00;   EMAX   =-10.00  energy-range for DOS
   EFERMI =   0.00
   ISMEAR =     1;   SIGMA  =   0.20  broadening in eV -4-tet -1-fermi 0-gaus

 Electronic relaxation 2 (details)
   IALGO  =     68    algorithm
   LDIAG  =      T    sub-space diagonalisation (order eigenvalues)
   LSUBROT=      F    optimize rotation matrix (better conditioning)
   TURBO    =      0    0=normal 1=particle mesh
   IRESTART =      0    0=no restart 2=restart with 2 vectors
   NREBOOT  =      0    no. of reboots
   NMIN     =      0    reboot dimension
   EREF     =   0.00    reference energy to select bands
   IMIX   =      4    mixing-type and parameters
     AMIX     =   0.40;   BMIX     =  1.00
     AMIX_MAG =   1.60;   BMIX_MAG =  1.00
     AMIN     =   0.10
     WC   =   100.;   INIMIX=   1;  MIXPRE=   1;  MAXMIX= -45

 Intra band minimization:
   WEIMIN = 0.0010     energy-eigenvalue tresh-hold
   EBREAK =  0.11E-06  absolut break condition
   DEPER  =   0.30     relativ break condition  

   TIME   =   0.40     timestep for ELM

  volume/ion in A,a.u.               =      34.49       232.77
  Fermi-wavevector in a.u.,A,eV,Ry     =   1.070385  2.022734 15.588510  1.145723
  Thomas-Fermi vector in A             =   2.206093
 
 Write flags
   LWAVE        =      F    write WAVECAR
   LDOWNSAMPLE  =      F    k-point downsampling of WAVECAR
   LCHARG       =      F    write CHGCAR
   LVTOT        =      F    write LOCPOT, total local potential
   LVHAR        =      F    write LOCPOT, Hartree potential only
   LELF         =      F    write electronic localiz. function (ELF)
   LORBIT       =      0    0 simple, 1 ext, 2 COOP (PROOUT), +10 PAW based schemes


 Dipole corrections
   LMONO  =      F    monopole corrections only (constant potential shift)
   LDIPOL =      F    correct potential (dipole corrections)
   IDIPOL =      0    1-x, 2-y, 3-z, 4-all directions 
   EPSILON=  1.0000000 bulk dielectric constant

 Exchange correlation treatment:
   GGA     =    --    GGA type
   LEXCH   =     8    internal setting for exchange type
   VOSKOWN=      0    Vosko Wilk Nusair interpolation
   LHFCALC =     F    Hartree Fock is set to
   LHFONE  =     F    Hartree Fock one center treatment
   AEXX    =    0.0000 exact exchange contribution

 Linear response parameters
   LEPSILON=     F    determine dielectric tensor
   LRPA    =     F    only Hartree local field effects (RPA)
   LNABLA  =     F    use nabla operator in PAW spheres
   LVEL    =     F    velocity operator in full k-point grid
   LINTERFAST=   F  fast interpolation
   KINTER  =     0    interpolate to denser k-point grid
   CSHIFT  =0.1000    complex shift for real part using Kramers Kronig
   OMEGAMAX=  -1.0    maximum frequency
   DEG_THRESHOLD= 0.2000000E-02 threshold for treating states as degnerate
   RTIME   =   -0.100 relaxation time in fs
  (WPLASMAI=    0.000 imaginary part of plasma frequency in eV, 0.658/RTIME)
   DFIELD  = 0.0000000 0.0000000 0.0000000 field for delta impulse in time
 
 Orbital magnetization related:
   ORBITALMAG=     F  switch on orbital magnetization
   LCHIMAG   =     F  perturbation theory with respect to B field
   DQ        =  0.001000  dq finite difference perturbation B field
   LLRAUG    =     F  two centre corrections for induced B field



--------------------------------------------------------------------------------------------------------


 quasi-Newton-method for relaxation of ions
   using selective dynamics as specified on POSCAR
 charge density and potential will be updated during run
 non-spin polarized calculation
 RMM-DIIS sequential band-by-band and
  variant of blocked Davidson during initial phase
 perform sub-space diagonalisation
    before iterative eigenvector-optimisation
 modified Broyden-mixing scheme, WC =      100.0
 initial mixing is a Kerker type mixing with AMIX =  0.4000 and BMIX =      1.0000
 Hartree-type preconditioning will be used
 using additional bands           40
 real space projection scheme for non local part
 use partial core corrections
 calculate Harris-corrections to forces 
   (improved forces if not selfconsistent)
 use gradient corrections 
 use of overlap-Matrix (Vanderbilt PP)
 Methfessel and Paxton  Order N= 1 SIGMA  =   0.20


--------------------------------------------------------------------------------------------------------


  energy-cutoff  :      450.00
  volume of cell :     1345.22
      direct lattice vectors                 reciprocal lattice vectors
     7.296955120 -4.212899000  0.000000000     0.137043463  0.000000000  0.000000000
     0.000000000  8.425798000  0.000000000     0.068521732  0.118683121  0.000000000
     0.000000000  0.000000000 21.879635000     0.000000000  0.000000000  0.045704602

  length of vectors
     8.425798004  8.425798000 21.879635000     0.137043463  0.137043463  0.045704602


 
 k-points in units of 2pi/SCALE and weight: mesh auto                               
   0.00000000  0.00000000  0.00000000       0.250
   0.06852173  0.00000000  0.00000000       0.250
   0.03426087  0.05934156  0.00000000       0.250
   0.10278260  0.05934156  0.00000000       0.250
 
 k-points in reciprocal lattice and weights: mesh auto                               
   0.00000000  0.00000000  0.00000000       0.250
   0.50000000  0.00000000  0.00000000       0.250
  -0.00000000  0.50000000  0.00000000       0.250
   0.50000000  0.50000000  0.00000000       0.250
 
 position of ions in fractional coordinates (direct lattice) 
   0.69781100  0.43160232  0.47760856
   0.90887752  0.38390525  0.46687815
   0.66967446  0.45845820  0.52749709
   0.98675500  0.32859100  0.07437600
   0.32008800  0.32859100  0.07437600
   0.65342200  0.32859100  0.07437600
   0.98675500  0.66192500  0.07437600
   0.32008800  0.66192500  0.07437600
   0.65342200  0.66192500  0.07437600
   0.32008800  0.99525800  0.07437600
   0.65342200  0.99525800  0.07437600
   0.98675500  0.99525800  0.07437600
   0.20897700  0.10636900  0.17918600
   0.54231100  0.10636900  0.17918600
   0.87564400  0.10636900  0.17918600
   0.20897700  0.43970300  0.17918600
   0.54231100  0.43970300  0.17918600
   0.87564400  0.43970300  0.17918600
   0.20897700  0.77303600  0.17918600
   0.54231100  0.77303600  0.17918600
   0.87564400  0.77303600  0.17918600
   0.09541762  0.55046011  0.28754910
   0.42937990  0.88497989  0.28228529
   0.76111577  0.21836119  0.28794766
   0.09493504  0.21531551  0.28438758
   0.43640874  0.21578940  0.27918759
   0.09430224  0.88571957  0.28347112
   0.76285397  0.88722927  0.28361074
   0.43266863  0.54798232  0.28256406
   0.76263825  0.54780450  0.28826542
   0.32738887  0.65746006  0.39082039
   0.65016330  0.98642198  0.38280026
   0.32289620  0.32767783  0.38386362
   0.99040823  0.99210710  0.38989951
   0.32336369  0.98889558  0.38981805
   0.64735423  0.32277986  0.39082748
   0.99828461  0.66288182  0.38618105
   0.98973872  0.32197343  0.39193776
   0.65596932  0.66072760  0.39466619
 
 position of ions in cartesian coordinates  (Angst):
   5.09189555  0.69678669 10.44990088
   6.63203849 -0.59430115 10.21512362
   4.88658444  1.04160535 11.54144375
   7.20030695 -1.38845776  1.62731973
   2.33566777  1.42014298  1.62731973
   4.76799101  0.01584050  1.62731973
   7.20030695  1.42014719  1.62731973
   2.33566777  4.22874793  1.62731973
   4.76799101  2.82444545  1.62731973
   2.33566777  7.03734445  1.62731973
   4.76799101  5.63304198  1.62731973
   7.20030695  4.22874371  1.62731973
   1.52489579  0.01584471  3.92052428
   3.95721903 -1.38845776  3.92052428
   6.38953497 -2.79275602  3.92052428
   1.52489579  2.82444966  3.92052428
   3.95721903  1.42014719  3.92052428
   6.38953497  0.01584893  3.92052428
   1.52489579  5.63304619  3.92052428
   3.95721903  4.22874371  3.92052428
   6.38953497  2.82444545  3.92052428
   0.69625808  4.23608092  6.29146945
   3.13316586  5.64772763  6.17629908
   5.55382758 -1.36663657  6.30018964
   0.69273671  1.41425325  6.22229647
   3.18445499 -0.02034807  6.10852259
   0.68811919  7.06560835  6.20224455
   5.56651119  4.26178785  6.20529957
   3.15716359  2.79439906  6.18239853
   5.56493705  1.40277216  6.30714212
   2.38894188  4.16036944  8.55100755
   4.74421245  5.57232004  8.37553001
   2.35615906  1.40061814  8.39879591
   7.22696438  4.18680422  8.53085907
   2.35957033  6.96993584  8.52907665
   4.72371477 -0.00756006  8.55116258
   7.28443799  1.37963609  8.44950047
   7.22207905 -1.45678621  8.57545521
   4.78657868  2.80362477  8.63515227
 


--------------------------------------------------------------------------------------------------------


 k-point  1 :   0.0000 0.0000 0.0000  plane waves:   29241
 k-point  2 :   0.5000 0.0000 0.0000  plane waves:   29108
 k-point  3 :  -0.0000 0.5000 0.0000  plane waves:   29108
 k-point  4 :   0.5000 0.5000 0.0000  plane waves:   29108

 maximum and minimum number of plane-waves per node :     14624    14548

 maximum number of plane-waves:     29241
 maximum index in each direction: 
   IXMAX=   14   IYMAX=   14   IZMAX=   37
   IXMIN=  -15   IYMIN=  -15   IZMIN=  -37


 real space projection operators:
  total allocation   :      13545.88 KBytes
  max/ min on nodes  :       6777.88       6768.00


 parallel 3D FFT for wavefunctions:
    minimum data exchange during FFTs selected (reduces bandwidth)
 parallel 3D FFT for charge:
    minimum data exchange during FFTs selected (reduces bandwidth)


 total amount of memory used by VASP MPI-rank0   131946. kBytes
=======================================================================

   base      :      30000. kBytes
   nonlr-proj:      10138. kBytes
   fftplans  :      13556. kBytes
   grid      :      23353. kBytes
   one-center:        311. kBytes
   wavefun   :      54588. kBytes
 
     INWAV:  cpu time    0.0000: real time    0.0000
 Broyden mixing: mesh for mixing (old mesh)
   NGX = 29   NGY = 29   NGZ = 75
  (NGX  = 96   NGY  = 96   NGZ  =240)
  gives a total of  63075 points

 initial charge density was supplied:
 charge density of overlapping atoms calculated
 number of electron     376.0000000 magnetization 
 keeping initial charge density in first step


--------------------------------------------------------------------------------------------------------


 Maximum index for non-local projection operator         1317
 Maximum index for augmentation-charges         1558 (set IRDMAX)


--------------------------------------------------------------------------------------------------------


 First call to EWALD:  gamma=   0.161
 Maximum number of real-space cells 4x 4x 2
 Maximum number of reciprocal cells 2x 2x 5

    FEWALD:  cpu time    0.0023: real time    0.0023


--------------------------------------- Iteration      1(   1)  ---------------------------------------


    POTLOK:  cpu time    0.1355: real time    0.2020
    SETDIJ:  cpu time    0.0103: real time    0.0104
     EDDAV:  cpu time    7.5866: real time    7.6474
       DOS:  cpu time    0.0009: real time    0.0009
    --------------------------------------------
      LOOP:  cpu time    7.7334: real time    7.8607

 eigenvalue-minimisations  :  1824
 total energy-change (2. order) : 0.2417322E+04  (-0.1594867E+05)
 number of electron     376.0000000 magnetization 
 augmentation part      376.0000000 magnetization 

 Free energy of the ion-electron system (eV)
  ---------------------------------------------------
  alpha Z        PSCENC =       975.10247152
  Ewald energy   TEWEN  =     90850.77618114
  -Hartree energ DENC   =   -119944.57243834
  -exchange      EXHF   =         0.00000000
  -V(xc)+E(xc)   XCENC  =       189.27210481
  PAW double counting   =     24789.08602224   -23775.73976456
  entropy T*S    EENTRO =         0.01344677
  eigenvalues    EBANDS =      2073.49031195
  atomic energy  EATOM  =     27259.89416086
  Solvation  Ediel_sol  =         0.00000000
  ---------------------------------------------------
  free energy    TOTEN  =      2417.32249639 eV

  energy without entropy =     2417.30904962  energy(sigma->0) =     2417.31801414


--------------------------------------------------------------------------------------------------------




--------------------------------------- Iteration      1(   2)  ---------------------------------------


     EDDAV:  cpu time    9.1673: real time    9.2427
       DOS:  cpu time    0.0010: real time    0.0010
    --------------------------------------------
      LOOP:  cpu time    9.1683: real time    9.2437

 eigenvalue-minimisations  :  2120
 total energy-change (2. order) :-0.2481520E+04  (-0.2308792E+04)
 number of electron     376.0000000 magnetization 
 augmentation part      376.0000000 magnetization 

 Free energy of the ion-electron system (eV)
  ---------------------------------------------------
  alpha Z        PSCENC =       975.10247152
  Ewald energy   TEWEN  =     90850.77618114
  -Hartree energ DENC   =   -119944.57243834
  -exchange      EXHF   =         0.00000000
  -V(xc)+E(xc)   XCENC  =       189.27210481
  PAW double counting   =     24789.08602224   -23775.73976456
  entropy T*S    EENTRO =         0.00251753
  eigenvalues    EBANDS =      -408.01923623
  atomic energy  EATOM  =     27259.89416086
  Solvation  Ediel_sol  =         0.00000000
  ---------------------------------------------------
  free energy    TOTEN  =       -64.19798102 eV

  energy without entropy =      -64.20049855  energy(sigma->0) =      -64.19882020


--------------------------------------------------------------------------------------------------------




--------------------------------------- Iteration      1(   3)  ---------------------------------------


     EDDAV:  cpu time    9.5178: real time    9.5962
       DOS:  cpu time    0.0010: real time    0.0010
    --------------------------------------------
      LOOP:  cpu time    9.5188: real time    9.5972

 eigenvalue-minimisations  :  2192
 total energy-change (2. order) :-0.1764983E+03  (-0.1601999E+03)
 number of electron     376.0000000 magnetization 
 augmentation part      376.0000000 magnetization 

 Free energy of the ion-electron system (eV)
  ---------------------------------------------------
  alpha Z        PSCENC =       975.10247152
  Ewald energy   TEWEN  =     90850.77618114
  -Hartree energ DENC   =   -119944.57243834
  -exchange      EXHF   =         0.00000000
  -V(xc)+E(xc)   XCENC  =       189.27210481
  PAW double counting   =     24789.08602224   -23775.73976456
  entropy T*S    EENTRO =        -0.00487678
  eigenvalues    EBANDS =      -584.51009573
  atomic energy  EATOM  =     27259.89416086
  Solvation  Ediel_sol  =         0.00000000
  ---------------------------------------------------
  free energy    TOTEN  =      -240.69623483 eV

  energy without entropy =     -240.69135805  energy(sigma->0) =     -240.69460924


--------------------------------------------------------------------------------------------------------




--------------------------------------- Iteration      1(   4)  ---------------------------------------


     EDDAV:  cpu time    9.5818: real time    9.6586
       DOS:  cpu time    0.0010: real time    0.0010
    --------------------------------------------
      LOOP:  cpu time    9.5829: real time    9.6597

 eigenvalue-minimisations  :  2336
 total energy-change (2. order) :-0.7448355E+01  (-0.7177694E+01)
 number of electron     376.0000000 magnetization 
 augmentation part      376.0000000 magnetization 

 Free energy of the ion-electron system (eV)
  ---------------------------------------------------
  alpha Z        PSCENC =       975.10247152
  Ewald energy   TEWEN  =     90850.77618114
  -Hartree energ DENC   =   -119944.57243834
  -exchange      EXHF   =         0.00000000
  -V(xc)+E(xc)   XCENC  =       189.27210481
  PAW double counting   =     24789.08602224   -23775.73976456
  entropy T*S    EENTRO =        -0.00339302
  eigenvalues    EBANDS =      -591.95993435
  atomic energy  EATOM  =     27259.89416086
  Solvation  Ediel_sol  =         0.00000000
  ---------------------------------------------------
  free energy    TOTEN  =      -248.14458970 eV

  energy without entropy =     -248.14119668  energy(sigma->0) =     -248.14345869


--------------------------------------------------------------------------------------------------------




--------------------------------------- Iteration      1(   5)  ---------------------------------------


     EDDAV:  cpu time    9.6228: real time    9.6995
       DOS:  cpu time    0.0010: real time    0.0011
    CHARGE:  cpu time    0.3876: real time    0.3906
    MIXING:  cpu time    0.0075: real time    0.0076
    --------------------------------------------
      LOOP:  cpu time   10.0190: real time   10.0987

 eigenvalue-minimisations  :  2296
 total energy-change (2. order) :-0.2111568E+00  (-0.2098461E+00)
 number of electron     376.0000050 magnetization 
 augmentation part      105.8279091 magnetization 

 Broyden mixing:
  rms(total) = 0.27239E+01    rms(broyden)= 0.27236E+01
  rms(prec ) = 0.30328E+01
  weight for this iteration     100.00

 Free energy of the ion-electron system (eV)
  ---------------------------------------------------
  alpha Z        PSCENC =       975.10247152
  Ewald energy   TEWEN  =     90850.77618114
  -Hartree energ DENC   =   -119944.57243834
  -exchange      EXHF   =         0.00000000
  -V(xc)+E(xc)   XCENC  =       189.27210481
  PAW double counting   =     24789.08602224   -23775.73976456
  entropy T*S    EENTRO =        -0.00328367
  eigenvalues    EBANDS =      -592.17120050
  atomic energy  EATOM  =     27259.89416086
  Solvation  Ediel_sol  =         0.00000000
  ---------------------------------------------------
  free energy    TOTEN  =      -248.35574648 eV

  energy without entropy =     -248.35246282  energy(sigma->0) =     -248.35465193


--------------------------------------------------------------------------------------------------------




--------------------------------------- Iteration      1(   6)  ---------------------------------------


    POTLOK:  cpu time    0.1333: real time    0.1342
    SETDIJ:  cpu time    0.0104: real time    0.0104
    EDDIAG:  cpu time    1.3298: real time    1.3400
  RMM-DIIS:  cpu time    4.4336: real time    4.4689
    ORTHCH:  cpu time    0.2158: real time    0.2173
       DOS:  cpu time    0.0011: real time    0.0011
    CHARGE:  cpu time    0.3722: real time    0.3754
    MIXING:  cpu time    0.0054: real time    0.0054
    --------------------------------------------
      LOOP:  cpu time    6.5016: real time    6.5527

 eigenvalue-minimisations  :  1831
 total energy-change (2. order) : 0.2913672E+01  (-0.5419644E+01)
 number of electron     376.0000065 magnetization 
 augmentation part      112.9383306 magnetization 

 Broyden mixing:
  rms(total) = 0.29322E+01    rms(broyden)= 0.29312E+01
  rms(prec ) = 0.39097E+01
  weight for this iteration     100.00

 eigenvalues of (default mixing * dielectric matrix)
  average eigenvalue GAMMA=   0.4888
  0.4888

 Free energy of the ion-electron system (eV)
  ---------------------------------------------------
  alpha Z        PSCENC =       975.10247152
  Ewald energy   TEWEN  =     90850.77618114
  -Hartree energ DENC   =   -119482.69817292
  -exchange      EXHF   =         0.00000000
  -V(xc)+E(xc)   XCENC  =       182.09309415
  PAW double counting   =     26700.05509744   -25740.13842645
  entropy T*S    EENTRO =        -0.15793656
  eigenvalues    EBANDS =      -990.36854324
  atomic energy  EATOM  =     27259.89416086
  Solvation  Ediel_sol  =         0.00000000
  ---------------------------------------------------
  free energy    TOTEN  =      -245.44207405 eV

  energy without entropy =     -245.28413750  energy(sigma->0) =     -245.38942853


--------------------------------------------------------------------------------------------------------




--------------------------------------- Iteration      1(   7)  ---------------------------------------


    POTLOK:  cpu time    0.1243: real time    0.1253
    SETDIJ:  cpu time    0.0097: real time    0.0097
    EDDIAG:  cpu time    1.2906: real time    1.3006
  RMM-DIIS:  cpu time    4.5682: real time    4.6058
    ORTHCH:  cpu time    0.2196: real time    0.2215
       DOS:  cpu time    0.0011: real time    0.0545
    CHARGE:  cpu time    0.4091: real time    0.4126
    MIXING:  cpu time    0.0044: real time    0.0045
    --------------------------------------------
      LOOP:  cpu time    6.6269: real time    6.7345

 eigenvalue-minimisations  :  1830
 total energy-change (2. order) : 0.3287477E+01  (-0.3212217E+01)
 number of electron     376.0000063 magnetization 
 augmentation part      111.3681638 magnetization 

 Broyden mixing:
  rms(total) = 0.20130E+01    rms(broyden)= 0.20121E+01
  rms(prec ) = 0.32847E+01
  weight for this iteration     100.00

 eigenvalues of (default mixing * dielectric matrix)
  average eigenvalue GAMMA=   0.6003
  0.9481  0.2524

 Free energy of the ion-electron system (eV)
  ---------------------------------------------------
  alpha Z        PSCENC =       975.10247152
  Ewald energy   TEWEN  =     90850.77618114
  -Hartree energ DENC   =   -119677.70389151
  -exchange      EXHF   =         0.00000000
  -V(xc)+E(xc)   XCENC  =       179.76990764
  PAW double counting   =     27340.34688882   -26387.69178640
  entropy T*S    EENTRO =        -0.08859919
  eigenvalues    EBANDS =      -782.55992952
  atomic energy  EATOM  =     27259.89416086
  Solvation  Ediel_sol  =         0.00000000
  ---------------------------------------------------
  free energy    TOTEN  =      -242.15459663 eV

  energy without entropy =     -242.06599744  energy(sigma->0) =     -242.12506356


--------------------------------------------------------------------------------------------------------




--------------------------------------- Iteration      1(   8)  ---------------------------------------


    POTLOK:  cpu time    0.1318: real time    0.1329
    SETDIJ:  cpu time    0.0095: real time    0.0095
    EDDIAG:  cpu time    1.2620: real time    1.2724
  RMM-DIIS:  cpu time    4.6909: real time    4.7296
    ORTHCH:  cpu time    0.2191: real time    0.2208
       DOS:  cpu time    0.0010: real time    0.0010
    CHARGE:  cpu time    0.3949: real time    0.3979
    MIXING:  cpu time    0.0042: real time    0.0043
    --------------------------------------------
      LOOP:  cpu time    6.7134: real time    6.7684

 eigenvalue-minimisations  :  1826
 total energy-change (2. order) :-0.2681805E+01  (-0.9356139E+00)
 number of electron     376.0000055 magnetization 
 augmentation part      112.0881723 magnetization 

 Broyden mixing:
  rms(total) = 0.22965E+01    rms(broyden)= 0.22963E+01
  rms(prec ) = 0.42005E+01
  weight for this iteration     100.00

 eigenvalues of (default mixing * dielectric matrix)
  average eigenvalue GAMMA=   0.5424
  1.1922  0.2866  0.1483

 Free energy of the ion-electron system (eV)
  ---------------------------------------------------
  alpha Z        PSCENC =       975.10247152
  Ewald energy   TEWEN  =     90850.77618114
  -Hartree energ DENC   =   -119623.26490490
  -exchange      EXHF   =         0.00000000
  -V(xc)+E(xc)   XCENC  =       178.68000554
  PAW double counting   =     27996.03434707   -27053.82645809
  entropy T*S    EENTRO =        -0.11843469
  eigenvalues    EBANDS =      -828.11376961
  atomic energy  EATOM  =     27259.89416086
  Solvation  Ediel_sol  =         0.00000000
  ---------------------------------------------------
  free energy    TOTEN  =      -244.83640115 eV

  energy without entropy =     -244.71796647  energy(sigma->0) =     -244.79692292


--------------------------------------------------------------------------------------------------------




--------------------------------------- Iteration      1(   9)  ---------------------------------------


    POTLOK:  cpu time    0.1237: real time    0.1246
    SETDIJ:  cpu time    0.0101: real time    0.0102
    EDDIAG:  cpu time    1.4140: real time    1.4249
  RMM-DIIS:  cpu time    4.9827: real time    5.0212
    ORTHCH:  cpu time    0.2196: real time    0.2213
       DOS:  cpu time    0.0011: real time    0.0011
    CHARGE:  cpu time    0.4048: real time    0.4078
    MIXING:  cpu time    0.0048: real time    0.0048
    --------------------------------------------
      LOOP:  cpu time    7.1608: real time    7.2159

 eigenvalue-minimisations  :  1831
 total energy-change (2. order) : 0.1312975E+02  (-0.4675681E+00)
 number of electron     376.0000058 magnetization 
 augmentation part      112.7003962 magnetization 

 Broyden mixing:
  rms(total) = 0.89903E+00    rms(broyden)= 0.89874E+00
  rms(prec ) = 0.12269E+01
  weight for this iteration     100.00

 eigenvalues of (default mixing * dielectric matrix)
  average eigenvalue GAMMA=   0.5245
  1.2993  0.3347  0.3347  0.1295

 Free energy of the ion-electron system (eV)
  ---------------------------------------------------
  alpha Z        PSCENC =       975.10247152
  Ewald energy   TEWEN  =     90850.77618114
  -Hartree energ DENC   =   -119576.81088112
  -exchange      EXHF   =         0.00000000
  -V(xc)+E(xc)   XCENC  =       178.06911401
  PAW double counting   =     28659.81009019   -27728.00968425
  entropy T*S    EENTRO =        -0.05036188
  eigenvalues    EBANDS =      -850.48774627
  atomic energy  EATOM  =     27259.89416086
  Solvation  Ediel_sol  =         0.00000000
  ---------------------------------------------------
  free energy    TOTEN  =      -231.70665580 eV

  energy without entropy =     -231.65629391  energy(sigma->0) =     -231.68986850


--------------------------------------------------------------------------------------------------------




--------------------------------------- Iteration      1(  10)  ---------------------------------------


    POTLOK:  cpu time    0.1405: real time    0.1416
    SETDIJ:  cpu time    0.0101: real time    0.0102
    EDDIAG:  cpu time    1.4512: real time    1.4627
  RMM-DIIS:  cpu time    4.9266: real time    4.9687
    ORTHCH:  cpu time    0.2089: real time    0.2107
       DOS:  cpu time    0.0010: real time    0.0010
    CHARGE:  cpu time    0.3982: real time    0.4011
    MIXING:  cpu time    0.0053: real time    0.0053
    --------------------------------------------
      LOOP:  cpu time    7.1419: real time    7.2012

 eigenvalue-minimisations  :  1831
 total energy-change (2. order) : 0.1086692E+01  (-0.1555727E+00)
 number of electron     376.0000059 magnetization 
 augmentation part      112.7947673 magnetization 

 Broyden mixing:
  rms(total) = 0.55766E+00    rms(broyden)= 0.55761E+00
  rms(prec ) = 0.72547E+00
  weight for this iteration     100.00

 eigenvalues of (default mixing * dielectric matrix)
  average eigenvalue GAMMA=   0.5434
  1.3997  0.5171  0.4202  0.1325  0.2476

 Free energy of the ion-electron system (eV)
  ---------------------------------------------------
  alpha Z        PSCENC =       975.10247152
  Ewald energy   TEWEN  =     90850.77618114
  -Hartree energ DENC   =   -119569.52301072
  -exchange      EXHF   =         0.00000000
  -V(xc)+E(xc)   XCENC  =       177.96556794
  PAW double counting   =     28972.25039228   -28044.73336061
  entropy T*S    EENTRO =         0.01308757
  eigenvalues    EBANDS =      -852.36545341
  atomic energy  EATOM  =     27259.89416086
  Solvation  Ediel_sol  =         0.00000000
  ---------------------------------------------------
  free energy    TOTEN  =      -230.61996343 eV

  energy without entropy =     -230.63305100  energy(sigma->0) =     -230.62432595


--------------------------------------------------------------------------------------------------------




--------------------------------------- Iteration      1(  11)  ---------------------------------------


    POTLOK:  cpu time    0.1352: real time    0.1364
    SETDIJ:  cpu time    0.0099: real time    0.0100
    EDDIAG:  cpu time    1.7989: real time    1.8108
  RMM-DIIS:  cpu time    5.2464: real time    5.2870
    ORTHCH:  cpu time    0.2276: real time    0.2292
       DOS:  cpu time    0.0011: real time    0.0011
    CHARGE:  cpu time    0.4102: real time    0.4131
    MIXING:  cpu time    0.0060: real time    0.0061
    --------------------------------------------
      LOOP:  cpu time    7.8354: real time    7.8937

 eigenvalue-minimisations  :  1831
 total energy-change (2. order) : 0.4195102E+00  (-0.4557089E-01)
 number of electron     376.0000060 magnetization 
 augmentation part      112.9272201 magnetization 

 Broyden mixing:
  rms(total) = 0.31244E+00    rms(broyden)= 0.31216E+00
  rms(prec ) = 0.40558E+00
  weight for this iteration     100.00

 eigenvalues of (default mixing * dielectric matrix)
  average eigenvalue GAMMA=   0.5754
  1.5338  0.8212  0.3688  0.3688  0.1313  0.2284

 Free energy of the ion-electron system (eV)
  ---------------------------------------------------
  alpha Z        PSCENC =       975.10247152
  Ewald energy   TEWEN  =     90850.77618114
  -Hartree energ DENC   =   -119564.11980288
  -exchange      EXHF   =         0.00000000
  -V(xc)+E(xc)   XCENC  =       177.98029707
  PAW double counting   =     29267.13882597   -28343.41963077
  entropy T*S    EENTRO =        -0.02485884
  eigenvalues    EBANDS =      -853.52809728
  atomic energy  EATOM  =     27259.89416086
  Solvation  Ediel_sol  =         0.00000000
  ---------------------------------------------------
  free energy    TOTEN  =      -230.20045320 eV

  energy without entropy =     -230.17559436  energy(sigma->0) =     -230.19216692


--------------------------------------------------------------------------------------------------------




--------------------------------------- Iteration      1(  12)  ---------------------------------------


    POTLOK:  cpu time    0.1409: real time    0.1420
    SETDIJ:  cpu time    0.0103: real time    0.0104
    EDDIAG:  cpu time    1.4589: real time    1.4698
  RMM-DIIS:  cpu time    5.2430: real time    5.2822
    ORTHCH:  cpu time    0.2174: real time    0.2191
       DOS:  cpu time    0.0011: real time    0.0011
    CHARGE:  cpu time    0.3656: real time    0.3683
    MIXING:  cpu time    0.0046: real time    0.0047
    --------------------------------------------
      LOOP:  cpu time    7.4420: real time    7.4976

 eigenvalue-minimisations  :  1843
 total energy-change (2. order) : 0.1490663E+00  (-0.1877060E-01)
 number of electron     376.0000060 magnetization 
 augmentation part      112.9932925 magnetization 

 Broyden mixing:
  rms(total) = 0.20548E+00    rms(broyden)= 0.20541E+00
  rms(prec ) = 0.24581E+00
  weight for this iteration     100.00

 eigenvalues of (default mixing * dielectric matrix)
  average eigenvalue GAMMA=   0.6387
  1.7774  1.0116  0.5133  0.5133  0.1316  0.2774  0.2460

 Free energy of the ion-electron system (eV)
  ---------------------------------------------------
  alpha Z        PSCENC =       975.10247152
  Ewald energy   TEWEN  =     90850.77618114
  -Hartree energ DENC   =   -119554.03276894
  -exchange      EXHF   =         0.00000000
  -V(xc)+E(xc)   XCENC  =       177.94882388
  PAW double counting   =     29523.13815210   -28602.54519362
  entropy T*S    EENTRO =        -0.02337549
  eigenvalues    EBANDS =      -860.30983832
  atomic energy  EATOM  =     27259.89416086
  Solvation  Ediel_sol  =         0.00000000
  ---------------------------------------------------
  free energy    TOTEN  =      -230.05138687 eV

  energy without entropy =     -230.02801138  energy(sigma->0) =     -230.04359504


--------------------------------------------------------------------------------------------------------




--------------------------------------- Iteration      1(  13)  ---------------------------------------


    POTLOK:  cpu time    0.1262: real time    0.1271
    SETDIJ:  cpu time    0.0098: real time    0.0098
    EDDIAG:  cpu time    1.2718: real time    1.2813
  RMM-DIIS:  cpu time    4.3216: real time    4.3551
    ORTHCH:  cpu time    0.2199: real time    0.2214
       DOS:  cpu time    0.0011: real time    0.0011
    CHARGE:  cpu time    0.4064: real time    0.4095
    MIXING:  cpu time    0.0046: real time    0.0046
    --------------------------------------------
      LOOP:  cpu time    6.3613: real time    6.4100

 eigenvalue-minimisations  :  1831
 total energy-change (2. order) :-0.6506015E-02  (-0.1302639E-01)
 number of electron     376.0000059 magnetization 
 augmentation part      112.9999017 magnetization 

 Broyden mixing:
  rms(total) = 0.20140E+00    rms(broyden)= 0.20138E+00
  rms(prec ) = 0.25015E+00
  weight for this iteration     100.00

 eigenvalues of (default mixing * dielectric matrix)
  average eigenvalue GAMMA=   0.6798
  2.0456  1.0849  0.9258  0.1316  0.4133  0.3431  0.2693  0.2248

 Free energy of the ion-electron system (eV)
  ---------------------------------------------------
  alpha Z        PSCENC =       975.10247152
  Ewald energy   TEWEN  =     90850.77618114
  -Hartree energ DENC   =   -119552.20445749
  -exchange      EXHF   =         0.00000000
  -V(xc)+E(xc)   XCENC  =       177.86211782
  PAW double counting   =     29747.50647033   -28829.59039370
  entropy T*S    EENTRO =        -0.01945781
  eigenvalues    EBANDS =      -859.38498557
  atomic energy  EATOM  =     27259.89416086
  Solvation  Ediel_sol  =         0.00000000
  ---------------------------------------------------
  free energy    TOTEN  =      -230.05789289 eV

  energy without entropy =     -230.03843508  energy(sigma->0) =     -230.05140695


--------------------------------------------------------------------------------------------------------




--------------------------------------- Iteration      1(  14)  ---------------------------------------


    POTLOK:  cpu time    0.1311: real time    0.1321
    SETDIJ:  cpu time    0.0103: real time    0.0104
    EDDIAG:  cpu time    1.5711: real time    1.5823
  RMM-DIIS:  cpu time    4.4676: real time    4.5023
    ORTHCH:  cpu time    0.2117: real time    0.2133
       DOS:  cpu time    0.0011: real time    0.0011
    CHARGE:  cpu time    0.3719: real time    0.3746
    MIXING:  cpu time    0.0049: real time    0.0050
    --------------------------------------------
      LOOP:  cpu time    6.7699: real time    6.8210

 eigenvalue-minimisations  :  1832
 total energy-change (2. order) : 0.5649827E-01  (-0.7683342E-02)
 number of electron     376.0000059 magnetization 
 augmentation part      112.9814852 magnetization 

 Broyden mixing:
  rms(total) = 0.76944E-01    rms(broyden)= 0.76932E-01
  rms(prec ) = 0.90638E-01
  weight for this iteration     100.00

 eigenvalues of (default mixing * dielectric matrix)
  average eigenvalue GAMMA=   0.7302
  2.4154  1.2658  0.9174  0.6094  0.4315  0.1316  0.3243  0.2524  0.2240

 Free energy of the ion-electron system (eV)
  ---------------------------------------------------
  alpha Z        PSCENC =       975.10247152
  Ewald energy   TEWEN  =     90850.77618114
  -Hartree energ DENC   =   -119557.76796697
  -exchange      EXHF   =         0.00000000
  -V(xc)+E(xc)   XCENC  =       177.78148868
  PAW double counting   =     29933.12880102   -29017.38855981
  entropy T*S    EENTRO =        -0.01212402
  eigenvalues    EBANDS =      -851.51584704
  atomic energy  EATOM  =     27259.89416086
  Solvation  Ediel_sol  =         0.00000000
  ---------------------------------------------------
  free energy    TOTEN  =      -230.00139462 eV

  energy without entropy =     -229.98927060  energy(sigma->0) =     -229.99735328


--------------------------------------------------------------------------------------------------------




--------------------------------------- Iteration      1(  15)  ---------------------------------------


    POTLOK:  cpu time    0.1261: real time    0.1270
    SETDIJ:  cpu time    0.0091: real time    0.0091
    EDDIAG:  cpu time    1.2652: real time    1.2747
  RMM-DIIS:  cpu time    4.5967: real time    4.6329
    ORTHCH:  cpu time    0.2238: real time    0.2254
       DOS:  cpu time    0.0010: real time    0.0010
    CHARGE:  cpu time    0.3809: real time    0.3837
    MIXING:  cpu time    0.0056: real time    0.0057
    --------------------------------------------
      LOOP:  cpu time    6.6085: real time    6.6595

 eigenvalue-minimisations  :  1830
 total energy-change (2. order) : 0.1963959E-02  (-0.3482281E-02)
 number of electron     376.0000059 magnetization 
 augmentation part      112.9787110 magnetization 

 Broyden mixing:
  rms(total) = 0.66083E-01    rms(broyden)= 0.66059E-01
  rms(prec ) = 0.79592E-01
  weight for this iteration     100.00

 eigenvalues of (default mixing * dielectric matrix)
  average eigenvalue GAMMA=   0.7123
  2.5281  1.2888  0.8078  0.8078  0.1316  0.4236  0.3592  0.3014  0.2518  0.2230

 Free energy of the ion-electron system (eV)
  ---------------------------------------------------
  alpha Z        PSCENC =       975.10247152
  Ewald energy   TEWEN  =     90850.77618114
  -Hartree energ DENC   =   -119557.77762311
  -exchange      EXHF   =         0.00000000
  -V(xc)+E(xc)   XCENC  =       177.75694888
  PAW double counting   =     30035.71957384   -29121.10272131
  entropy T*S    EENTRO =        -0.01257074
  eigenvalues    EBANDS =      -850.35585175
  atomic energy  EATOM  =     27259.89416086
  Solvation  Ediel_sol  =         0.00000000
  ---------------------------------------------------
  free energy    TOTEN  =      -229.99943066 eV

  energy without entropy =     -229.98685992  energy(sigma->0) =     -229.99524042


--------------------------------------------------------------------------------------------------------




--------------------------------------- Iteration      1(  16)  ---------------------------------------


    POTLOK:  cpu time    0.1232: real time    0.1242
    SETDIJ:  cpu time    0.0094: real time    0.0095
    EDDIAG:  cpu time    1.2861: real time    1.2961
  RMM-DIIS:  cpu time    4.6709: real time    4.7086
    ORTHCH:  cpu time    0.2163: real time    0.2178
       DOS:  cpu time    0.0012: real time    0.0012
    CHARGE:  cpu time    0.3900: real time    0.3930
    MIXING:  cpu time    0.0058: real time    0.0058
    --------------------------------------------
      LOOP:  cpu time    6.7030: real time    6.7561

 eigenvalue-minimisations  :  1830
 total energy-change (2. order) : 0.6370982E-02  (-0.8993009E-03)
 number of electron     376.0000059 magnetization 
 augmentation part      112.9798623 magnetization 

 Broyden mixing:
  rms(total) = 0.29086E-01    rms(broyden)= 0.29083E-01
  rms(prec ) = 0.35357E-01
  weight for this iteration     100.00

 eigenvalues of (default mixing * dielectric matrix)
  average eigenvalue GAMMA=   0.6850
  2.5225  1.2764  0.8021  0.8021  0.5150  0.4124  0.1316  0.3168  0.2860  0.2467
  0.2230

 Free energy of the ion-electron system (eV)
  ---------------------------------------------------
  alpha Z        PSCENC =       975.10247152
  Ewald energy   TEWEN  =     90850.77618114
  -Hartree energ DENC   =   -119558.68052970
  -exchange      EXHF   =         0.00000000
  -V(xc)+E(xc)   XCENC  =       177.76493368
  PAW double counting   =     30060.11629170   -29145.74191242
  entropy T*S    EENTRO =        -0.01337458
  eigenvalues    EBANDS =      -849.21128188
  atomic energy  EATOM  =     27259.89416086
  Solvation  Ediel_sol  =         0.00000000
  ---------------------------------------------------
  free energy    TOTEN  =      -229.99305968 eV

  energy without entropy =     -229.97968510  energy(sigma->0) =     -229.98860149


--------------------------------------------------------------------------------------------------------




--------------------------------------- Iteration      1(  17)  ---------------------------------------


    POTLOK:  cpu time    0.1269: real time    0.1279
    SETDIJ:  cpu time    0.0102: real time    0.0103
    EDDIAG:  cpu time    1.2968: real time    1.3069
  RMM-DIIS:  cpu time    4.4943: real time    4.5313
    ORTHCH:  cpu time    0.2187: real time    0.2203
       DOS:  cpu time    0.0011: real time    0.0011
    CHARGE:  cpu time    0.3780: real time    0.3810
    MIXING:  cpu time    0.0057: real time    0.0057
    --------------------------------------------
      LOOP:  cpu time    6.5316: real time    6.5844

 eigenvalue-minimisations  :  1822
 total energy-change (2. order) : 0.9517951E-03  (-0.1990850E-03)
 number of electron     376.0000059 magnetization 
 augmentation part      112.9801459 magnetization 

 Broyden mixing:
  rms(total) = 0.15254E-01    rms(broyden)= 0.15249E-01
  rms(prec ) = 0.17988E-01
  weight for this iteration     100.00

 eigenvalues of (default mixing * dielectric matrix)
  average eigenvalue GAMMA=   0.7337
  2.4962  1.2291  1.2291  1.0939  0.7940  0.1316  0.4267  0.3671  0.3208  0.2560
  0.2219  0.2374

 Free energy of the ion-electron system (eV)
  ---------------------------------------------------
  alpha Z        PSCENC =       975.10247152
  Ewald energy   TEWEN  =     90850.77618114
  -Hartree energ DENC   =   -119559.24499364
  -exchange      EXHF   =         0.00000000
  -V(xc)+E(xc)   XCENC  =       177.77148938
  PAW double counting   =     30059.12904439   -29144.71722663
  entropy T*S    EENTRO =        -0.01363319
  eigenvalues    EBANDS =      -848.68960174
  atomic energy  EATOM  =     27259.89416086
  Solvation  Ediel_sol  =         0.00000000
  ---------------------------------------------------
  free energy    TOTEN  =      -229.99210789 eV

  energy without entropy =     -229.97847470  energy(sigma->0) =     -229.98756349


--------------------------------------------------------------------------------------------------------




--------------------------------------- Iteration      1(  18)  ---------------------------------------


    POTLOK:  cpu time    0.1194: real time    0.1204
    SETDIJ:  cpu time    0.0090: real time    0.0090
    EDDIAG:  cpu time    1.2991: real time    1.3086
  RMM-DIIS:  cpu time    4.2458: real time    4.2788
    ORTHCH:  cpu time    0.2107: real time    0.2123
       DOS:  cpu time    0.0011: real time    0.0011
    CHARGE:  cpu time    0.3718: real time    0.3745
    MIXING:  cpu time    0.0061: real time    0.0061
    --------------------------------------------
      LOOP:  cpu time    6.2630: real time    6.3108

 eigenvalue-minimisations  :  1802
 total energy-change (2. order) :-0.3059326E-03  (-0.9125157E-04)
 number of electron     376.0000059 magnetization 
 augmentation part      112.9770113 magnetization 

 Broyden mixing:
  rms(total) = 0.13318E-01    rms(broyden)= 0.13317E-01
  rms(prec ) = 0.16201E-01
  weight for this iteration     100.00

 eigenvalues of (default mixing * dielectric matrix)
  average eigenvalue GAMMA=   0.7437
  2.4718  1.7602  1.3573  0.8817  0.8817  0.1316  0.4184  0.4052  0.3432  0.3102
  0.2514  0.2217  0.2336

 Free energy of the ion-electron system (eV)
  ---------------------------------------------------
  alpha Z        PSCENC =       975.10247152
  Ewald energy   TEWEN  =     90850.77618114
  -Hartree energ DENC   =   -119560.51489161
  -exchange      EXHF   =         0.00000000
  -V(xc)+E(xc)   XCENC  =       177.78095482
  PAW double counting   =     30054.57345584   -29140.03982267
  entropy T*S    EENTRO =        -0.01318896
  eigenvalues    EBANDS =      -847.55173477
  atomic energy  EATOM  =     27259.89416086
  Solvation  Ediel_sol  =         0.00000000
  ---------------------------------------------------
  free energy    TOTEN  =      -229.99241382 eV

  energy without entropy =     -229.97922486  energy(sigma->0) =     -229.98801750


--------------------------------------------------------------------------------------------------------




--------------------------------------- Iteration      1(  19)  ---------------------------------------


    POTLOK:  cpu time    0.1203: real time    0.1213
    SETDIJ:  cpu time    0.0095: real time    0.0096
    EDDIAG:  cpu time    1.3026: real time    1.3129
  RMM-DIIS:  cpu time    3.5643: real time    3.5930
    ORTHCH:  cpu time    0.2176: real time    0.2193
       DOS:  cpu time    0.0011: real time    0.0011
    --------------------------------------------
      LOOP:  cpu time    5.2155: real time    5.2571

 eigenvalue-minimisations  :  1419
 total energy-change (2. order) : 0.3324813E-04  (-0.4572129E-04)
 number of electron     376.0000059 magnetization 
 augmentation part      112.9770113 magnetization 

 Free energy of the ion-electron system (eV)
  ---------------------------------------------------
  alpha Z        PSCENC =       975.10247152
  Ewald energy   TEWEN  =     90850.77618114
  -Hartree energ DENC   =   -119561.59012783
  -exchange      EXHF   =         0.00000000
  -V(xc)+E(xc)   XCENC  =       177.78819889
  PAW double counting   =     30052.66478140   -29138.06655110
  entropy T*S    EENTRO =        -0.01332258
  eigenvalues    EBANDS =      -846.54817287
  atomic energy  EATOM  =     27259.89416086
  Solvation  Ediel_sol  =         0.00000000
  ---------------------------------------------------
  free energy    TOTEN  =      -229.99238057 eV

  energy without entropy =     -229.97905799  energy(sigma->0) =     -229.98793971


--------------------------------------------------------------------------------------------------------




 average (electrostatic) potential at core
  the test charge radii are     0.6991  0.7215  1.2059
  (the norm of the test charge is              1.0000)
       1 -56.2908       2 -74.5778       3 -76.3669       4 -72.3241       5 -72.3060
       6 -72.3148       7 -72.3067       8 -72.3333       9 -72.3432      10 -72.2875
      11 -72.3402      12 -72.3013      13 -72.9128      14 -73.0351      15 -72.9453
      16 -72.9608      17 -73.0229      18 -72.8841      19 -72.9871      20 -73.0292
      21 -72.9526      22 -72.9406      23 -72.9827      24 -72.9809      25 -72.9865
      26 -73.0473      27 -73.0040      28 -72.9768      29 -72.9229      30 -72.8765
      31 -72.3135      32 -72.5653      33 -72.5051      34 -72.3312      35 -72.2874
      36 -73.1838      37 -72.5691      38 -73.2262      39 -72.2887
 
 
 
 E-fermi :   1.0911     XC(G=0):  -6.6325     alpha+bet : -6.8913


 k-point     1 :       0.0000    0.0000    0.0000
  band No.  band energies     occupation 
      1     -22.1995      2.00000
      2     -16.7283      2.00000
      3      -8.4135      2.00000
      4      -8.0668      2.00000
      5      -6.8214      2.00000
      6      -5.9510      2.00000
      7      -5.8040      2.00000
      8      -5.7172      2.00000
      9      -5.6781      2.00000
     10      -5.6592      2.00000
     11      -5.6149      2.00000
     12      -5.6025      2.00000
     13      -5.5499      2.00000
     14      -5.5021      2.00000
     15      -5.3752      2.00000
     16      -5.2192      2.00000
     17      -5.1043      2.00000
     18      -5.0767      2.00000
     19      -5.0495      2.00000
     20      -5.0264      2.00000
     21      -5.0040      2.00000
     22      -4.9713      2.00000
     23      -4.6575      2.00000
     24      -4.6137      2.00000
     25      -4.5457      2.00000
     26      -4.5152      2.00000
     27      -4.4914      2.00000
     28      -4.4858      2.00000
     29      -4.3998      2.00000
     30      -4.3559      2.00000
     31      -4.3366      2.00000
     32      -4.3121      2.00000
     33      -4.2921      2.00000
     34      -4.2418      2.00000
     35      -4.1560      2.00000
     36      -4.1377      2.00000
     37      -4.0994      2.00000
     38      -4.0748      2.00000
     39      -4.0657      2.00000
     40      -4.0610      2.00000
     41      -4.0442      2.00000
     42      -4.0203      2.00000
     43      -3.9999      2.00000
     44      -3.9955      2.00000
     45      -3.9771      2.00000
     46      -3.9357      2.00000
     47      -3.6579      2.00000
     48      -3.5383      2.00000
     49      -3.4613      2.00000
     50      -3.4447      2.00000
     51      -3.4318      2.00000
     52      -3.4047      2.00000
     53      -3.3900      2.00000
     54      -3.3750      2.00000
     55      -3.3481      2.00000
     56      -3.3348      2.00000
     57      -3.3011      2.00000
     58      -3.1899      2.00000
     59      -3.1702      2.00000
     60      -3.1052      2.00000
     61      -2.9888      2.00000
     62      -2.9713      2.00000
     63      -2.8262      2.00000
     64      -2.6213      2.00000
     65      -2.5844      2.00000
     66      -2.5675      2.00000
     67      -2.5431      2.00000
     68      -2.5154      2.00000
     69      -2.4919      2.00000
     70      -2.4709      2.00000
     71      -2.4603      2.00000
     72      -2.4106      2.00000
     73      -2.3943      2.00000
     74      -2.3855      2.00000
     75      -2.3662      2.00000
     76      -2.3585      2.00000
     77      -2.3344      2.00000
     78      -2.3220      2.00000
     79      -2.3113      2.00000
     80      -2.2993      2.00000
     81      -2.2857      2.00000
     82      -2.2746      2.00000
     83      -2.2676      2.00000
     84      -2.2317      2.00000
     85      -2.2007      2.00000
     86      -2.1454      2.00000
     87      -2.1237      2.00000
     88      -2.1123      2.00000
     89      -2.0808      2.00000
     90      -2.0414      2.00000
     91      -2.0250      2.00000
     92      -2.0074      2.00000
     93      -1.9421      2.00000
     94      -1.9350      2.00000
     95      -1.9074      2.00000
     96      -1.8825      2.00000
     97      -1.8568      2.00000
     98      -1.8181      2.00000
     99      -1.7916      2.00000
    100      -1.7746      2.00000
    101      -1.6694      2.00000
    102      -1.6306      2.00000
    103      -1.6220      2.00000
    104      -1.5585      2.00000
    105      -1.5401      2.00000
    106      -1.5331      2.00000
    107      -1.5085      2.00000
    108      -1.4918      2.00000
    109      -1.4862      2.00000
    110      -1.4836      2.00000
    111      -1.4572      2.00000
    112      -1.4411      2.00000
    113      -1.4203      2.00000
    114      -1.2901      2.00000
    115      -1.2528      2.00000
    116      -1.1173      2.00000
    117      -1.1125      2.00000
    118      -1.0808      2.00000
    119      -1.0596      2.00000
    120      -1.0387      2.00000
    121      -0.9515      2.00000
    122      -0.9096      2.00000
    123      -0.8853      2.00000
    124      -0.8621      2.00000
    125      -0.8332      2.00000
    126      -0.8042      2.00000
    127      -0.7888      2.00000
    128      -0.7509      2.00000
    129      -0.6959      2.00000
    130      -0.6755      2.00000
    131      -0.6582      2.00000
    132      -0.6330      2.00000
    133      -0.6016      2.00000
    134      -0.5452      2.00000
    135      -0.4789      2.00000
    136      -0.4360      2.00000
    137      -0.4123      2.00000
    138      -0.3675      2.00000
    139      -0.3512      2.00000
    140      -0.3438      2.00000
    141      -0.2230      2.00000
    142      -0.2174      2.00000
    143      -0.1938      2.00000
    144      -0.1689      2.00000
    145      -0.1571      2.00000
    146      -0.1309      2.00000
    147      -0.0568      2.00000
    148      -0.0296      2.00000
    149      -0.0026      2.00000
    150       0.0636      2.00000
    151       0.1039      2.00000
    152       0.1185      2.00000
    153       0.1224      2.00000
    154       0.1453      2.00000
    155       0.1545      2.00000
    156       0.1966      2.00000
    157       0.2319      2.00000
    158       0.2548      2.00000
    159       0.2789      2.00000
    160       0.2936      2.00000
    161       0.3112      2.00000
    162       0.3228      2.00000
    163       0.3358      2.00000
    164       0.3399      2.00000
    165       0.3549      2.00000
    166       0.3904      2.00001
    167       0.4145      2.00002
    168       0.4467      2.00005
    169       0.4538      2.00006
    170       0.5101      2.00031
    171       0.5294      2.00052
    172       0.5401      2.00069
    173       0.5958      2.00257
    174       0.6076      2.00332
    175       0.6132      2.00374
    176       0.6450      2.00708
    177       0.6646      2.01017
    178       0.6780      2.01286
    179       0.6957      2.01722
    180       0.7192      2.02451
    181       0.7481      2.03580
    182       0.7745      2.04769
    183       0.7895      2.05457
    184       0.7935      2.05635
    185       0.8034      2.06055
    186       0.8191      2.06627
    187       0.8250      2.06795
    188       0.8325      2.06962
    189       0.8446      2.07090
    190       0.8506      2.07076
    191       0.8616      2.06887
    192       0.8690      2.06622
    193       0.8869      2.05434
    194       0.9197      2.00640
    195       0.9372      1.96363
    196       1.0748      1.13703
    197       1.0891      1.01729
    198       1.1635      0.42968
    199       1.1797      0.32567
    200       1.2197      0.12337
    201       1.2204      0.12060
    202       1.2321      0.07667
    203       1.2426      0.04324
    204       1.3927     -0.05457
    205       1.4651     -0.02379
    206       1.9375     -0.00000
    207       1.9958     -0.00000
    208       2.0395     -0.00000
    209       2.0760     -0.00000
    210       2.2029     -0.00000
    211       2.5228     -0.00000
    212       3.4791     -0.00000
    213       3.9427     -0.00000
    214       4.3278     -0.00000
    215       4.3501     -0.00000
    216       4.4152     -0.00000
    217       4.5584     -0.00000
    218       4.8147     -0.00000
    219       5.3853     -0.00000
    220       5.5892     -0.00000
    221       5.8602     -0.00000
    222       5.8763     -0.00000
    223       5.9176     -0.00000
    224       5.9486     -0.00000
    225       5.9786     -0.00000
    226       6.1132     -0.00000
    227       6.5523      0.00000
    228       6.7940      0.00000

 k-point     2 :       0.5000    0.0000    0.0000
  band No.  band energies     occupation 
      1     -22.1994      2.00000
      2     -16.7280      2.00000
      3      -8.3727      2.00000
      4      -7.2560      2.00000
      5      -7.2041      2.00000
      6      -6.1402      2.00000
      7      -5.9764      2.00000
      8      -5.8596      2.00000
      9      -5.7873      2.00000
     10      -5.6666      2.00000
     11      -5.4771      2.00000
     12      -5.4083      2.00000
     13      -5.2727      2.00000
     14      -5.2360      2.00000
     15      -4.9415      2.00000
     16      -4.9344      2.00000
     17      -4.8873      2.00000
     18      -4.8397      2.00000
     19      -4.8296      2.00000
     20      -4.8280      2.00000
     21      -4.8079      2.00000
     22      -4.7900      2.00000
     23      -4.7635      2.00000
     24      -4.7364      2.00000
     25      -4.7256      2.00000
     26      -4.6734      2.00000
     27      -4.6543      2.00000
     28      -4.6277      2.00000
     29      -4.6191      2.00000
     30      -4.5250      2.00000
     31      -4.3738      2.00000
     32      -4.3496      2.00000
     33      -4.3105      2.00000
     34      -4.2853      2.00000
     35      -4.2377      2.00000
     36      -4.1335      2.00000
     37      -4.0367      2.00000
     38      -4.0034      2.00000
     39      -3.9800      2.00000
     40      -3.9714      2.00000
     41      -3.9490      2.00000
     42      -3.8761      2.00000
     43      -3.8589      2.00000
     44      -3.8239      2.00000
     45      -3.7445      2.00000
     46      -3.7033      2.00000
     47      -3.6741      2.00000
     48      -3.6449      2.00000
     49      -3.6046      2.00000
     50      -3.5859      2.00000
     51      -3.5068      2.00000
     52      -3.4239      2.00000
     53      -3.3765      2.00000
     54      -3.3647      2.00000
     55      -3.3479      2.00000
     56      -3.3341      2.00000
     57      -3.2079      2.00000
     58      -3.1768      2.00000
     59      -3.1399      2.00000
     60      -3.1262      2.00000
     61      -3.0940      2.00000
     62      -3.0535      2.00000
     63      -3.0318      2.00000
     64      -2.9901      2.00000
     65      -2.9601      2.00000
     66      -2.9431      2.00000
     67      -2.8782      2.00000
     68      -2.8601      2.00000
     69      -2.8266      2.00000
     70      -2.7876      2.00000
[...]
     89      -2.1446      2.00000
     90      -2.1261      2.00000
     91      -2.0927      2.00000
     92      -2.0842      2.00000
     93      -2.0579      2.00000
     94      -1.9754      2.00000
     95      -1.9531      2.00000
     96      -1.9447      2.00000
     97      -1.8914      2.00000
     98      -1.8577      2.00000
     99      -1.8341      2.00000
    100      -1.8088      2.00000
    101      -1.7759      2.00000
    102      -1.7365      2.00000
    103      -1.7151      2.00000
    104      -1.6909      2.00000
    105      -1.6765      2.00000
    106      -1.6473      2.00000
    107      -1.6314      2.00000
    108      -1.6010      2.00000
    109      -1.5592      2.00000
    110      -1.5263      2.00000
    111      -1.4857      2.00000
    112      -1.4321      2.00000
    113      -1.3985      2.00000
    114      -1.3135      2.00000
    115      -1.2793      2.00000
    116      -1.2701      2.00000
    117      -1.2183      2.00000
    118      -1.1574      2.00000
    119      -1.1421      2.00000
    120      -1.0939      2.00000
    121      -1.0615      2.00000
    122      -1.0508      2.00000
    123      -1.0264      2.00000
    124      -0.9973      2.00000
    125      -0.9778      2.00000
    126      -0.9614      2.00000
    127      -0.9445      2.00000
    128      -0.9123      2.00000
    129      -0.8864      2.00000
    130      -0.8724      2.00000
    131      -0.8503      2.00000
    132      -0.7887      2.00000
    133      -0.7447      2.00000
    134      -0.7302      2.00000
    135      -0.7029      2.00000
    136      -0.6746      2.00000
    137      -0.6656      2.00000
    138      -0.6206      2.00000
    139      -0.5636      2.00000
    140      -0.5280      2.00000
    141      -0.4730      2.00000
    142      -0.4354      2.00000
    143      -0.3605      2.00000
    144      -0.2726      2.00000
    145      -0.2408      2.00000
    146      -0.1670      2.00000
    147      -0.1339      2.00000
    148      -0.1147      2.00000
    149      -0.0716      2.00000
    150      -0.0270      2.00000
    151      -0.0137      2.00000
    152       0.0648      2.00000
    153       0.0792      2.00000
    154       0.0949      2.00000
    155       0.1062      2.00000
    156       0.1184      2.00000
    157       0.1303      2.00000
    158       0.1862      2.00000
    159       0.1989      2.00000
    160       0.2330      2.00000
    161       0.2582      2.00000
    162       0.3146      2.00000
    163       0.3282      2.00000
    164       0.3391      2.00000
    165       0.3917      2.00001
    166       0.4008      2.00001
    167       0.5466      2.00063
    168       0.5668      2.00103
    169       0.6081      2.00269
    170       0.6181      2.00334
    171       0.6490      2.00627
    172       0.6915      2.01358
    173       0.7300      2.02467
    174       0.7928      2.05142
    175       0.7986      2.05405
    176       0.8212      2.06348
    177       0.8379      2.06860
    178       0.8739      2.06828
    179       0.9121      2.03736
    180       0.9375      1.98973
    181       0.9557      1.93896
    182       1.0225      1.61355
    183       1.0536      1.39171
    184       1.0911      1.08739
    185       1.1016      0.99824
    186       1.1052      0.96763
    187       1.1262      0.79213
    188       1.1583      0.53956
    189       1.1714      0.44619
    190       1.1932      0.30643
    191       1.3000     -0.04881
    192       1.3496     -0.07084
    193       1.3778     -0.06483
    194       1.3949     -0.05815
    195       1.4049     -0.05371
    196       1.4868     -0.02010
    197       1.5929     -0.00279
    198       1.7229     -0.00010
    199       1.8285     -0.00000
    200       1.9958     -0.00000
    201       2.2627     -0.00000
    202       2.3261     -0.00000
    203       2.7955     -0.00000
    204       2.9532     -0.00000
    205       2.9660     -0.00000
    206       3.0033     -0.00000
    207       3.0249     -0.00000
    208       3.1852     -0.00000
    209       3.3777     -0.00000
    210       3.5265     -0.00000
    211       3.5557     -0.00000
    212       3.6165     -0.00000
    213       3.7043     -0.00000
    214       3.8294     -0.00000
    215       3.9284     -0.00000
    216       4.1623     -0.00000
    217       4.1964     -0.00000
    218       4.3888     -0.00000
    219       4.4333     -0.00000
    220       4.6280     -0.00000
    221       4.6519     -0.00000
    222       4.8026     -0.00000
    223       5.0925     -0.00000
    224       5.4681     -0.00000
    225       5.8416     -0.00000
    226       6.5149     -0.00000
    227       6.5733      0.00000
    228       6.6179      0.00000


--------------------------------------------------------------------------------------------------------


 soft charge-density along one line, spin component           1
         0         1         2         3         4         5         6         7         8         9
 total charge-density along one line
 
 pseudopotential strength for first ion, spin component:           1
 10.097   0.015   0.004   0.012  -0.000  -0.004  -0.011   0.000
  0.015  -0.002  -0.000  -0.000  -0.000  -0.000  -0.000   0.000
  0.004  -0.000  -4.247  -0.006   0.001  -0.010  -0.002   0.000
  0.012  -0.000  -0.006  -4.263   0.004  -0.002  -0.016   0.001
 -0.000  -0.000   0.001   0.004  -4.246   0.000   0.001  -0.009
 -0.004  -0.000  -0.010  -0.002   0.000  -0.770  -0.000   0.000
 -0.011  -0.000  -0.002  -0.016   0.001  -0.000  -0.770   0.000
  0.000   0.000   0.000   0.001  -0.009   0.000   0.000  -0.770
 total augmentation occupancy for first ion, spin component:           1
  1.640  -0.857   0.011   0.019  -0.052   0.032   0.093  -0.026
 -0.857   1.243  -0.204  -0.600   0.110  -0.080  -0.242   0.040
  0.011  -0.204   0.832   0.184  -0.004   0.111   0.050  -0.006
  0.019  -0.600   0.184   1.332  -0.032   0.050   0.247  -0.015
 -0.052   0.110  -0.004  -0.032   0.781  -0.006  -0.016   0.098
  0.032  -0.080   0.111   0.050  -0.006   0.019   0.020  -0.003
  0.093  -0.242   0.050   0.247  -0.016   0.020   0.072  -0.008
 -0.026   0.040  -0.006  -0.015   0.098  -0.003  -0.008   0.014


------------------------ aborting loop because EDIFF is reached ----------------------------------------


    CHARGE:  cpu time    0.3592: real time    0.3615
    FORLOC:  cpu time    0.0443: real time    0.0446
    FORNL :  cpu time    2.0801: real time    2.0936
    STRESS:  cpu time    6.5974: real time    6.6390
    FORCOR:  cpu time    0.1582: real time    0.1592
    FORHAR:  cpu time    0.0728: real time    0.0733
    MIXING:  cpu time    0.0055: real time    0.0055
    OFIELD:  cpu time    0.0000: real time    0.0000

  FORCE on cell =-STRESS in cart. coord.  units (eV):
  Direction    XX          YY          ZZ          XY          YZ          ZX
  --------------------------------------------------------------------------------------
  Alpha Z   975.10247   975.10247   975.10247
  Ewald  110564.05315110588.23524************  -204.67943   226.25383  -112.38708
  Hartree117345.93827117335.52890************  -134.82493    92.94565   -61.51277
  E(xc)   -1665.48932 -1665.23406 -1672.70813    -0.47373     0.68391    -0.26318
  Local  ************************238569.04752   328.75826  -296.01826   165.24047
  n-local   121.69345   120.27115    84.46000    -1.13192     0.86140    -0.10455
  augment  1895.24450  1893.82681  1933.58040     2.84459    -4.30897     1.35599
  Kinetic  5522.23313  5514.09962  5599.49929    10.17544   -20.71425     8.22334
  Fock        0.00000     0.00000     0.00000     0.00000     0.00000     0.00000
  -------------------------------------------------------------------------------------
  Total     -37.79236   -40.37643    -5.80442     0.66828    -0.29669     0.55222
  in kB     -45.01133   -48.08900    -6.91316     0.79593    -0.35336     0.65770
  external pressure =      -33.34 kB  Pullay stress =        0.00 kB


 VOLUME and BASIS-vectors are now :
 -----------------------------------------------------------------------------
  energy-cutoff  :      450.00
  volume of cell :     1345.22
      direct lattice vectors                 reciprocal lattice vectors
     7.296955120 -4.212899000  0.000000000     0.137043463  0.000000000  0.000000000
     0.000000000  8.425798000  0.000000000     0.068521732  0.118683121  0.000000000
     0.000000000  0.000000000 21.879635000     0.000000000  0.000000000  0.045704602

  length of vectors
     8.425798004  8.425798000 21.879635000     0.137043463  0.137043463  0.045704602


 FORCES acting on ions
    electron-ion (+dipol)            ewald-force                    non-local-force                 convergence-correction
 -----------------------------------------------------------------------------------------------
   0.897E+01 0.151E+02 -.866E+03   -.929E+01 -.200E+02 0.852E+03   -.237E-01 0.362E+01 0.115E+02   -.109E-01 0.144E-01 0.560E-01
   -.756E+02 0.531E+02 -.160E+04   0.762E+02 -.497E+02 0.162E+04   0.338E-01 -.323E+01 -.236E+02   -.827E-02 0.568E-02 0.340E-01
   0.642E+02 -.946E+02 -.154E+04   -.739E+02 0.114E+03 0.160E+04   0.975E+01 -.193E+02 -.587E+02   -.103E-02 -.119E-01 -.644E-03
   0.245E-01 -.619E+00 0.233E+04   -.514E-01 0.573E+00 -.233E+04   0.103E-01 -.242E-01 -.119E+01   0.533E-01 0.139E-01 0.141E-01
   0.514E+00 -.960E+00 0.234E+04   -.585E+00 0.842E+00 -.234E+04   0.650E-02 -.206E-01 -.113E+01   0.155E-01 0.902E-01 0.323E-01
   -.168E+01 -.239E+00 0.234E+04   0.161E+01 0.271E+00 -.233E+04   0.457E-01 -.217E-01 -.114E+01   -.125E-01 -.640E-02 -.156E-01
   0.433E+00 0.786E+00 0.233E+04   -.413E+00 -.680E+00 -.233E+04   -.142E-01 0.116E-01 -.118E+01   0.235E-01 -.791E-01 -.248E-01
   0.893E+00 0.402E+00 0.234E+04   -.914E+00 -.340E+00 -.233E+04   -.114E-01 0.159E-01 -.125E+01   0.173E-01 -.581E-01 0.379E-01
   -.530E+00 0.117E+00 0.234E+04   0.640E+00 -.182E+00 -.233E+04   0.118E-01 0.251E-01 -.120E+01   -.110E+00 0.176E-01 0.640E-02
   0.672E+00 0.417E+00 0.234E+04   -.664E+00 -.510E+00 -.234E+04   -.622E-01 0.918E-01 -.113E+01   0.569E-01 -.320E-01 -.125E-01
   -.839E+00 0.180E+00 0.234E+04   0.876E+00 -.825E-01 -.233E+04   0.543E-02 -.299E-01 -.127E+01   -.386E-01 -.112E-01 0.275E-02
   0.594E+00 -.167E+00 0.234E+04   -.500E+00 0.108E+00 -.233E+04   -.334E-01 0.147E-01 -.104E+01   -.543E-02 0.648E-01 -.136E-01
   0.724E+01 -.340E+01 0.859E+03   -.742E+01 0.330E+01 -.859E+03   0.443E-02 0.268E-01 -.542E+00   0.410E-01 0.102E+00 0.589E-01
   -.991E+01 0.466E+01 0.865E+03   0.988E+01 -.455E+01 -.865E+03   0.230E+00 -.126E+00 -.351E+00   -.356E-02 -.297E-01 0.344E-02
   -.482E+00 -.542E+01 0.853E+03   0.619E+00 0.539E+01 -.853E+03   -.958E-01 0.827E-01 -.155E+00   0.221E-01 0.320E-01 0.399E-01
   0.578E+01 -.388E+01 0.852E+03   -.598E+01 0.389E+01 -.852E+03   -.112E-01 0.281E-01 -.113E+00   0.659E-01 0.512E-02 0.282E-01
   -.836E+01 -.507E+01 0.861E+03   0.847E+01 0.506E+01 -.861E+03   0.146E+00 0.452E-02 -.316E+00   -.965E-01 0.755E-01 0.292E-01
   -.363E+01 -.963E+00 0.848E+03   0.360E+01 0.975E+00 -.847E+03   -.264E-01 0.104E+00 0.159E+00   0.431E-01 -.597E-01 -.516E-02
   0.836E+01 0.643E+01 0.855E+03   -.844E+01 -.627E+01 -.855E+03   -.176E+00 -.646E-01 -.241E+00   0.739E-01 -.107E+00 0.119E-01
   -.841E+00 0.201E+01 0.859E+03   0.916E+00 -.198E+01 -.859E+03   0.258E-01 0.165E-01 -.403E+00   -.830E-01 -.455E-01 0.256E-01
   0.261E+01 0.602E+01 0.852E+03   -.252E+01 -.593E+01 -.852E+03   -.570E-01 -.122E+00 -.163E+00   -.629E-01 0.276E-01 0.469E-01
   -.118E+02 0.559E+01 -.643E+03   0.117E+02 -.552E+01 0.643E+03   0.233E+00 -.224E+00 -.301E+00   0.703E-01 -.771E-01 0.234E-01
   0.902E+01 0.104E+02 -.621E+03   -.916E+01 -.103E+02 0.621E+03   0.378E-01 -.282E+00 0.569E+00   0.230E-01 -.754E-01 0.329E-03
   -.108E+02 0.668E+01 -.649E+03   0.106E+02 -.620E+01 0.649E+03   0.387E+00 -.470E+00 -.653E+00   0.212E-01 -.444E-01 0.610E-01
   -.152E+01 0.377E+01 -.637E+03   0.103E+01 -.314E+01 0.637E+03   0.342E+00 -.392E+00 -.553E+00   0.556E-01 0.313E-01 0.212E-01
   0.170E+02 -.223E+01 -.601E+03   -.165E+02 0.204E+01 0.601E+03   -.772E+00 0.242E+00 0.970E+00   -.293E-01 0.785E-01 0.118E-01
   -.325E+01 -.466E+01 -.632E+03   0.307E+01 0.455E+01 0.631E+03   0.293E+00 -.200E+00 0.358E+00   0.507E-02 0.515E-01 0.519E-01
   -.228E+01 0.118E+02 -.632E+03   0.235E+01 -.118E+02 0.631E+03   0.299E-01 -.406E+00 0.356E+00   -.411E-01 0.237E-01 0.441E-01
   -.186E+00 -.111E+02 -.625E+03   0.265E+00 0.110E+02 0.624E+03   -.328E-01 0.297E+00 0.543E+00   -.445E-01 -.665E-02 -.166E-01
   -.154E+01 -.153E+02 -.653E+03   0.161E+01 0.152E+02 0.653E+03   0.120E+00 0.279E+00 -.439E+00   -.672E-01 0.270E-01 0.717E-01
   -.222E+02 -.133E+02 -.217E+04   0.229E+02 0.135E+02 0.217E+04   -.753E+00 0.838E-01 0.101E+01   0.223E-01 -.651E-01 0.264E-02
   0.110E+02 0.293E+02 -.211E+04   -.116E+02 -.300E+02 0.211E+04   0.614E+00 0.767E+00 0.180E+01   0.189E-01 -.336E-01 -.167E-02
   0.362E+02 0.862E+01 -.209E+04   -.364E+02 -.854E+01 0.209E+04   0.100E+00 -.345E+00 0.144E+01   -.424E-02 0.481E-01 -.208E-01
   -.104E+02 0.177E+00 -.218E+04   0.104E+02 -.656E+00 0.218E+04   -.652E-01 0.409E+00 0.105E+01   -.553E-02 0.393E-01 0.132E-01
   0.193E+02 0.112E+00 -.217E+04   -.194E+02 -.601E+00 0.217E+04   -.884E-02 0.614E+00 0.772E+00   0.723E-02 0.180E-01 0.382E-01
   0.838E+02 0.544E+02 -.198E+04   -.865E+02 -.530E+02 0.198E+04   0.245E+01 -.957E+00 -.149E+01   -.222E-02 0.135E-01 0.158E-01
   -.565E+02 -.683E+02 -.207E+04   0.579E+02 0.704E+02 0.207E+04   -.146E+01 -.167E+01 0.266E+01   -.117E-01 -.159E-01 0.260E-01
   -.723E+02 0.110E+03 -.203E+04   0.724E+02 -.110E+03 0.203E+04   -.596E-01 0.852E-01 -.887E+00   0.266E-01 -.231E-01 -.204E-02
   0.676E+01 -.774E+02 -.215E+04   -.671E+01 0.787E+02 0.215E+04   0.132E+00 -.101E+01 0.792E+00   -.418E-01 0.885E-02 0.228E-01
 -----------------------------------------------------------------------------------------------
   -.112E+02 0.222E+02 0.747E+02   -.604E-13 -.711E-13 -.546E-11   0.113E+02 -.221E+02 -.754E+02   -.176E-01 0.644E-02 0.718E+00
 
 
 POSITION                                       TOTAL-FORCE (eV/Angst)
 -----------------------------------------------------------------------------------
      5.07029      0.67489     10.43242        -0.348368     -1.359114     -2.437049
      6.64625     -0.58647     10.22138         0.530594      0.198770      0.078135
      4.90144      1.03100     11.51077         0.090988      0.435593      1.295738
      7.20031     -1.38846      1.62732         0.034782     -0.059458      0.138608
      2.33567      1.42014      1.62732        -0.050827     -0.051861      0.078347
      4.76799      0.01584      1.62732        -0.044297      0.000776      0.132565
      7.20031      1.42015      1.62732         0.027701      0.035214      0.124760
      2.33567      4.22875      1.62732        -0.017014      0.016704      0.152196
      4.76799      2.82445      1.62732         0.010020     -0.025270      0.198804
      2.33567      7.03734      1.62732         0.000396     -0.035435     -0.007908
      4.76799      5.63304      1.62732         0.001671      0.053003      0.157621
      7.20031      4.22874      1.62732         0.053542      0.017317      0.025631
      1.52490      0.01584      3.92052        -0.139518      0.021927     -0.214724
      3.95722     -1.38846      3.92052         0.191829     -0.054654     -0.229260
      6.38953     -2.79276      3.92052         0.061728      0.073478      0.048570
      1.52490      2.82445      3.92052        -0.144419      0.044477      0.097280
      3.95722      1.42015      3.92052         0.154644      0.071716     -0.094103
      6.38953      0.01585      3.92052        -0.010066      0.053496      0.359938
      1.52490      5.63305      3.92052        -0.184563     -0.011534      0.010088
      3.95722      4.22874      3.92052         0.016346     -0.002016     -0.059630
      6.38953      2.82445      3.92052        -0.030199     -0.001051      0.040176
      0.70583      4.22433      6.26205         0.149917     -0.239940     -0.603682
      3.12422      5.63664      6.17752        -0.080025     -0.229441      0.064987
      5.56407     -1.36659      6.27041         0.141966     -0.036168     -0.534529
      0.68945      1.42683      6.22206        -0.093606      0.272071      0.007732
      3.17158     -0.01380      6.13735        -0.228678      0.134580      0.706185
      0.69293      7.05551      6.20100         0.116317     -0.268186     -0.036083
      5.56907      4.24148      6.20000         0.056500     -0.398765     -0.069722
      3.15715      2.80571      6.18824        -0.000636      0.237615      0.144710
      5.56927      1.41423      6.28010         0.117188      0.167704     -0.633052
      2.38975      4.16611      8.53769        -0.038011      0.163051     -0.372211
      4.74323      5.56845      8.40477         0.039652      0.006221      0.600066
      2.35385      1.39028      8.40535        -0.103476     -0.216684      0.222259
      7.22472      4.18391      8.52643        -0.084819     -0.033186     -0.127655
      2.35415      6.97555      8.51737        -0.104370      0.140342     -0.297325
      4.71067      0.01322      8.59388        -0.308011      0.488370      0.899368
      7.28444      1.39755      8.46760        -0.042052      0.344102      0.336848
      7.22729     -1.46450      8.59280         0.117607     -0.189189      0.426639
      4.79213      2.81045      8.61591         0.139567      0.235423     -0.630318
 -----------------------------------------------------------------------------------
    total drift:                                0.076345      0.116698     -0.027251
  FORCES: max atom, RMS     2.812073    0.624525
  Number: max atom                 1
  FORCE total and by dimension    3.900154    2.437049


--------------------------------------------------------------------------------------------------------



  FREE ENERGIE OF THE ION-ELECTRON SYSTEM (eV)
  ---------------------------------------------------
  free  energy   TOTEN  =      -230.36527752 eV

  energy  without entropy=     -230.34978343  energy(sigma->0) =     -230.36011282
 
 d Force = 0.9493018E-01[ 0.978E-02, 0.180E+00]  d Energy = 0.9958094E-01-0.465E-02
 d Force =-0.8496557E+01[-0.902E+01,-0.797E+01]  d Ewald  =-0.8490823E+01-0.573E-02


--------------------------------------------------------------------------------------------------------


    POTLOK:  cpu time    0.1492: real time    0.2335


--------------------------------------------------------------------------------------------------------


 stress matrix after NEB project (eV)
    -37.79236      0.66828      0.55222
      0.66828    -40.37643     -0.29669
      0.55222     -0.29669     -5.80442
  FORCES: max atom, RMS     2.812073    0.624525
  FORCE total and by dimension    3.900154    2.437049
  Stress total and by dimension   55.622741   40.376432
 Quasi-Newton relaxation of ions (Broydens 2nd method)
  g(Force)  = 0.294E+00   g(Stress)= 0.000E+00

 retain information from N=  2 steps
 eigenvalues of (default step * inverse Hessian matrix)
  average eigenvalue of G=   0.4320
 eigenvalue spectrum of G is  0.4320  0.4320
  RESET_HESSIAN           0


--------------------------------------------------------------------------------------------------------


    WAVPRE:  cpu time    0.0645: real time    0.1519
    FEWALD:  cpu time    0.0015: real time    0.0015

 real space projection operators:
  total allocation   :      13553.00 KBytes
  max/ min on nodes  :       6787.14       6765.86

    ORTHCH:  cpu time    0.9255: real time    0.9313
     LOOP+:  cpu time   66.5397: real time   67.4107


--------------------------------------- Iteration      4(   1)  ---------------------------------------


    POTLOK:  cpu time    0.1278: real time    0.3040
    SETDIJ:  cpu time    0.0109: real time    0.0110
