metal                                   
           1
     7.296955   -4.212899    0.000000
     0.000000    8.425798    0.000000
     0.000000    0.000000   21.879635
   C    O    Pt
   1   2  36
Direct configuration=     1
   0.69781100  0.43160232  0.47760856
   0.90887752  0.38390525  0.46687815
   0.66967446  0.45845820  0.52749709
   0.98675500  0.32859100  0.07437600
   0.32008800  0.32859100  0.07437600
   0.65342200  0.32859100  0.07437600
   0.98675500  0.66192500  0.07437600
   0.32008800  0.66192500  0.07437600
   0.65342200  0.66192500  0.07437600
   0.32008800  0.99525800  0.07437600
   0.65342200  0.99525800  0.07437600
   0.98675500  0.99525800  0.07437600
   0.20897700  0.10636900  0.17918600
   0.54231100  0.10636900  0.17918600
   0.87564400  0.10636900  0.17918600
   0.20897700  0.43970300  0.17918600
   0.54231100  0.43970300  0.17918600
   0.87564400  0.43970300  0.17918600
   0.20897700  0.77303600  0.17918600
   0.54231100  0.77303600  0.17918600
   0.87564400  0.77303600  0.17918600
   0.09541762  0.55046011  0.28754910
   0.42937990  0.88497989  0.28228529
   0.76111577  0.21836119  0.28794766
   0.09493504  0.21531551  0.28438758
   0.43640874  0.21578940  0.27918759
   0.09430224  0.88571957  0.28347112
   0.76285397  0.88722927  0.28361074
   0.43266863  0.54798232  0.28256406
   0.76263825  0.54780450  0.28826542
   0.32738887  0.65746006  0.39082039
   0.65016330  0.98642198  0.38280026
   0.32289620  0.32767783  0.38386362
   0.99040823  0.99210710  0.38989951
   0.32336369  0.98889558  0.38981805
   0.64735423  0.32277986  0.39082748
   0.99828461  0.66288182  0.38618105
   0.98973872  0.32197343  0.39193776
   0.65596932  0.66072760  0.39466619
Direct configuration=     2
   0.69614918  0.42850659  0.47624104
   0.91010614  0.38507091  0.46706587
   0.67065901  0.45871919  0.52734033
   0.98675500  0.32859100  0.07437600
   0.32008800  0.32859100  0.07437600
   0.65342200  0.32859100  0.07437600
   0.98675500  0.66192500  0.07437600
   0.32008800  0.66192500  0.07437600
   0.65342200  0.66192500  0.07437600
   0.32008800  0.99525800  0.07437600
   0.65342200  0.99525800  0.07437600
   0.98675500  0.99525800  0.07437600
   0.20897700  0.10636900  0.17918600
   0.54231100  0.10636900  0.17918600
   0.87564400  0.10636900  0.17918600
   0.20897700  0.43970300  0.17918600
   0.54231100  0.43970300  0.17918600
   0.87564400  0.43970300  0.17918600
   0.20897700  0.77303600  0.17918600
   0.54231100  0.77303600  0.17918600
   0.87564400  0.77303600  0.17918600
   0.09639634  0.54995403  0.28659215
   0.42839789  0.88355850  0.28230767
   0.76217938  0.21893139  0.28694814
   0.09464024  0.21621339  0.28437264
   0.43511374  0.21569828  0.28008004
   0.09475474  0.88515314  0.28343592
   0.76310985  0.88563060  0.28342093
   0.43266442  0.54891677  0.28274335
   0.76302941  0.54902558  0.28741144
   0.32752083  0.65797342  0.39042237
   0.65000040  0.98593892  0.38375485
   0.32272088  0.32673202  0.38404235
   0.99023133  0.99175124  0.38977088
   0.32282969  0.98907683  0.38945683
   0.64618347  0.32393166  0.39224876
   0.99832104  0.66442770  0.38678158
   0.99024979  0.32160958  0.39249476
   0.65648024  0.66148888  0.39410832
Direct configuration=     3
   0.69484958  0.42752324  0.47680979
   0.91082448  0.38580836  0.46716416
   0.67171014  0.45821679  0.52609499
   0.98675500  0.32859100  0.07437600
   0.32008800  0.32859100  0.07437600
   0.65342200  0.32859100  0.07437600
   0.98675500  0.66192500  0.07437600
   0.32008800  0.66192500  0.07437600
   0.65342200  0.66192500  0.07437600
   0.32008800  0.99525800  0.07437600
   0.65342200  0.99525800  0.07437600
   0.98675500  0.99525800  0.07437600
   0.20897700  0.10636900  0.17918600
   0.54231100  0.10636900  0.17918600
   0.87564400  0.10636900  0.17918600
   0.20897700  0.43970300  0.17918600
   0.54231100  0.43970300  0.17918600
   0.87564400  0.43970300  0.17918600
   0.20897700  0.77303600  0.17918600
   0.54231100  0.77303600  0.17918600
   0.87564400  0.77303600  0.17918600
   0.09672950  0.54972201  0.28620443
   0.42815432  0.88305065  0.28234094
   0.76251927  0.21906804  0.28658649
   0.09448431  0.21658276  0.28437657
   0.43464497  0.21568434  0.28050492
   0.09496183  0.88485127  0.28341434
   0.76320520  0.88499455  0.28336848
   0.43266703  0.54932399  0.28283101
   0.76323214  0.54946140  0.28702955
   0.32750024  0.65819654  0.39021156
   0.65002811  0.98589490  0.38413681
   0.32257984  0.32629238  0.38416324
   0.99010090  0.99161030  0.38969693
   0.32262082  0.98919027  0.38928296
   0.64556681  0.32435215  0.39277998
   0.99828472  0.66500853  0.38700833
   0.99045255  0.32141442  0.39273069
   0.65672993  0.66191763  0.39378674
