 vasp.5.4.4 16052018 (build Apr 24 2014 20:13:14) complex standard
 Contain Constrained Minimization Technique (TS), Periodic NBO, VASPsol, libbeef, VASP2WANNIER90, Constrained Cell Relaxation
 executed on Center for Computational Chemistry by phu@node07 date 2025.11.24 19:29:37
 running on    8 total cores
 distrk:  each k-point on    8 cores,    1 groups
 distr:  one band on NCORES_PER_BAND=   2 cores,    4 groups


--------------------------------------------------------------------------------------------------------


 INCAR:
 POTCAR:   PAW_PBE C 08Apr2002                    
 POTCAR:   PAW_PBE O 08Apr2002                    
 POTCAR:    PAW_PBE Pt 04Feb2005                  
 POTCAR:   PAW_PBE C 08Apr2002                    
   VRHFIN =C: s2p2                                                              
   LEXCH  = PE                                                                  
   EATOM  =   147.1560 eV,   10.8157 Ry                                         
                                                                                
   TITEL  = PAW_PBE C 08Apr2002                                                 
   LULTRA =        F    use ultrasoft PP ?                                      
   IUNSCR =        0    unscreen: 0-lin 1-nonlin 2-no                           
   RPACOR =     .000    partial core radius                                     
   POMASS =   12.011; ZVAL   =    4.000    mass and valenz                      
   RCORE  =    1.500    outmost cutoff radius                                   
   RWIGS  =    1.630; RWIGS  =     .863    wigner-seitz radius (au A)           
   ENMAX  =  400.000; ENMIN  =  300.000 eV                                      
   ICORE  =        2    local potential                                         
   LCOR   =        T    correct aug charges                                     
   LPAW   =        T    paw PP                                                  
   EAUG   =  644.873                                                            
   DEXC   =     .000                                                            
   RMAX   =    2.266    core radius for proj-oper                               
   RAUG   =    1.300    factor for augmentation sphere                          
   RDEP   =    1.501    radius for radial grids                                 
   RDEPT  =    1.300    core radius for aug-charge                              
   QCUT   =   -5.516; QGAM   =   11.032    optimization parameters              
                                                                                
   Description                                                                  
     l     E      TYP  RCUT    TYP  RCUT                                        
     0   .000     23  1.200                                                     
     0   .000     23  1.200                                                     
     1   .000     23  1.500                                                     
     1  2.500     23  1.500                                                     
     2   .000      7  1.500                                                     
  local pseudopotential read in
  atomic valenz-charges read in
  non local Contribution for L=           0  read in
    real space projection operators read in
  non local Contribution for L=           0  read in
    real space projection operators read in
  non local Contribution for L=           1  read in
    real space projection operators read in
  non local Contribution for L=           1  read in
    real space projection operators read in
    PAW grid and wavefunctions read in
 
   number of l-projection  operators is LMAX  =           4
   number of lm-projection operators is LMMAX =           8
 
 POTCAR:   PAW_PBE O 08Apr2002                    
   VRHFIN =O: s2p4                                                              
   LEXCH  = PE                                                                  
   EATOM  =   432.3788 eV,   31.7789 Ry                                         
                                                                                
   TITEL  = PAW_PBE O 08Apr2002                                                 
   LULTRA =        F    use ultrasoft PP ?                                      
   IUNSCR =        0    unscreen: 0-lin 1-nonlin 2-no                           
   RPACOR =     .000    partial core radius                                     
   POMASS =   16.000; ZVAL   =    6.000    mass and valenz                      
   RCORE  =    1.520    outmost cutoff radius                                   
   RWIGS  =    1.550; RWIGS  =     .820    wigner-seitz radius (au A)           
   ENMAX  =  400.000; ENMIN  =  300.000 eV                                      
   ICORE  =        2    local potential                                         
   LCOR   =        T    correct aug charges                                     
   LPAW   =        T    paw PP                                                  
   EAUG   =  605.392                                                            
   DEXC   =     .000                                                            
   RMAX   =    2.264    core radius for proj-oper                               
   RAUG   =    1.300    factor for augmentation sphere                          
   RDEP   =    1.550    radius for radial grids                                 
   QCUT   =   -5.520; QGAM   =   11.041    optimization parameters              
                                                                                
   Description                                                                  
     l     E      TYP  RCUT    TYP  RCUT                                        
     0   .000     23  1.200                                                     
     0  -.700     23  1.200                                                     
     1   .000     23  1.520                                                     
     1   .600     23  1.520                                                     
     2   .000      7  1.500                                                     
  local pseudopotential read in
  atomic valenz-charges read in
  non local Contribution for L=           0  read in
    real space projection operators read in
  non local Contribution for L=           0  read in
    real space projection operators read in
  non local Contribution for L=           1  read in
    real space projection operators read in
  non local Contribution for L=           1  read in
    real space projection operators read in
    PAW grid and wavefunctions read in
 
   number of l-projection  operators is LMAX  =           4
   number of lm-projection operators is LMMAX =           8
 
 POTCAR:    PAW_PBE Pt 04Feb2005                  
   VRHFIN =Pt: s1d9                                                             
   LEXCH  = PE                                                                  
   EATOM  =   729.1182 eV,   53.5887 Ry                                         
                                                                                
   TITEL  = PAW_PBE Pt 04Feb2005                                                
   LULTRA =        F    use ultrasoft PP ?                                      
   IUNSCR =        1    unscreen: 0-lin 1-nonlin 2-no                           
   RPACOR =    2.330    partial core radius                                     
   POMASS =  195.080; ZVAL   =   10.000    mass and valenz                      
   RCORE  =    2.600    outmost cutoff radius                                   
   RWIGS  =    2.750; RWIGS  =    1.455    wigner-seitz radius (au A)           
   ENMAX  =  230.283; ENMIN  =  172.712 eV                                      
   ICORE  =        3    local potential                                         
   LCOR   =        T    correct aug charges                                     
   LPAW   =        T    paw PP                                                  
   EAUG   =  358.966                                                            
   DEXC   =     .000                                                            
   RMAX   =    3.038    core radius for proj-oper                               
   RAUG   =    1.300    factor for augmentation sphere                          
   RDEP   =    2.761    radius for radial grids                                 
   QCUT   =   -4.114; QGAM   =    8.228    optimization parameters              
                                                                                
   Description                                                                  
     l     E      TYP  RCUT    TYP  RCUT                                        
     2   .000     23  2.500                                                     
     2   .000     23  2.500                                                     
     0   .000     23  2.500                                                     
     0   .000     23  2.500                                                     
     1  -.200     23  2.600                                                     
     1  1.500     23  2.600                                                     
     3   .000     23  2.500                                                     
  local pseudopotential read in
  partial core-charges read in
  atomic valenz-charges read in
  non local Contribution for L=           2  read in
    real space projection operators read in
  non local Contribution for L=           2  read in
    real space projection operators read in
  non local Contribution for L=           0  read in
    real space projection operators read in
  non local Contribution for L=           0  read in
    real space projection operators read in
  non local Contribution for L=           1  read in
    real space projection operators read in
  non local Contribution for L=           1  read in
    real space projection operators read in
    PAW grid and wavefunctions read in
 
   number of l-projection  operators is LMAX  =           6
   number of lm-projection operators is LMMAX =          18
 
 Optimization of the real space projectors (new method)

 maximal supplied QI-value         = 25.13
 optimisation between [QCUT,QGAM] = [ 10.81, 21.61] = [ 32.71,130.83] Ry 
 Optimized for a Real-space Cutoff    1.23 Angstroem

   l    n(q)    QCUT    max X(q) W(low)/X(q) W(high)/X(q)  e(spline) 
   0      8    10.807     5.582    0.53E-04    0.84E-04    0.44E-07
   0      8    10.807    69.432    0.35E-03    0.71E-03    0.24E-06
   1      7    10.807     2.780    0.44E-04    0.88E-04    0.89E-07
   1      7    10.807     4.549    0.14E-03    0.28E-03    0.13E-06
 Optimization of the real space projectors (new method)

 maximal supplied QI-value         = 24.76
 optimisation between [QCUT,QGAM] = [ 10.64, 21.54] = [ 31.73,129.89] Ry 
 Optimized for a Real-space Cutoff    1.23 Angstroem

   l    n(q)    QCUT    max X(q) W(low)/X(q) W(high)/X(q)  e(spline) 
   0      8    10.645     4.192    0.69E-04    0.93E-04    0.58E-07
   0      8    10.645     8.473    0.40E-03    0.65E-03    0.17E-06
   1      7    10.645     2.474    0.80E-04    0.12E-03    0.30E-07
   1      7    10.645     3.912    0.24E-03    0.53E-03    0.16E-06
 Optimization of the real space projectors (new method)

 maximal supplied QI-value         = 14.36
 optimisation between [QCUT,QGAM] = [ 10.77, 21.69] = [ 32.49,131.70] Ry 
 Optimized for a Real-space Cutoff    1.46 Angstroem

   l    n(q)    QCUT    max X(q) W(low)/X(q) W(high)/X(q)  e(spline) 
   2      9    10.771     3.903    0.38E-04    0.12E-03    0.82E-07
   2      9    10.771    18.372    0.13E-03    0.32E-03    0.28E-06
   0     10    10.771    13.697    0.11E-04    0.86E-05    0.85E-08
   0     10    10.771    65.529    0.40E-04    0.12E-03    0.14E-06
   1      9    10.771     7.604    0.48E-04    0.31E-04    0.38E-07
   1      9    10.771    12.136    0.35E-03    0.16E-03    0.23E-06
 PAW_PBE C 08Apr2002                    :
 energy of atom  1       EATOM= -147.1560
 kinetic energy error for atom=    0.0116 (will be added to EATOM!!)
 PAW_PBE O 08Apr2002                    :
 energy of atom  2       EATOM= -432.3788
 kinetic energy error for atom=    0.0389 (will be added to EATOM!!)
  PAW_PBE Pt 04Feb2005                  :
 energy of atom  3       EATOM= -729.1182
 kinetic energy error for atom=    0.0051 (will be added to EATOM!!)
 
 
 POSCAR: C    O    Pt                            
  positions in direct lattice
  No initial velocities read in
 exchange correlation table for  LEXCH =        8
   RHO(1)=    0.500       N(1)  =     2000
   RHO(2)=  100.500       N(2)  =     4000

 VTST: version 3.2, (02/03/18)

 CHAIN: initializing optimizer
 
 OPT: Using VASP QUASI-newton optimizer
 CHAIN: Read ICHAIN            0
 
 POSCAR: C    O    Pt                            
  positions in direct lattice
  No initial velocities read in
 


--------------------------------------------------------------------------------------------------------


 ion  position               nearest neighbor table
   1  0.699  0.434  0.475-   3 1.16   2 2.00  36 2.05  39 2.76
   2  0.909  0.388  0.469-   1 2.00  38 2.02  36 2.69
   3  0.670  0.461  0.525-   1 1.16
   4  0.987  0.329  0.074-  15 2.81  16 2.81  12 2.81   5 2.81  11 2.81   6 2.81  18 2.81   8 2.81
                             7 2.81
   5  0.320  0.329  0.074-  13 2.81  10 2.81   4 2.81  12 2.81  16 2.81  17 2.81   8 2.81   9 2.81
                             6 2.81
   6  0.653  0.329  0.074-  14 2.81  18 2.81  11 2.81   4 2.81  17 2.81   7 2.81  10 2.81   9 2.81
                             5 2.81
   7  0.987  0.662  0.074-  18 2.81  21 2.81  19 2.81  12 2.81   8 2.81  10 2.81   9 2.81   6 2.81
                             4 2.81
   8  0.320  0.662  0.074-  16 2.81  19 2.81  10 2.81   7 2.81  20 2.81   4 2.81  11 2.81   5 2.81
                             9 2.81
   9  0.653  0.662  0.074-  17 2.81  20 2.81  21 2.81  11 2.81  12 2.81   7 2.81   6 2.81   5 2.81
                             8 2.81
  10  0.320  0.995  0.074-  13 2.81  19 2.81   5 2.81   8 2.81  12 2.81   7 2.81  14 2.81   6 2.81
                            11 2.81
  11  0.653  0.995  0.074-  14 2.81  20 2.81  15 2.81   9 2.81   6 2.81  12 2.81   4 2.81   8 2.81
                            10 2.81
  12  0.987  0.995  0.074-  15 2.81  21 2.81  13 2.81   7 2.81   4 2.81  10 2.81   5 2.81  11 2.81
                             9 2.81
  13  0.209  0.106  0.179-  27 2.75  26 2.75   5 2.81  10 2.81  12 2.81  19 2.81  15 2.81  21 2.81
                            16 2.81  14 2.81  17 2.81  25 2.86
  14  0.542  0.106  0.179-  26 2.74  24 2.77   6 2.81  11 2.81  20 2.81  15 2.81  10 2.81  18 2.81
                            19 2.81  17 2.81  13 2.81  23 2.81
  15  0.876  0.106  0.179-  24 2.78  28 2.81   4 2.81  12 2.81  11 2.81  21 2.81  13 2.81  20 2.81
                            14 2.81  16 2.81  18 2.81  25 2.86
  16  0.209  0.440  0.179-  22 2.74  29 2.76   8 2.81   4 2.81  19 2.81  18 2.81   5 2.81  15 2.81
                            20 2.81  13 2.81  17 2.81  25 2.83
  17  0.542  0.440  0.179-  26 2.74  29 2.77   9 2.81  20 2.81  21 2.81  18 2.81   6 2.81   5 2.81
                            14 2.81  16 2.81  13 2.81  30 2.82
  18  0.876  0.440  0.179-  24 2.76  22 2.78  30 2.79   7 2.81   6 2.81  21 2.81  16 2.81  19 2.81
                            17 2.81   4 2.81  14 2.81  15 2.81
  19  0.209  0.773  0.179-  27 2.78  23 2.78  22 2.80  10 2.81   8 2.81   7 2.81  16 2.81  13 2.81
                            21 2.81  18 2.81  14 2.81  20 2.81
  20  0.542  0.773  0.179-  29 2.76  23 2.78   9 2.81  11 2.81  17 2.81  14 2.81  15 2.81  21 2.81
                             8 2.81  16 2.81  19 2.81  28 2.83
  21  0.876  0.773  0.179-  27 2.73  30 2.80  28 2.81  12 2.81   7 2.81   9 2.81  18 2.81  15 2.81
                            19 2.81  13 2.81  17 2.81  20 2.81
  22  0.099  0.544  0.282-  25 2.71  16 2.74  29 2.76  24 2.77  37 2.77  18 2.78  31 2.78  19 2.80
                            23 2.80  30 2.81  27 2.90  38 2.90
  23  0.429  0.879  0.283-  31 2.72  29 2.76  32 2.77  20 2.78  19 2.78  35 2.80  22 2.80  14 2.81
                            28 2.82  26 2.84  27 2.86  24 2.86
  24  0.765  0.221  0.282-  18 2.76  22 2.77  30 2.77  14 2.77  26 2.78  15 2.78  25 2.82  32 2.82
                            28 2.83  36 2.86  23 2.86  38 2.93
  25  0.100  0.223  0.286-  22 2.71  38 2.76  29 2.78  33 2.79  24 2.82  28 2.82  27 2.82  16 2.83
                            26 2.83  34 2.86  15 2.86  13 2.86
  26  0.434  0.219  0.280-  14 2.74  17 2.74  13 2.75  24 2.78  36 2.82  30 2.82  29 2.83  25 2.83
                            27 2.84  23 2.84  35 2.86  33 2.88
  27  0.093  0.885  0.281-  21 2.73  28 2.75  13 2.75  30 2.77  19 2.78  37 2.78  25 2.82  26 2.84
                            23 2.86  35 2.87  34 2.87  22 2.90
  28  0.768  0.886  0.284-  32 2.73  27 2.75  15 2.81  21 2.81  25 2.82  30 2.82  23 2.82  29 2.83
                            20 2.83  24 2.83  34 2.88  39 2.92
  29  0.431  0.552  0.281-  31 2.71  20 2.76  23 2.76  22 2.76  16 2.76  17 2.77  25 2.78  26 2.83
                            28 2.83  30 2.86  33 2.88  39 2.94
  30  0.769  0.552  0.284-  37 2.74  27 2.77  24 2.77  18 2.79  21 2.80  22 2.81  36 2.81  28 2.82
                            26 2.82  17 2.82  29 2.86  39 2.91
  31  0.328  0.660  0.384-  29 2.71  23 2.72  39 2.75  32 2.76  22 2.78  33 2.80  35 2.83  37 2.83
                            38 2.84
  32  0.653  0.991  0.385-  28 2.73  31 2.76  23 2.77  35 2.79  39 2.81  24 2.82  38 2.83  34 2.86
                            36 2.88
  33  0.323  0.326  0.390-  36 2.71  38 2.76  39 2.79  34 2.79  25 2.79  31 2.80  35 2.80  26 2.88
                            29 2.88
  34  0.994  0.994  0.392-  38 2.77  35 2.79  33 2.79  37 2.80  39 2.85  25 2.86  32 2.86  27 2.87
                            28 2.88
  35  0.324  0.994  0.387-  36 2.76  34 2.79  32 2.79  37 2.79  23 2.80  33 2.80  31 2.83  26 2.86
                            27 2.87
  36  0.645  0.328  0.388-   1 2.05   2 2.69  33 2.71  39 2.75  35 2.76  30 2.81  26 2.82  24 2.86
                            32 2.88  37 2.88  38 2.96
  37  0.993  0.663  0.384-  30 2.74  22 2.77  27 2.78  35 2.79  34 2.80  31 2.83  39 2.86  38 2.88
                            36 2.88
  38  0.993  0.322  0.392-   2 2.02  33 2.76  25 2.76  34 2.77  32 2.83  31 2.84  37 2.88  22 2.90
                            24 2.93  36 2.96
  39  0.652  0.658  0.394-  36 2.75  31 2.75   1 2.76  33 2.79  32 2.81  34 2.85  37 2.86  30 2.91
                            28 2.92  29 2.94
 

IMPORTANT INFORMATION: All symmetrisations will be switched off!
NOSYMM: (Re-)initialisation of all symmetry stuff for point group C_1.

 
 
 KPOINTS: mesh auto                               

Automatic generation of k-mesh.
Space group operators:
 irot       det(A)        alpha          n_x          n_y          n_z        tau_x        tau_y        tau_z
    1     1.000000     0.000000     1.000000     0.000000     0.000000     0.000000     0.000000     0.000000
 
 Subroutine IBZKPT returns following result:
 ===========================================
 
 Found      4 irreducible k-points:
 
 Following reciprocal coordinates:
            Coordinates               Weight
  0.000000  0.000000  0.000000      1.000000
  0.500000  0.000000  0.000000      1.000000
 -0.000000  0.500000  0.000000      1.000000
  0.500000  0.500000  0.000000      1.000000
 
 Following cartesian coordinates:
            Coordinates               Weight
  0.000000  0.000000  0.000000      1.000000
  0.068522  0.000000  0.000000      1.000000
  0.034261  0.059342  0.000000      1.000000
  0.102783  0.059342  0.000000      1.000000
 


--------------------------------------------------------------------------------------------------------




 Dimension of arrays:
   k-points           NKPTS =      4   k-points in BZ     NKDIM =      4   number of bands    NBANDS=    228
   number of dos      NEDOS =    301   number of ions     NIONS =     39
   non local maximal  LDIM  =      6   non local SUM 2l+1 LMDIM =     18
   total plane-waves  NPLWV = 276480
   max r-space proj   IRMAX =   2756   max aug-charges    IRDMAX=  12646
   dimension x,y,z NGX =    48 NGY =   48 NGZ =  120
   dimension x,y,z NGXF=    96 NGYF=   96 NGZF=  240
   support grid    NGXF=    96 NGYF=   96 NGZF=  240
   ions per type =               1   2  36
   NGX,Y,Z   is equivalent  to a cutoff of   9.47,  9.47,  9.12 a.u.
   NGXF,Y,Z  is equivalent  to a cutoff of  18.94, 18.94, 18.24 a.u.

 SYSTEM =  metal                                   
 POSCAR =  C    O    Pt                            

 Startparameter for this run:
   NWRITE =      2    write-flag & timer
   PREC   = normal    normal or accurate (medium, high low for compatibility)
   ISTART =      0    job   : 0-new  1-cont  2-samecut
   ICHARG =      2    charge: 1-file 2-atom 10-const
   ISPIN  =      1    spin polarized calculation?
   LNONCOLLINEAR =      F non collinear calculations
   LSORBIT =      F    spin-orbit coupling
   INIWAV =      1    electr: 0-lowe 1-rand  2-diag
   LASPH  =      F    aspherical Exc in radial PAW
   METAGGA=      F    non-selfconsistent MetaGGA calc.

 Electronic Relaxation 1
   ENCUT  =  450.0 eV  33.07 Ry    5.75 a.u.  14.57 14.57 37.84*2*pi/ulx,y,z
   ENINI  =  450.0     initial cutoff
   ENAUG  =  644.9 eV  augmentation charge cutoff
   NELM   =     60;   NELMIN=  8; NELMDL= -5     # of ELM steps 
   EDIFF  = 0.1E-03   stopping-criterion for ELM
   LREAL  =      T    real-space projection
   NLSPLINE    = F    spline interpolate recip. space projectors
   LCOMPAT=      F    compatible to vasp.4.4
   GGA_COMPAT  = T    GGA compatible to vasp.4.4-vasp.4.6
   LMAXPAW     = -100 max onsite density
   LMAXMIX     =    2 max onsite mixed and CHGCAR
   VOSKOWN=      0    Vosko Wilk Nusair interpolation
   ROPT   =   -0.00050  -0.00050  -0.00050
 Ionic relaxation
   EDIFFG = -.5E-01   stopping-criterion for IOM
   NSW    =   5000    number of steps for IOM
   NBLOCK =      1;   KBLOCK =   5000    inner block; outer block 
   IBRION =      1    ionic relax: 0-MD 1-quasi-New 2-CG
   NFREE  =      0    steps in history (QN), initial steepest desc. (CG)
   ISIF   =      2    stress and relaxation
   IWAVPR =     11    prediction:  0-non 1-charg 2-wave 3-comb
   ISYM   =      0    0-nonsym 1-usesym 2-fastsym
   LCORR  =      T    Harris-Foulkes like correction to forces

   POTIM  = 0.2000    time-step for ionic-motion
   TEIN   =    0.0    initial temperature
   TEBEG  =    0.0;   TEEND  =   0.0 temperature during run
   SMASS  =  -3.00    Nose mass-parameter (am)
   estimated Nose-frequenzy (Omega)   =  0.10E-29 period in steps =****** mass=  -0.162E-26a.u.
   SCALEE = 1.0000    scale energy and forces
   NPACO  =    256;   APACO  = 16.0  distance and # of slots for P.C.
   PSTRESS=    0.0 pullay stress

  Mass of Ions in am
   POMASS =  12.01 16.00195.08
  Ionic Valenz
   ZVAL   =   4.00  6.00 10.00
  Atomic Wigner-Seitz radii
   RWIGS  =  -1.00 -1.00 -1.00
  virtual crystal weights 
   VCA    =   1.00  1.00  1.00
   NELECT =     376.0000    total number of electrons
   NUPDOWN=      -1.0000    fix difference up-down

 DOS related values:
   EMIN   =  10.00;   EMAX   =-10.00  energy-range for DOS
   EFERMI =   0.00
   ISMEAR =     1;   SIGMA  =   0.20  broadening in eV -4-tet -1-fermi 0-gaus

 Electronic relaxation 2 (details)
   IALGO  =     68    algorithm
   LDIAG  =      T    sub-space diagonalisation (order eigenvalues)
   LSUBROT=      F    optimize rotation matrix (better conditioning)
   TURBO    =      0    0=normal 1=particle mesh
   IRESTART =      0    0=no restart 2=restart with 2 vectors
   NREBOOT  =      0    no. of reboots
   NMIN     =      0    reboot dimension
   EREF     =   0.00    reference energy to select bands
   IMIX   =      4    mixing-type and parameters
     AMIX     =   0.40;   BMIX     =  1.00
     AMIX_MAG =   1.60;   BMIX_MAG =  1.00
     AMIN     =   0.10
     WC   =   100.;   INIMIX=   1;  MIXPRE=   1;  MAXMIX= -45

 Intra band minimization:
   WEIMIN = 0.0010     energy-eigenvalue tresh-hold
   EBREAK =  0.11E-06  absolut break condition
   DEPER  =   0.30     relativ break condition  

   TIME   =   0.40     timestep for ELM

  volume/ion in A,a.u.               =      34.49       232.77
  Fermi-wavevector in a.u.,A,eV,Ry     =   1.070385  2.022734 15.588510  1.145723
  Thomas-Fermi vector in A             =   2.206093
 
 Write flags
   LWAVE        =      F    write WAVECAR
   LDOWNSAMPLE  =      F    k-point downsampling of WAVECAR
   LCHARG       =      F    write CHGCAR
   LVTOT        =      F    write LOCPOT, total local potential
   LVHAR        =      F    write LOCPOT, Hartree potential only
   LELF         =      F    write electronic localiz. function (ELF)
   LORBIT       =      0    0 simple, 1 ext, 2 COOP (PROOUT), +10 PAW based schemes


 Dipole corrections
   LMONO  =      F    monopole corrections only (constant potential shift)
   LDIPOL =      F    correct potential (dipole corrections)
   IDIPOL =      0    1-x, 2-y, 3-z, 4-all directions 
   EPSILON=  1.0000000 bulk dielectric constant

 Exchange correlation treatment:
   GGA     =    --    GGA type
   LEXCH   =     8    internal setting for exchange type
   VOSKOWN=      0    Vosko Wilk Nusair interpolation
   LHFCALC =     F    Hartree Fock is set to
   LHFONE  =     F    Hartree Fock one center treatment
   AEXX    =    0.0000 exact exchange contribution

 Linear response parameters
   LEPSILON=     F    determine dielectric tensor
   LRPA    =     F    only Hartree local field effects (RPA)
   LNABLA  =     F    use nabla operator in PAW spheres
   LVEL    =     F    velocity operator in full k-point grid
   LINTERFAST=   F  fast interpolation
   KINTER  =     0    interpolate to denser k-point grid
   CSHIFT  =0.1000    complex shift for real part using Kramers Kronig
   OMEGAMAX=  -1.0    maximum frequency
   DEG_THRESHOLD= 0.2000000E-02 threshold for treating states as degnerate
   RTIME   =   -0.100 relaxation time in fs
  (WPLASMAI=    0.000 imaginary part of plasma frequency in eV, 0.658/RTIME)
   DFIELD  = 0.0000000 0.0000000 0.0000000 field for delta impulse in time
 
 Orbital magnetization related:
   ORBITALMAG=     F  switch on orbital magnetization
   LCHIMAG   =     F  perturbation theory with respect to B field
   DQ        =  0.001000  dq finite difference perturbation B field
   LLRAUG    =     F  two centre corrections for induced B field



--------------------------------------------------------------------------------------------------------


 quasi-Newton-method for relaxation of ions
   using selective dynamics as specified on POSCAR
 charge density and potential will be updated during run
 non-spin polarized calculation
 RMM-DIIS sequential band-by-band and
  variant of blocked Davidson during initial phase
 perform sub-space diagonalisation
    before iterative eigenvector-optimisation
 modified Broyden-mixing scheme, WC =      100.0
 initial mixing is a Kerker type mixing with AMIX =  0.4000 and BMIX =      1.0000
 Hartree-type preconditioning will be used
 using additional bands           40
 real space projection scheme for non local part
 use partial core corrections
 calculate Harris-corrections to forces 
   (improved forces if not selfconsistent)
 use gradient corrections 
 use of overlap-Matrix (Vanderbilt PP)
 Methfessel and Paxton  Order N= 1 SIGMA  =   0.20


--------------------------------------------------------------------------------------------------------


  energy-cutoff  :      450.00
  volume of cell :     1345.22
      direct lattice vectors                 reciprocal lattice vectors
     7.296955120 -4.212899000  0.000000000     0.137043463  0.000000000  0.000000000
     0.000000000  8.425798000  0.000000000     0.068521732  0.118683121  0.000000000
     0.000000000  0.000000000 21.879635000     0.000000000  0.000000000  0.045704602

  length of vectors
     8.425798004  8.425798000 21.879635000     0.137043463  0.137043463  0.045704602


 
 k-points in units of 2pi/SCALE and weight: mesh auto                               
   0.00000000  0.00000000  0.00000000       0.250
   0.06852173  0.00000000  0.00000000       0.250
   0.03426087  0.05934156  0.00000000       0.250
   0.10278260  0.05934156  0.00000000       0.250
 
 k-points in reciprocal lattice and weights: mesh auto                               
   0.00000000  0.00000000  0.00000000       0.250
   0.50000000  0.00000000  0.00000000       0.250
  -0.00000000  0.50000000  0.00000000       0.250
   0.50000000  0.50000000  0.00000000       0.250
 
 position of ions in fractional coordinates (direct lattice) 
   0.69862647  0.43396200  0.47480407
   0.90942240  0.38814067  0.46942752
   0.67048993  0.46081788  0.52469260
   0.98675500  0.32859100  0.07437600
   0.32008800  0.32859100  0.07437600
   0.65342200  0.32859100  0.07437600
   0.98675500  0.66192500  0.07437600
   0.32008800  0.66192500  0.07437600
   0.65342200  0.66192500  0.07437600
   0.32008800  0.99525800  0.07437600
   0.65342200  0.99525800  0.07437600
   0.98675500  0.99525800  0.07437600
   0.20897700  0.10636900  0.17918600
   0.54231100  0.10636900  0.17918600
   0.87564400  0.10636900  0.17918600
   0.20897700  0.43970300  0.17918600
   0.54231100  0.43970300  0.17918600
   0.87564400  0.43970300  0.17918600
   0.20897700  0.77303600  0.17918600
   0.54231100  0.77303600  0.17918600
   0.87564400  0.77303600  0.17918600
   0.09890400  0.54382469  0.28200119
   0.42933950  0.87885860  0.28294002
   0.76523642  0.22094279  0.28192361
   0.10025567  0.22258037  0.28614887
   0.43376656  0.21850132  0.28033283
   0.09334643  0.88477809  0.28090836
   0.76807053  0.88596742  0.28438140
   0.43053831  0.55218460  0.28146391
   0.76939969  0.55199555  0.28361473
   0.32780880  0.66042878  0.38356395
   0.65312990  0.99090557  0.38537990
   0.32290177  0.32646169  0.38962384
   0.99357722  0.99441591  0.39218348
   0.32392965  0.99420322  0.38740340
   0.64505284  0.32827524  0.38814220
   0.99305561  0.66295741  0.38404644
   0.99326198  0.32241869  0.39198053
   0.65229837  0.65815483  0.39384781
 
 position of ions in cartesian coordinates  (Angst):
   5.09784603  0.71323334 10.38853969
   6.63601443 -0.56090979 10.27090283
   4.89253492  1.05805200 11.48008255
   7.20030695 -1.38845776  1.62731973
   2.33566777  1.42014298  1.62731973
   4.76799101  0.01584050  1.62731973
   7.20030695  1.42014719  1.62731973
   2.33566777  4.22874793  1.62731973
   4.76799101  2.82444545  1.62731973
   2.33566777  7.03734445  1.62731973
   4.76799101  5.63304198  1.62731973
   7.20030695  4.22874371  1.62731973
   1.52489579  0.01584471  3.92052428
   3.95721903 -1.38845776  3.92052428
   6.38953497 -2.79275602  3.92052428
   1.52489579  2.82444966  3.92052428
   3.95721903  1.42014719  3.92052428
   6.38953497  0.01584893  3.92052428
   1.52489579  5.63304619  3.92052428
   3.95721903  4.22874371  3.92052428
   6.38953497  2.82444545  3.92052428
   0.72169804  4.16548444  6.17008314
   3.13287107  5.59632110  6.19062441
   5.58389583 -1.36224446  6.16838562
   0.73156111  1.45305025  6.26083276
   3.16517510  0.01363332  6.13358010
   0.68114470  7.06170240  6.14617237
   5.60457616  4.22917900  6.22216122
   3.14161873  2.83878151  6.15832760
   5.61427499  1.40959979  6.20538686
   2.39200610  4.18361409  8.39223929
   4.76585958  5.59759984  8.43197165
   2.35619972  1.39034773  8.52482734
   7.25008835  4.19290714  8.58083139
   2.36370009  7.01227264  8.47624504
   4.70692165  0.04843836  8.49240976
   7.24628219  1.40230222  8.40279598
   7.24778808 -1.46787766  8.57639089
   4.75979192  2.79741254  8.61724629
 


--------------------------------------------------------------------------------------------------------


 k-point  1 :   0.0000 0.0000 0.0000  plane waves:   29241
 k-point  2 :   0.5000 0.0000 0.0000  plane waves:   29108
 k-point  3 :  -0.0000 0.5000 0.0000  plane waves:   29108
 k-point  4 :   0.5000 0.5000 0.0000  plane waves:   29108

 maximum and minimum number of plane-waves per node :     14624    14548

 maximum number of plane-waves:     29241
 maximum index in each direction: 
   IXMAX=   14   IYMAX=   14   IZMAX=   37
   IXMIN=  -15   IYMIN=  -15   IZMIN=  -37


 real space projection operators:
  total allocation   :      13557.12 KBytes
  max/ min on nodes  :       6785.06       6772.06


 parallel 3D FFT for wavefunctions:
    minimum data exchange during FFTs selected (reduces bandwidth)
 parallel 3D FFT for charge:
    minimum data exchange during FFTs selected (reduces bandwidth)


 total amount of memory used by VASP MPI-rank0   131958. kBytes
=======================================================================

   base      :      30000. kBytes
   nonlr-proj:      10150. kBytes
   fftplans  :      13556. kBytes
   grid      :      23353. kBytes
   one-center:        311. kBytes
   wavefun   :      54588. kBytes
 
     INWAV:  cpu time    0.0000: real time    0.0000
 Broyden mixing: mesh for mixing (old mesh)
   NGX = 29   NGY = 29   NGZ = 75
  (NGX  = 96   NGY  = 96   NGZ  =240)
  gives a total of  63075 points

 initial charge density was supplied:
 charge density of overlapping atoms calculated
 number of electron     376.0000000 magnetization 
 keeping initial charge density in first step


--------------------------------------------------------------------------------------------------------


 Maximum index for non-local projection operator         1322
 Maximum index for augmentation-charges         1558 (set IRDMAX)


--------------------------------------------------------------------------------------------------------


 First call to EWALD:  gamma=   0.161
 Maximum number of real-space cells 4x 4x 2
 Maximum number of reciprocal cells 2x 2x 5

    FEWALD:  cpu time    0.0334: real time    0.1044


--------------------------------------- Iteration      1(   1)  ---------------------------------------


    POTLOK:  cpu time    0.3682: real time    0.6237
    SETDIJ:  cpu time    0.0165: real time    0.0353
     EDDAV:  cpu time   27.2304: real time   41.4746
       DOS:  cpu time    0.0010: real time    0.0010
    --------------------------------------------
      LOOP:  cpu time   27.6161: real time   42.1346

 eigenvalue-minimisations  :  1824
 total energy-change (2. order) : 0.2418289E+04  (-0.1594978E+05)
 number of electron     376.0000000 magnetization 
 augmentation part      376.0000000 magnetization 

 Free energy of the ion-electron system (eV)
  ---------------------------------------------------
  alpha Z        PSCENC =       975.10247152
  Ewald energy   TEWEN  =     91338.68857837
  -Hartree energ DENC   =   -120432.08932408
  -exchange      EXHF   =         0.00000000
  -V(xc)+E(xc)   XCENC  =       189.36753742
  PAW double counting   =     24789.08602224   -23775.73976456
  entropy T*S    EENTRO =         0.01634079
  eigenvalues    EBANDS =      2073.96295330
  atomic energy  EATOM  =     27259.89416086
  Solvation  Ediel_sol  =         0.00000000
  ---------------------------------------------------
  free energy    TOTEN  =      2418.28897586 eV

  energy without entropy =     2418.27263507  energy(sigma->0) =     2418.28352893


--------------------------------------------------------------------------------------------------------




--------------------------------------- Iteration      1(   2)  ---------------------------------------


     EDDAV:  cpu time   28.5212: real time   37.9549
       DOS:  cpu time    0.0009: real time    0.0009
    --------------------------------------------
      LOOP:  cpu time   28.5221: real time   37.9558

 eigenvalue-minimisations  :  2120
 total energy-change (2. order) :-0.2482798E+04  (-0.2306591E+04)
 number of electron     376.0000000 magnetization 
 augmentation part      376.0000000 magnetization 

 Free energy of the ion-electron system (eV)
  ---------------------------------------------------
  alpha Z        PSCENC =       975.10247152
  Ewald energy   TEWEN  =     91338.68857837
  -Hartree energ DENC   =   -120432.08932408
  -exchange      EXHF   =         0.00000000
  -V(xc)+E(xc)   XCENC  =       189.36753742
  PAW double counting   =     24789.08602224   -23775.73976456
  entropy T*S    EENTRO =         0.00858129
  eigenvalues    EBANDS =      -408.82755559
  atomic energy  EATOM  =     27259.89416086
  Solvation  Ediel_sol  =         0.00000000
  ---------------------------------------------------
  free energy    TOTEN  =       -64.50929253 eV

  energy without entropy =      -64.51787382  energy(sigma->0) =      -64.51215296


--------------------------------------------------------------------------------------------------------




--------------------------------------- Iteration      1(   3)  ---------------------------------------


     EDDAV:  cpu time   27.4018: real time   41.8571
       DOS:  cpu time    0.0010: real time    0.0010
    --------------------------------------------
      LOOP:  cpu time   27.4028: real time   41.8581

 eigenvalue-minimisations  :  2168
 total energy-change (2. order) :-0.1765678E+03  (-0.1601703E+03)
 number of electron     376.0000000 magnetization 
 augmentation part      376.0000000 magnetization 

 Free energy of the ion-electron system (eV)
  ---------------------------------------------------
  alpha Z        PSCENC =       975.10247152
  Ewald energy   TEWEN  =     91338.68857837
  -Hartree energ DENC   =   -120432.08932408
  -exchange      EXHF   =         0.00000000
  -V(xc)+E(xc)   XCENC  =       189.36753742
  PAW double counting   =     24789.08602224   -23775.73976456
  entropy T*S    EENTRO =         0.00384406
  eigenvalues    EBANDS =      -585.39064930
  atomic energy  EATOM  =     27259.89416086
  Solvation  Ediel_sol  =         0.00000000
  ---------------------------------------------------
  free energy    TOTEN  =      -241.07712347 eV

  energy without entropy =     -241.08096753  energy(sigma->0) =     -241.07840482


--------------------------------------------------------------------------------------------------------




--------------------------------------- Iteration      1(   4)  ---------------------------------------


     EDDAV:  cpu time   29.1079: real time   41.6482
       DOS:  cpu time    0.0011: real time    0.0011
    --------------------------------------------
      LOOP:  cpu time   29.1089: real time   41.6493

 eigenvalue-minimisations  :  2376
 total energy-change (2. order) :-0.7575410E+01  (-0.7313742E+01)
 number of electron     376.0000000 magnetization 
 augmentation part      376.0000000 magnetization 

 Free energy of the ion-electron system (eV)
  ---------------------------------------------------
  alpha Z        PSCENC =       975.10247152
  Ewald energy   TEWEN  =     91338.68857837
  -Hartree energ DENC   =   -120432.08932408
  -exchange      EXHF   =         0.00000000
  -V(xc)+E(xc)   XCENC  =       189.36753742
  PAW double counting   =     24789.08602224   -23775.73976456
  entropy T*S    EENTRO =         0.00880227
  eigenvalues    EBANDS =      -592.97101726
  atomic energy  EATOM  =     27259.89416086
  Solvation  Ediel_sol  =         0.00000000
  ---------------------------------------------------
  free energy    TOTEN  =      -248.65253322 eV

  energy without entropy =     -248.66133549  energy(sigma->0) =     -248.65546731


--------------------------------------------------------------------------------------------------------




--------------------------------------- Iteration      1(   5)  ---------------------------------------


     EDDAV:  cpu time   33.2976: real time   45.1745
       DOS:  cpu time    0.0011: real time    0.0011
    CHARGE:  cpu time    0.6361: real time    1.1984
    MIXING:  cpu time    0.0417: real time    0.0909
    --------------------------------------------
      LOOP:  cpu time   33.9765: real time   46.4649

 eigenvalue-minimisations  :  2416
 total energy-change (2. order) :-0.2138910E+00  (-0.2116110E+00)
 number of electron     376.0000047 magnetization 
 augmentation part      105.7866941 magnetization 

 Broyden mixing:
  rms(total) = 0.27358E+01    rms(broyden)= 0.27354E+01
  rms(prec ) = 0.30554E+01
  weight for this iteration     100.00

 Free energy of the ion-electron system (eV)
  ---------------------------------------------------
  alpha Z        PSCENC =       975.10247152
  Ewald energy   TEWEN  =     91338.68857837
  -Hartree energ DENC   =   -120432.08932408
  -exchange      EXHF   =         0.00000000
  -V(xc)+E(xc)   XCENC  =       189.36753742
  PAW double counting   =     24789.08602224   -23775.73976456
  entropy T*S    EENTRO =         0.00875709
  eigenvalues    EBANDS =      -593.18486307
  atomic energy  EATOM  =     27259.89416086
  Solvation  Ediel_sol  =         0.00000000
  ---------------------------------------------------
  free energy    TOTEN  =      -248.86642422 eV

  energy without entropy =     -248.87518131  energy(sigma->0) =     -248.86934325


--------------------------------------------------------------------------------------------------------




--------------------------------------- Iteration      1(   6)  ---------------------------------------


    POTLOK:  cpu time    0.2101: real time    0.4729
    SETDIJ:  cpu time    0.0103: real time    0.0284
    EDDIAG:  cpu time    2.5715: real time    3.1537
  RMM-DIIS:  cpu time    4.7876: real time    6.7660
    ORTHCH:  cpu time    0.3985: real time    0.5215
       DOS:  cpu time    0.0010: real time    0.0010
    CHARGE:  cpu time    0.4746: real time    0.5829
    MIXING:  cpu time    0.0303: real time    0.0304
    --------------------------------------------
      LOOP:  cpu time    8.4838: real time   11.5569

 eigenvalue-minimisations  :  1831
 total energy-change (2. order) : 0.1972428E+01  (-0.5458452E+01)
 number of electron     376.0000043 magnetization 
 augmentation part      112.9981214 magnetization 

 Broyden mixing:
  rms(total) = 0.29707E+01    rms(broyden)= 0.29697E+01
  rms(prec ) = 0.39235E+01
  weight for this iteration     100.00

 eigenvalues of (default mixing * dielectric matrix)
  average eigenvalue GAMMA=   0.4843
  0.4843

 Free energy of the ion-electron system (eV)
  ---------------------------------------------------
  alpha Z        PSCENC =       975.10247152
  Ewald energy   TEWEN  =     91338.68857837
  -Hartree energ DENC   =   -119959.03281757
  -exchange      EXHF   =         0.00000000
  -V(xc)+E(xc)   XCENC  =       182.23835138
  PAW double counting   =     26697.57851701   -25737.77284025
  entropy T*S    EENTRO =        -0.23120600
  eigenvalues    EBANDS =     -1003.35921151
  atomic energy  EATOM  =     27259.89416086
  Solvation  Ediel_sol  =         0.00000000
  ---------------------------------------------------
  free energy    TOTEN  =      -246.89399619 eV

  energy without entropy =     -246.66279018  energy(sigma->0) =     -246.81692752


--------------------------------------------------------------------------------------------------------




--------------------------------------- Iteration      1(   7)  ---------------------------------------


    POTLOK:  cpu time    0.3714: real time    0.5151
    SETDIJ:  cpu time    0.0328: real time    0.0463
    EDDIAG:  cpu time    3.0038: real time    3.9383
  RMM-DIIS:  cpu time    5.2586: real time    7.6694
    ORTHCH:  cpu time    0.4045: real time    0.4068
       DOS:  cpu time    0.0010: real time    0.0010
    CHARGE:  cpu time    0.8092: real time    0.8132
    MIXING:  cpu time    0.0705: real time    0.0708
    --------------------------------------------
      LOOP:  cpu time    9.9518: real time   13.4609

 eigenvalue-minimisations  :  1828
 total energy-change (2. order) : 0.8473636E+01  (-0.3290220E+01)
 number of electron     376.0000055 magnetization 
 augmentation part      111.4321806 magnetization 

 Broyden mixing:
  rms(total) = 0.17542E+01    rms(broyden)= 0.17531E+01
  rms(prec ) = 0.24977E+01
  weight for this iteration     100.00

 eigenvalues of (default mixing * dielectric matrix)
  average eigenvalue GAMMA=   0.6648
  1.0604  0.2691

 Free energy of the ion-electron system (eV)
  ---------------------------------------------------
  alpha Z        PSCENC =       975.10247152
  Ewald energy   TEWEN  =     91338.68857837
  -Hartree energ DENC   =   -120159.81015578
  -exchange      EXHF   =         0.00000000
  -V(xc)+E(xc)   XCENC  =       179.80089639
  PAW double counting   =     27351.27117164   -26398.77016619
  entropy T*S    EENTRO =        -0.11283239
  eigenvalues    EBANDS =      -784.48448469
  atomic energy  EATOM  =     27259.89416086
  Solvation  Ediel_sol  =         0.00000000
  ---------------------------------------------------
  free energy    TOTEN  =      -238.42036027 eV

  energy without entropy =     -238.30752788  energy(sigma->0) =     -238.38274947


--------------------------------------------------------------------------------------------------------




--------------------------------------- Iteration      1(   8)  ---------------------------------------


    POTLOK:  cpu time    0.2621: real time    0.3554
    SETDIJ:  cpu time    0.0405: real time    0.0661
    EDDIAG:  cpu time    3.3376: real time    4.2414
  RMM-DIIS:  cpu time    5.2434: real time    7.8096
    ORTHCH:  cpu time    0.6132: real time    0.8469
       DOS:  cpu time    0.0010: real time    0.0010
    CHARGE:  cpu time    0.4929: real time    0.7724
    MIXING:  cpu time    0.0082: real time    0.0082
    --------------------------------------------
      LOOP:  cpu time    9.9988: real time   14.1010

 eigenvalue-minimisations  :  1832
 total energy-change (2. order) :-0.4719616E+01  (-0.7703566E+00)
 number of electron     376.0000055 magnetization 
 augmentation part      112.4734963 magnetization 

 Broyden mixing:
  rms(total) = 0.25112E+01    rms(broyden)= 0.25111E+01
  rms(prec ) = 0.45417E+01
  weight for this iteration     100.00

 eigenvalues of (default mixing * dielectric matrix)
  average eigenvalue GAMMA=   0.5535
  1.2157  0.2855  0.1594

 Free energy of the ion-electron system (eV)
  ---------------------------------------------------
  alpha Z        PSCENC =       975.10247152
  Ewald energy   TEWEN  =     91338.68857837
  -Hartree energ DENC   =   -120074.97711029
  -exchange      EXHF   =         0.00000000
  -V(xc)+E(xc)   XCENC  =       178.57335511
  PAW double counting   =     28269.90852820   -27331.93936894
  entropy T*S    EENTRO =         0.03961868
  eigenvalues    EBANDS =      -858.43020973
  atomic energy  EATOM  =     27259.89416086
  Solvation  Ediel_sol  =         0.00000000
  ---------------------------------------------------
  free energy    TOTEN  =      -243.13997621 eV

  energy without entropy =     -243.17959489  energy(sigma->0) =     -243.15318243


--------------------------------------------------------------------------------------------------------




--------------------------------------- Iteration      1(   9)  ---------------------------------------


    POTLOK:  cpu time    0.2335: real time    0.3109
    SETDIJ:  cpu time    0.0361: real time    0.0486
    EDDIAG:  cpu time    2.1785: real time    3.4933
  RMM-DIIS:  cpu time    5.0581: real time    7.0477
    ORTHCH:  cpu time    0.2856: real time    0.5190
       DOS:  cpu time    0.0010: real time    0.0010
    CHARGE:  cpu time    0.4875: real time    0.7927
    MIXING:  cpu time    0.0388: real time    0.0517
    --------------------------------------------
      LOOP:  cpu time    8.3191: real time   12.2649

 eigenvalue-minimisations  :  1831
 total energy-change (2. order) : 0.1112978E+02  (-0.3378507E+00)
 number of electron     376.0000051 magnetization 
 augmentation part      112.6442947 magnetization 

 Broyden mixing:
  rms(total) = 0.92654E+00    rms(broyden)= 0.92641E+00
  rms(prec ) = 0.14770E+01
  weight for this iteration     100.00

 eigenvalues of (default mixing * dielectric matrix)
  average eigenvalue GAMMA=   0.5206
  1.3112  0.3301  0.3301  0.1111

 Free energy of the ion-electron system (eV)
  ---------------------------------------------------
  alpha Z        PSCENC =       975.10247152
  Ewald energy   TEWEN  =     91338.68857837
  -Hartree energ DENC   =   -120051.09517543
  -exchange      EXHF   =         0.00000000
  -V(xc)+E(xc)   XCENC  =       178.24168136
  PAW double counting   =     28670.16202525   -27738.26947832
  entropy T*S    EENTRO =        -0.04326452
  eigenvalues    EBANDS =      -864.69119388
  atomic energy  EATOM  =     27259.89416086
  Solvation  Ediel_sol  =         0.00000000
  ---------------------------------------------------
  free energy    TOTEN  =      -232.01019478 eV

  energy without entropy =     -231.96693026  energy(sigma->0) =     -231.99577327


--------------------------------------------------------------------------------------------------------




--------------------------------------- Iteration      1(  10)  ---------------------------------------


    POTLOK:  cpu time    0.1880: real time    0.2534
    SETDIJ:  cpu time    0.0145: real time    0.0211
    EDDIAG:  cpu time    3.0584: real time    4.4506
  RMM-DIIS:  cpu time    5.3806: real time    8.2556
    ORTHCH:  cpu time    0.4793: real time    0.6968
       DOS:  cpu time    0.0012: real time    0.0012
    CHARGE:  cpu time    0.7425: real time    1.0175
    MIXING:  cpu time    0.0228: real time    0.0229
    --------------------------------------------
      LOOP:  cpu time    9.8874: real time   14.7191

 eigenvalue-minimisations  :  1831
 total energy-change (2. order) : 0.1198878E+01  (-0.1207467E+00)
 number of electron     376.0000052 magnetization 
 augmentation part      112.7584681 magnetization 

 Broyden mixing:
  rms(total) = 0.48555E+00    rms(broyden)= 0.48527E+00
  rms(prec ) = 0.64077E+00
  weight for this iteration     100.00

 eigenvalues of (default mixing * dielectric matrix)
  average eigenvalue GAMMA=   0.5306
  1.3958  0.5379  0.3808  0.2300  0.1084

 Free energy of the ion-electron system (eV)
  ---------------------------------------------------
  alpha Z        PSCENC =       975.10247152
  Ewald energy   TEWEN  =     91338.68857837
  -Hartree energ DENC   =   -120064.58633700
  -exchange      EXHF   =         0.00000000
  -V(xc)+E(xc)   XCENC  =       178.17884156
  PAW double counting   =     28965.99920574   -28038.37842907
  entropy T*S    EENTRO =        -0.01666267
  eigenvalues    EBANDS =      -845.69314593
  atomic energy  EATOM  =     27259.89416086
  Solvation  Ediel_sol  =         0.00000000
  ---------------------------------------------------
  free energy    TOTEN  =      -230.81131662 eV

  energy without entropy =     -230.79465395  energy(sigma->0) =     -230.80576240


--------------------------------------------------------------------------------------------------------




--------------------------------------- Iteration      1(  11)  ---------------------------------------


    POTLOK:  cpu time    0.4245: real time    0.4552
    SETDIJ:  cpu time    0.0628: real time    0.0633
    EDDIAG:  cpu time    2.2460: real time    2.8248
  RMM-DIIS:  cpu time    5.3593: real time    8.4761
    ORTHCH:  cpu time    0.3608: real time    0.4934
       DOS:  cpu time    0.0488: real time    0.0970
    CHARGE:  cpu time    0.6101: real time    0.9872
    MIXING:  cpu time    0.0539: real time    0.0544
    --------------------------------------------
      LOOP:  cpu time    9.1662: real time   13.4514

 eigenvalue-minimisations  :  1831
 total energy-change (2. order) : 0.4742767E+00  (-0.3857287E-01)
 number of electron     376.0000051 magnetization 
 augmentation part      112.8820527 magnetization 

 Broyden mixing:
  rms(total) = 0.26377E+00    rms(broyden)= 0.26370E+00
  rms(prec ) = 0.32548E+00
  weight for this iteration     100.00

 eigenvalues of (default mixing * dielectric matrix)
  average eigenvalue GAMMA=   0.5894
  1.5185  0.7435  0.5131  0.4045  0.2479  0.1087

 Free energy of the ion-electron system (eV)
  ---------------------------------------------------
  alpha Z        PSCENC =       975.10247152
  Ewald energy   TEWEN  =     91338.68857837
  -Hartree energ DENC   =   -120046.51503846
  -exchange      EXHF   =         0.00000000
  -V(xc)+E(xc)   XCENC  =       178.11904439
  PAW double counting   =     29256.02522465   -28332.19841247
  entropy T*S    EENTRO =        -0.01275555
  eigenvalues    EBANDS =      -859.44031323
  atomic energy  EATOM  =     27259.89416086
  Solvation  Ediel_sol  =         0.00000000
  ---------------------------------------------------
  free energy    TOTEN  =      -230.33703991 eV

  energy without entropy =     -230.32428436  energy(sigma->0) =     -230.33278806


--------------------------------------------------------------------------------------------------------




--------------------------------------- Iteration      1(  12)  ---------------------------------------


    POTLOK:  cpu time    0.5919: real time    0.6182
    SETDIJ:  cpu time    0.0215: real time    0.1078
    EDDIAG:  cpu time    2.7878: real time    3.7283
  RMM-DIIS:  cpu time    5.2103: real time    6.5807
    ORTHCH:  cpu time    0.3331: real time    0.4639
       DOS:  cpu time    0.0085: real time    0.0085
    CHARGE:  cpu time    0.6051: real time    0.9726
    MIXING:  cpu time    0.0058: real time    0.0237
    --------------------------------------------
      LOOP:  cpu time    9.5641: real time   12.5039

 eigenvalue-minimisations  :  1836
 total energy-change (2. order) : 0.7894208E-01  (-0.1783247E-01)
 number of electron     376.0000050 magnetization 
 augmentation part      112.9810265 magnetization 

 Broyden mixing:
  rms(total) = 0.25413E+00    rms(broyden)= 0.25402E+00
  rms(prec ) = 0.29733E+00
  weight for this iteration     100.00

 eigenvalues of (default mixing * dielectric matrix)
  average eigenvalue GAMMA=   0.6748
  1.8128  1.0838  0.7425  0.4497  0.1086  0.2488  0.2775

 Free energy of the ion-electron system (eV)
  ---------------------------------------------------
  alpha Z        PSCENC =       975.10247152
  Ewald energy   TEWEN  =     91338.68857837
  -Hartree energ DENC   =   -120038.02190544
  -exchange      EXHF   =         0.00000000
  -V(xc)+E(xc)   XCENC  =       178.06880941
  PAW double counting   =     29528.01449279   -28607.60705084
  entropy T*S    EENTRO =        -0.02526803
  eigenvalues    EBANDS =      -864.37238649
  atomic energy  EATOM  =     27259.89416086
  Solvation  Ediel_sol  =         0.00000000
  ---------------------------------------------------
  free energy    TOTEN  =      -230.25809784 eV

  energy without entropy =     -230.23282981  energy(sigma->0) =     -230.24967516


--------------------------------------------------------------------------------------------------------




--------------------------------------- Iteration      1(  13)  ---------------------------------------


    POTLOK:  cpu time    0.2174: real time    0.4843
    SETDIJ:  cpu time    0.0328: real time    0.0329
    EDDIAG:  cpu time    3.2117: real time    4.7438
  RMM-DIIS:  cpu time    6.1602: real time    7.3871
    ORTHCH:  cpu time    0.5764: real time    0.6644
       DOS:  cpu time    0.0011: real time    0.0011
    CHARGE:  cpu time    0.6552: real time    0.9828
    MIXING:  cpu time    0.0216: real time    0.0352
    --------------------------------------------
      LOOP:  cpu time   10.8764: real time   14.3317

 eigenvalue-minimisations  :  1830
 total energy-change (2. order) : 0.3458566E-01  (-0.1527844E-01)
 number of electron     376.0000050 magnetization 
 augmentation part      112.9781882 magnetization 

 Broyden mixing:
  rms(total) = 0.18173E+00    rms(broyden)= 0.18172E+00
  rms(prec ) = 0.21957E+00
  weight for this iteration     100.00

 eigenvalues of (default mixing * dielectric matrix)
  average eigenvalue GAMMA=   0.7089
  2.1876  1.2407  0.8083  0.4630  0.1086  0.3612  0.2385  0.2633

 Free energy of the ion-electron system (eV)
  ---------------------------------------------------
  alpha Z        PSCENC =       975.10247152
  Ewald energy   TEWEN  =     91338.68857837
  -Hartree energ DENC   =   -120035.68821044
  -exchange      EXHF   =         0.00000000
  -V(xc)+E(xc)   XCENC  =       177.95091203
  PAW double counting   =     29800.55766062   -28883.39821407
  entropy T*S    EENTRO =        -0.01982045
  eigenvalues    EBANDS =      -863.31105063
  atomic energy  EATOM  =     27259.89416086
  Solvation  Ediel_sol  =         0.00000000
  ---------------------------------------------------
  free energy    TOTEN  =      -230.22351218 eV

  energy without entropy =     -230.20369173  energy(sigma->0) =     -230.21690536


--------------------------------------------------------------------------------------------------------




--------------------------------------- Iteration      1(  14)  ---------------------------------------


    POTLOK:  cpu time    0.3520: real time    0.4891
    SETDIJ:  cpu time    0.0402: real time    0.0594
    EDDIAG:  cpu time    2.6149: real time    3.0792
  RMM-DIIS:  cpu time    5.9889: real time    7.3561
    ORTHCH:  cpu time    0.5025: real time    0.5053
       DOS:  cpu time    0.0010: real time    0.0010
    CHARGE:  cpu time    0.6936: real time    0.7247
    MIXING:  cpu time    0.0622: real time    0.0626
    --------------------------------------------
      LOOP:  cpu time   10.2555: real time   12.2775

 eigenvalue-minimisations  :  1830
 total energy-change (2. order) : 0.3617033E-01  (-0.9545621E-02)
 number of electron     376.0000050 magnetization 
 augmentation part      112.9569560 magnetization 

 Broyden mixing:
  rms(total) = 0.10462E+00    rms(broyden)= 0.10455E+00
  rms(prec ) = 0.13896E+00
  weight for this iteration     100.00

 eigenvalues of (default mixing * dielectric matrix)
  average eigenvalue GAMMA=   0.7205
  2.4277  1.2572  0.7227  0.7227  0.4616  0.1086  0.3068  0.2424  0.2350

 Free energy of the ion-electron system (eV)
  ---------------------------------------------------
  alpha Z        PSCENC =       975.10247152
  Ewald energy   TEWEN  =     91338.68857837
  -Hartree energ DENC   =   -120035.68662853
  -exchange      EXHF   =         0.00000000
  -V(xc)+E(xc)   XCENC  =       177.87271651
  PAW double counting   =     29970.62235247   -29055.41232985
  entropy T*S    EENTRO =        -0.00625538
  eigenvalues    EBANDS =      -861.26240783
  atomic energy  EATOM  =     27259.89416086
  Solvation  Ediel_sol  =         0.00000000
  ---------------------------------------------------
  free energy    TOTEN  =      -230.18734185 eV

  energy without entropy =     -230.18108647  energy(sigma->0) =     -230.18525672


--------------------------------------------------------------------------------------------------------




--------------------------------------- Iteration      1(  15)  ---------------------------------------


    POTLOK:  cpu time    0.1784: real time    0.2950
    SETDIJ:  cpu time    0.0142: real time    0.0300
    EDDIAG:  cpu time    3.0811: real time    4.0109
  RMM-DIIS:  cpu time    6.2930: real time    6.4262
    ORTHCH:  cpu time    0.5938: real time    0.5971
       DOS:  cpu time    0.0010: real time    0.0010
    CHARGE:  cpu time    0.8977: real time    0.9023
    MIXING:  cpu time    0.1455: real time    0.1462
    --------------------------------------------
      LOOP:  cpu time   11.2047: real time   12.4086

 eigenvalue-minimisations  :  1831
 total energy-change (2. order) : 0.9097906E-02  (-0.2699392E-02)
 number of electron     376.0000050 magnetization 
 augmentation part      112.9742922 magnetization 

 Broyden mixing:
  rms(total) = 0.65680E-01    rms(broyden)= 0.65653E-01
  rms(prec ) = 0.81496E-01
  weight for this iteration     100.00

 eigenvalues of (default mixing * dielectric matrix)
  average eigenvalue GAMMA=   0.7037
  2.4976  1.2558  0.8044  0.8044  0.1086  0.4166  0.3995  0.2743  0.2513  0.2242

 Free energy of the ion-electron system (eV)
  ---------------------------------------------------
  alpha Z        PSCENC =       975.10247152
  Ewald energy   TEWEN  =     91338.68857837
  -Hartree energ DENC   =   -120036.61303735
  -exchange      EXHF   =         0.00000000
  -V(xc)+E(xc)   XCENC  =       177.87175921
  PAW double counting   =     30037.28035651   -29122.82061173
  entropy T*S    EENTRO =        -0.01710437
  eigenvalues    EBANDS =      -859.56481696
  atomic energy  EATOM  =     27259.89416086
  Solvation  Ediel_sol  =         0.00000000
  ---------------------------------------------------
  free energy    TOTEN  =      -230.17824394 eV

  energy without entropy =     -230.16113957  energy(sigma->0) =     -230.17254249


--------------------------------------------------------------------------------------------------------




--------------------------------------- Iteration      1(  16)  ---------------------------------------


    POTLOK:  cpu time    0.3665: real time    0.3687
    SETDIJ:  cpu time    0.0417: real time    0.0419
    EDDIAG:  cpu time    2.8395: real time    2.8550
  RMM-DIIS:  cpu time    6.4951: real time    6.5338
    ORTHCH:  cpu time    0.5210: real time    0.5236
       DOS:  cpu time    0.0010: real time    0.0010
    CHARGE:  cpu time    0.8233: real time    0.8277
    MIXING:  cpu time    0.2269: real time    0.2281
    --------------------------------------------
      LOOP:  cpu time   11.3150: real time   11.3799

 eigenvalue-minimisations  :  1829
 total energy-change (2. order) : 0.6411488E-02  (-0.8191877E-03)
 number of electron     376.0000050 magnetization 
 augmentation part      112.9676566 magnetization 

 Broyden mixing:
  rms(total) = 0.22322E-01    rms(broyden)= 0.22318E-01
  rms(prec ) = 0.27500E-01
  weight for this iteration     100.00

 eigenvalues of (default mixing * dielectric matrix)
  average eigenvalue GAMMA=   0.7168
  2.5007  1.2185  0.9550  0.9550  0.5818  0.4846  0.1086  0.3388  0.2720  0.2476
  0.2225

 Free energy of the ion-electron system (eV)
  ---------------------------------------------------
  alpha Z        PSCENC =       975.10247152
  Ewald energy   TEWEN  =     91338.68857837
  -Hartree energ DENC   =   -120037.35765928
  -exchange      EXHF   =         0.00000000
  -V(xc)+E(xc)   XCENC  =       177.87032146
  PAW double counting   =     30055.88716285   -29141.59809573
  entropy T*S    EENTRO =        -0.01384442
  eigenvalues    EBANDS =      -858.64492809
  atomic energy  EATOM  =     27259.89416086
  Solvation  Ediel_sol  =         0.00000000
  ---------------------------------------------------
  free energy    TOTEN  =      -230.17183245 eV

  energy without entropy =     -230.15798803  energy(sigma->0) =     -230.16721765


--------------------------------------------------------------------------------------------------------




--------------------------------------- Iteration      1(  17)  ---------------------------------------


    POTLOK:  cpu time    0.3968: real time    0.3991
    SETDIJ:  cpu time    0.0184: real time    0.0185
    EDDIAG:  cpu time    3.9126: real time    3.9503
  RMM-DIIS:  cpu time    5.0604: real time    6.7363
    ORTHCH:  cpu time    0.6656: real time    0.7023
       DOS:  cpu time    0.0011: real time    0.0011
    CHARGE:  cpu time    0.7315: real time    1.0291
    MIXING:  cpu time    0.0654: real time    0.0658
    --------------------------------------------
      LOOP:  cpu time   10.8518: real time   12.9023

 eigenvalue-minimisations  :  1821
 total energy-change (2. order) :-0.7325461E-04  (-0.1999386E-03)
 number of electron     376.0000050 magnetization 
 augmentation part      112.9686923 magnetization 

 Broyden mixing:
  rms(total) = 0.21563E-01    rms(broyden)= 0.21559E-01
  rms(prec ) = 0.26077E-01
  weight for this iteration     100.00

 eigenvalues of (default mixing * dielectric matrix)
  average eigenvalue GAMMA=   0.7360
  2.4690  1.3139  1.3139  1.0245  0.7267  0.4699  0.1086  0.3617  0.3105  0.2633
  0.2487  0.2219

 Free energy of the ion-electron system (eV)
  ---------------------------------------------------
  alpha Z        PSCENC =       975.10247152
  Ewald energy   TEWEN  =     91338.68857837
  -Hartree energ DENC   =   -120038.27163122
  -exchange      EXHF   =         0.00000000
  -V(xc)+E(xc)   XCENC  =       177.87515313
  PAW double counting   =     30055.95454784   -29141.62363827
  entropy T*S    EENTRO =        -0.01544233
  eigenvalues    EBANDS =      -857.77610561
  atomic energy  EATOM  =     27259.89416086
  Solvation  Ediel_sol  =         0.00000000
  ---------------------------------------------------
  free energy    TOTEN  =      -230.17190571 eV

  energy without entropy =     -230.15646337  energy(sigma->0) =     -230.16675826


--------------------------------------------------------------------------------------------------------




--------------------------------------- Iteration      1(  18)  ---------------------------------------


    POTLOK:  cpu time    0.3570: real time    0.3589
    SETDIJ:  cpu time    0.0212: real time    0.0213
    EDDIAG:  cpu time    4.7062: real time    5.0482
  RMM-DIIS:  cpu time    5.7016: real time    6.5846
    ORTHCH:  cpu time    0.6209: real time    0.6261
       DOS:  cpu time    0.0079: real time    0.0079
    CHARGE:  cpu time    1.0364: real time    1.0451
    MIXING:  cpu time    0.0624: real time    0.0629
    --------------------------------------------
      LOOP:  cpu time   12.5136: real time   13.7551

 eigenvalue-minimisations  :  1813
 total energy-change (2. order) :-0.1181742E-03  (-0.1125143E-03)
 number of electron     376.0000050 magnetization 
 augmentation part      112.9618717 magnetization 

 Broyden mixing:
  rms(total) = 0.14284E-01    rms(broyden)= 0.14277E-01
  rms(prec ) = 0.17758E-01
  weight for this iteration     100.00

 eigenvalues of (default mixing * dielectric matrix)
  average eigenvalue GAMMA=   0.7280
  2.4751  1.4386  1.4386  0.9465  0.8125  0.4536  0.4536  0.1086  0.3387  0.2874
  0.2448  0.2448  0.2210

 Free energy of the ion-electron system (eV)
  ---------------------------------------------------
  alpha Z        PSCENC =       975.10247152
  Ewald energy   TEWEN  =     91338.68857837
  -Hartree energ DENC   =   -120039.49925205
  -exchange      EXHF   =         0.00000000
  -V(xc)+E(xc)   XCENC  =       177.87766382
  PAW double counting   =     30053.24281689   -29138.81899731
  entropy T*S    EENTRO =        -0.01383773
  eigenvalues    EBANDS =      -856.64562827
  atomic energy  EATOM  =     27259.89416086
  Solvation  Ediel_sol  =         0.00000000
  ---------------------------------------------------
  free energy    TOTEN  =      -230.17202388 eV

  energy without entropy =     -230.15818616  energy(sigma->0) =     -230.16741131


--------------------------------------------------------------------------------------------------------




--------------------------------------- Iteration      1(  19)  ---------------------------------------


    POTLOK:  cpu time    0.3355: real time    0.3384
    SETDIJ:  cpu time    0.0204: real time    0.0205
    EDDIAG:  cpu time    2.8880: real time    2.9128
  RMM-DIIS:  cpu time    6.0583: real time    6.1426
    ORTHCH:  cpu time    0.5520: real time    0.5567
       DOS:  cpu time    0.0106: real time    0.0106
    --------------------------------------------
      LOOP:  cpu time    9.8647: real time    9.9816

 eigenvalue-minimisations  :  1360
 total energy-change (2. order) : 0.4489990E-05  (-0.4200084E-04)
 number of electron     376.0000050 magnetization 
 augmentation part      112.9618717 magnetization 

 Free energy of the ion-electron system (eV)
  ---------------------------------------------------
  alpha Z        PSCENC =       975.10247152
  Ewald energy   TEWEN  =     91338.68857837
  -Hartree energ DENC   =   -120040.01832178
  -exchange      EXHF   =         0.00000000
  -V(xc)+E(xc)   XCENC  =       177.88064469
  PAW double counting   =     30053.36655260   -29138.91719734
  entropy T*S    EENTRO =        -0.01452616
  eigenvalues    EBANDS =      -856.15438217
  atomic energy  EATOM  =     27259.89416086
  Solvation  Ediel_sol  =         0.00000000
  ---------------------------------------------------
  free energy    TOTEN  =      -230.17201939 eV

  energy without entropy =     -230.15749323  energy(sigma->0) =     -230.16717734


--------------------------------------------------------------------------------------------------------




 average (electrostatic) potential at core
  the test charge radii are     0.6991  0.7215  1.2059
  (the norm of the test charge is              1.0000)
       1 -56.2407       2 -74.3465       3 -76.2022       4 -72.3666       5 -72.3654
       6 -72.3412       7 -72.3471       8 -72.3675       9 -72.3800      10 -72.3302
      11 -72.3770      12 -72.3615      13 -72.9466      14 -73.0640      15 -72.9743
      16 -73.0387      17 -73.0795      18 -73.0379      19 -73.0322      20 -73.0331
      21 -73.0473      22 -73.0670      23 -73.0528      24 -72.9877      25 -73.0063
      26 -73.0380      27 -73.0661      28 -72.9605      29 -73.0035      30 -72.9672
      31 -72.5065      32 -72.4139      33 -72.4362      34 -72.2846      35 -72.3747
      36 -73.2152      37 -72.5269      38 -73.0862      39 -72.2819
 
 
 
 E-fermi :   1.0599     XC(G=0):  -6.6243     alpha+bet : -6.8913


 k-point     1 :       0.0000    0.0000    0.0000
  band No.  band energies     occupation 
      1     -22.0726      2.00000
      2     -16.3218      2.00000
      3      -8.4090      2.00000
      4      -8.1126      2.00000
      5      -6.8151      2.00000
      6      -5.9257      2.00000
      7      -5.8003      2.00000
      8      -5.7537      2.00000
      9      -5.7448      2.00000
     10      -5.7125      2.00000
     11      -5.7024      2.00000
     12      -5.6567      2.00000
     13      -5.6293      2.00000
     14      -5.5426      2.00000
     15      -5.3390      2.00000
     16      -5.2016      2.00000
     17      -5.1353      2.00000
     18      -5.1152      2.00000
     19      -5.0939      2.00000
     20      -5.0792      2.00000
     21      -5.0266      2.00000
     22      -5.0093      2.00000
     23      -4.6399      2.00000
     24      -4.6054      2.00000
     25      -4.6030      2.00000
     26      -4.5630      2.00000
     27      -4.5560      2.00000
     28      -4.5366      2.00000
     29      -4.4122      2.00000
     30      -4.3952      2.00000
     31      -4.3747      2.00000
     32      -4.3630      2.00000
     33      -4.3409      2.00000
     34      -4.2562      2.00000
     35      -4.1863      2.00000
     36      -4.1706      2.00000
     37      -4.1529      2.00000
     38      -4.1396      2.00000
     39      -4.1180      2.00000
     40      -4.1065      2.00000
     41      -4.0941      2.00000
     42      -4.0683      2.00000
     43      -4.0603      2.00000
     44      -4.0378      2.00000
     45      -4.0275      2.00000
     46      -4.0182      2.00000
     47      -3.5918      2.00000
     48      -3.5253      2.00000
     49      -3.4630      2.00000
     50      -3.4595      2.00000
     51      -3.4501      2.00000
     52      -3.4133      2.00000
     53      -3.3994      2.00000
     54      -3.3749      2.00000
     55      -3.3427      2.00000
     56      -3.3327      2.00000
     57      -3.2812      2.00000
     58      -3.2613      2.00000
     59      -3.2009      2.00000
     60      -3.1485      2.00000
     61      -2.9260      2.00000
     62      -2.7685      2.00000
     63      -2.7257      2.00000
     64      -2.6491      2.00000
     65      -2.6349      2.00000
     66      -2.5854      2.00000
     67      -2.5737      2.00000
     68      -2.5297      2.00000
     69      -2.5178      2.00000
     70      -2.4849      2.00000
     71      -2.4596      2.00000
     72      -2.4551      2.00000
     73      -2.4439      2.00000
     74      -2.4338      2.00000
     75      -2.4170      2.00000
     76      -2.3938      2.00000
     77      -2.3856      2.00000
     78      -2.3718      2.00000
     79      -2.3660      2.00000
     80      -2.3529      2.00000
     81      -2.3341      2.00000
     82      -2.3155      2.00000
     83      -2.3005      2.00000
     84      -2.2635      2.00000
     85      -2.2532      2.00000
     86      -2.1896      2.00000
     87      -2.1676      2.00000
     88      -2.1305      2.00000
     89      -2.0941      2.00000
     90      -2.0676      2.00000
     91      -2.0507      2.00000
     92      -2.0402      2.00000
     93      -2.0202      2.00000
     94      -1.9876      2.00000
     95      -1.9574      2.00000
     96      -1.9361      2.00000
     97      -1.8865      2.00000
     98      -1.8176      2.00000
     99      -1.7954      2.00000
    100      -1.7471      2.00000
    101      -1.6966      2.00000
    102      -1.6661      2.00000
    103      -1.6581      2.00000
    104      -1.5883      2.00000
    105      -1.5836      2.00000
    106      -1.5808      2.00000
    107      -1.5590      2.00000
    108      -1.5475      2.00000
    109      -1.5318      2.00000
    110      -1.5285      2.00000
    111      -1.4997      2.00000
    112      -1.4832      2.00000
    113      -1.4562      2.00000
    114      -1.2664      2.00000
    115      -1.2331      2.00000
    116      -1.1513      2.00000
    117      -1.0956      2.00000
    118      -1.0188      2.00000
    119      -0.9919      2.00000
    120      -0.9779      2.00000
    121      -0.9453      2.00000
    122      -0.9186      2.00000
    123      -0.9112      2.00000
    124      -0.8875      2.00000
    125      -0.8424      2.00000
    126      -0.8325      2.00000
    127      -0.8141      2.00000
    128      -0.7871      2.00000
    129      -0.7310      2.00000
    130      -0.7152      2.00000
    131      -0.6917      2.00000
    132      -0.6524      2.00000
    133      -0.6361      2.00000
    134      -0.5963      2.00000
    135      -0.5309      2.00000
    136      -0.5013      2.00000
    137      -0.4561      2.00000
    138      -0.4159      2.00000
    139      -0.4098      2.00000
    140      -0.4027      2.00000
    141      -0.2999      2.00000
    142      -0.2683      2.00000
    143      -0.2396      2.00000
    144      -0.2202      2.00000
    145      -0.1744      2.00000
    146      -0.1398      2.00000
    147      -0.1041      2.00000
    148      -0.0672      2.00000
    149      -0.0302      2.00000
    150       0.0314      2.00000
    151       0.0478      2.00000
    152       0.0754      2.00000
    153       0.0876      2.00000
    154       0.1120      2.00000
    155       0.1486      2.00000
    156       0.1710      2.00000
    157       0.1851      2.00000
    158       0.2170      2.00000
    159       0.2532      2.00000
    160       0.2673      2.00000
    161       0.2751      2.00000
    162       0.2950      2.00000
    163       0.3078      2.00000
    164       0.3121      2.00000
    165       0.3418      2.00000
    166       0.3677      2.00001
    167       0.4009      2.00003
    168       0.4066      2.00004
    169       0.4215      2.00006
    170       0.4530      2.00015
    171       0.4760      2.00029
    172       0.5146      2.00079
    173       0.5327      2.00123
    174       0.5668      2.00270
    175       0.5966      2.00506
    176       0.6031      2.00576
    177       0.6191      2.00784
    178       0.6471      2.01294
    179       0.6619      2.01652
    180       0.6829      2.02279
    181       0.7179      2.03623
    182       0.7426      2.04738
    183       0.7597      2.05522
    184       0.7716      2.06036
    185       0.7778      2.06277
    186       0.7841      2.06502
    187       0.7883      2.06639
    188       0.7973      2.06881
    189       0.8079      2.07056
    190       0.8140      2.07091
    191       0.8252      2.07003
    192       0.8299      2.06900
    193       0.8436      2.06328
    194       0.8719      2.03541
    195       0.9019      1.97479
    196       1.0479      1.10075
    197       1.0601      0.99755
    198       1.1398      0.37969
    199       1.1567      0.27729
    200       1.1762      0.17689
    201       1.1957      0.09527
    202       1.2155      0.03161
    203       1.2313     -0.00648
    204       1.3416     -0.06289
    205       1.3966     -0.03854
    206       1.9093     -0.00000
    207       1.9658     -0.00000
    208       2.0026     -0.00000
    209       2.0318     -0.00000
    210       2.1983     -0.00000
    211       2.5095     -0.00000
    212       3.5007     -0.00000
    213       4.0178     -0.00000
    214       4.3165     -0.00000
    215       4.3383     -0.00000
    216       4.4113     -0.00000
    217       4.5659     -0.00000
    218       4.8417     -0.00000
    219       5.3685     -0.00000
    220       5.6470     -0.00000
    221       5.8102     -0.00000
    222       5.8337     -0.00000
    223       5.8724     -0.00000
    224       5.8987     -0.00000
    225       5.9439     -0.00000
    226       6.0491     -0.00000
    227       6.5344      0.00000
    228       6.8678      0.00000

 k-point     2 :       0.5000    0.0000    0.0000
  band No.  band energies     occupation 
      1     -22.0725      2.00000
      2     -16.3215      2.00000
      3      -8.3405      2.00000
      4      -7.3306      2.00000
      5      -7.2737      2.00000
      6      -6.0840      2.00000
      7      -6.0112      2.00000
      8      -5.9100      2.00000
      9      -5.8643      2.00000
     10      -5.6180      2.00000
     11      -5.4737      2.00000
     12      -5.3894      2.00000
     13      -5.3104      2.00000
     14      -5.2164      2.00000
     15      -4.9983      2.00000
     16      -4.9358      2.00000
     17      -4.9213      2.00000
     18      -4.9045      2.00000
     19      -4.8973      2.00000
     20      -4.8772      2.00000
     21      -4.8532      2.00000
     22      -4.8457      2.00000
     23      -4.8267      2.00000
     24      -4.7850      2.00000
     25      -4.7697      2.00000
     26      -4.7610      2.00000
     27      -4.7304      2.00000
     28      -4.7063      2.00000
     29      -4.6684      2.00000
     30      -4.4999      2.00000
     31      -4.3935      2.00000
     32      -4.3906      2.00000
     33      -4.3762      2.00000
     34      -4.3433      2.00000
     35      -4.3416      2.00000
     36      -4.0893      2.00000
     37      -4.0647      2.00000
     38      -4.0355      2.00000
     39      -4.0009      2.00000
     40      -3.9875      2.00000
     41      -3.9767      2.00000
     42      -3.9638      2.00000
     43      -3.9185      2.00000
     44      -3.7870      2.00000
     45      -3.7440      2.00000
     46      -3.6758      2.00000
     47      -3.6704      2.00000
     48      -3.6524      2.00000
     49      -3.6264      2.00000
     50      -3.5943      2.00000
     51      -3.4920      2.00000
     52      -3.4455      2.00000
     53      -3.4231      2.00000
     54      -3.3773      2.00000
     55      -3.3550      2.00000
     56      -3.3159      2.00000
     57      -3.2320      2.00000
     58      -3.2034      2.00000
     59      -3.1739      2.00000
     60      -3.1582      2.00000
     61      -3.1097      2.00000
     62      -3.0698      2.00000
     63      -3.0460      2.00000
     64      -3.0201      2.00000
     65      -2.9754      2.00000
     66      -2.9505      2.00000
     67      -2.9073      2.00000
     68      -2.8721      2.00000
     69      -2.8413      2.00000
     70      -2.7755      2.00000
[...]
     88      -2.1959      2.00000
     89      -2.1888      2.00000
     90      -2.1517      2.00000
     91      -2.1439      2.00000
     92      -2.1012      2.00000
     93      -2.0852      2.00000
     94      -2.0045      2.00000
     95      -1.9900      2.00000
     96      -1.9489      2.00000
     97      -1.9310      2.00000
     98      -1.9274      2.00000
     99      -1.8723      2.00000
    100      -1.8447      2.00000
    101      -1.7798      2.00000
    102      -1.7642      2.00000
    103      -1.7569      2.00000
    104      -1.7316      2.00000
    105      -1.7159      2.00000
    106      -1.6751      2.00000
    107      -1.6572      2.00000
    108      -1.6310      2.00000
    109      -1.6220      2.00000
    110      -1.5615      2.00000
    111      -1.5261      2.00000
    112      -1.4682      2.00000
    113      -1.4221      2.00000
    114      -1.3210      2.00000
    115      -1.3178      2.00000
    116      -1.2716      2.00000
    117      -1.2365      2.00000
    118      -1.1568      2.00000
    119      -1.1359      2.00000
    120      -1.1069      2.00000
    121      -1.0814      2.00000
    122      -1.0485      2.00000
    123      -1.0409      2.00000
    124      -1.0103      2.00000
    125      -1.0034      2.00000
    126      -0.9931      2.00000
    127      -0.9638      2.00000
    128      -0.9394      2.00000
    129      -0.9146      2.00000
    130      -0.8976      2.00000
    131      -0.8645      2.00000
    132      -0.8235      2.00000
    133      -0.7962      2.00000
    134      -0.7678      2.00000
    135      -0.7395      2.00000
    136      -0.7100      2.00000
    137      -0.6783      2.00000
    138      -0.6534      2.00000
    139      -0.6351      2.00000
    140      -0.5479      2.00000
    141      -0.5070      2.00000
    142      -0.4844      2.00000
    143      -0.4236      2.00000
    144      -0.2992      2.00000
    145      -0.2595      2.00000
    146      -0.2203      2.00000
    147      -0.2052      2.00000
    148      -0.1742      2.00000
    149      -0.1117      2.00000
    150      -0.0676      2.00000
    151      -0.0627      2.00000
    152       0.0155      2.00000
    153       0.0486      2.00000
    154       0.0638      2.00000
    155       0.0711      2.00000
    156       0.0818      2.00000
    157       0.0958      2.00000
    158       0.1441      2.00000
    159       0.1699      2.00000
    160       0.1961      2.00000
    161       0.2418      2.00000
    162       0.2692      2.00000
    163       0.2954      2.00000
    164       0.3093      2.00000
    165       0.3483      2.00000
    166       0.3735      2.00001
    167       0.5223      2.00071
    168       0.5683      2.00213
    169       0.5727      2.00235
    170       0.6094      2.00513
    171       0.6373      2.00878
    172       0.6590      2.01290
    173       0.7013      2.02492
    174       0.7624      2.05094
    175       0.7680      2.05351
    176       0.7867      2.06154
    177       0.8285      2.07090
    178       0.8529      2.06480
    179       0.8933      2.02047
    180       0.9146      1.97328
    181       0.9225      1.95078
    182       0.9919      1.62103
    183       1.0250      1.38587
    184       1.0646      1.06210
    185       1.0746      0.97775
    186       1.0995      0.76918
    187       1.1113      0.67404
    188       1.1138      0.65475
    189       1.1309      0.52488
    190       1.1493      0.39703
    191       1.2892     -0.06382
    192       1.3130     -0.07079
    193       1.3489     -0.06466
    194       1.3594     -0.06067
    195       1.3857     -0.04904
    196       1.4694     -0.01666
    197       1.6027     -0.00113
    198       1.6841     -0.00013
    199       1.7929     -0.00000
    200       1.9647     -0.00000
    201       2.2318     -0.00000
    202       2.3039     -0.00000
    203       2.7805     -0.00000
    204       2.9080     -0.00000
    205       2.9383     -0.00000
    206       2.9598     -0.00000
    207       2.9860     -0.00000
    208       3.1978     -0.00000
    209       3.3760     -0.00000
    210       3.4971     -0.00000
    211       3.5308     -0.00000
    212       3.6068     -0.00000
    213       3.6846     -0.00000
    214       3.7891     -0.00000
    215       3.9192     -0.00000
    216       4.1409     -0.00000
    217       4.1759     -0.00000
    218       4.3678     -0.00000
    219       4.4014     -0.00000
    220       4.5859     -0.00000
    221       4.6416     -0.00000
    222       4.8014     -0.00000
    223       5.0944     -0.00000
    224       5.4581     -0.00000
    225       5.9054     -0.00000
    226       6.4875     -0.00000
    227       6.5149     -0.00000
    228       6.6119      0.00000


--------------------------------------------------------------------------------------------------------


 soft charge-density along one line, spin component           1
         0         1         2         3         4         5         6         7         8         9
 total charge-density along one line
 
 pseudopotential strength for first ion, spin component:           1
 10.091   0.015   0.004   0.011  -0.000  -0.004  -0.010   0.001
  0.015  -0.002  -0.000  -0.000  -0.000  -0.000  -0.000   0.000
  0.004  -0.000  -4.245  -0.005   0.001  -0.009  -0.002   0.000
  0.011  -0.000  -0.005  -4.259   0.004  -0.002  -0.015   0.001
 -0.000  -0.000   0.001   0.004  -4.244   0.000   0.001  -0.008
 -0.004  -0.000  -0.009  -0.002   0.000  -0.770  -0.000   0.000
 -0.010  -0.000  -0.002  -0.015   0.001  -0.000  -0.770   0.000
  0.001   0.000   0.000   0.001  -0.008   0.000   0.000  -0.770
 total augmentation occupancy for first ion, spin component:           1
  1.627  -0.827   0.012   0.015  -0.055   0.032   0.088  -0.028
 -0.827   1.186  -0.201  -0.564   0.118  -0.078  -0.229   0.043
  0.012  -0.201   0.828   0.179  -0.008   0.110   0.049  -0.007
  0.015  -0.564   0.179   1.304  -0.036   0.049   0.241  -0.017
 -0.055   0.118  -0.008  -0.036   0.784  -0.007  -0.017   0.097
  0.032  -0.078   0.110   0.049  -0.007   0.018   0.019  -0.004
  0.088  -0.229   0.049   0.241  -0.017   0.019   0.069  -0.009
 -0.028   0.043  -0.007  -0.017   0.097  -0.004  -0.009   0.014


------------------------ aborting loop because EDIFF is reached ----------------------------------------


    CHARGE:  cpu time    0.8442: real time    1.1263
    FORLOC:  cpu time    0.0581: real time    0.0584
    FORNL :  cpu time    3.0137: real time    3.8137
    STRESS:  cpu time    8.6734: real time   10.5580
    FORCOR:  cpu time    0.5341: real time    0.7081
    FORHAR:  cpu time    0.2181: real time    0.2200
    MIXING:  cpu time    0.0337: real time    0.0339
    OFIELD:  cpu time    0.0000: real time    0.0000

  FORCE on cell =-STRESS in cart. coord.  units (eV):
  Direction    XX          YY          ZZ          XY          YZ          ZX
  --------------------------------------------------------------------------------------
  Alpha Z   975.10247   975.10247   975.10247
  Ewald  111100.79282111122.59238************  -218.61239   214.65646   -99.81234
  Hartree117861.77950117850.29316************  -147.36427    88.06780   -51.39891
  E(xc)   -1665.69924 -1665.41117 -1672.83718    -0.47395     0.67078    -0.28962
  Local  ************************239644.88696   356.04061  -281.04488   142.09449
  n-local   122.25217   121.79358    87.56827    -1.09482     0.53957    -0.02578
  augment  1896.00404  1893.78964  1932.24993     2.60235    -3.89734     1.46804
  Kinetic  5523.82493  5514.20683  5597.91522     9.96748   -19.91488     9.20515
  Fock        0.00000     0.00000     0.00000     0.00000     0.00000     0.00000
  -------------------------------------------------------------------------------------
  Total     -36.99870   -39.53692    -5.98422     1.06501    -0.92247     1.24104
  in kB     -44.06606   -47.08912    -7.12730     1.26844    -1.09868     1.47810
  external pressure =      -32.76 kB  Pullay stress =        0.00 kB


 VOLUME and BASIS-vectors are now :
 -----------------------------------------------------------------------------
  energy-cutoff  :      450.00
  volume of cell :     1345.22
      direct lattice vectors                 reciprocal lattice vectors
     7.296955120 -4.212899000  0.000000000     0.137043463  0.000000000  0.000000000
     0.000000000  8.425798000  0.000000000     0.068521732  0.118683121  0.000000000
     0.000000000  0.000000000 21.879635000     0.000000000  0.000000000  0.045704602

  length of vectors
     8.425798004  8.425798000 21.879635000     0.137043463  0.137043463  0.045704602


 FORCES acting on ions
    electron-ion (+dipol)            ewald-force                    non-local-force                 convergence-correction
 -----------------------------------------------------------------------------------------------
   0.401E+01 0.170E+02 -.872E+03   -.403E+01 -.218E+02 0.860E+03   -.116E-01 0.345E+01 0.110E+02   0.362E-02 0.131E-01 0.489E-01
   -.801E+02 0.511E+02 -.159E+04   0.813E+02 -.483E+02 0.161E+04   -.725E+00 -.255E+01 -.226E+02   0.312E-03 0.105E-01 0.112E-01
   0.668E+02 -.956E+02 -.155E+04   -.772E+02 0.115E+03 0.160E+04   0.106E+02 -.194E+02 -.575E+02   0.765E-02 -.105E-01 0.296E-02
   0.654E-01 0.114E+01 0.234E+04   -.757E-01 -.107E+01 -.234E+04   0.177E-01 -.509E-01 -.122E+01   0.255E-01 -.668E-01 0.200E-01
   0.709E+00 0.954E-01 0.234E+04   -.716E+00 -.151E+00 -.234E+04   0.186E-01 -.300E-01 -.115E+01   -.637E-01 0.486E-01 0.129E-01
   -.719E-01 0.179E+00 0.234E+04   -.632E-02 -.151E+00 -.234E+04   0.248E-01 -.289E-01 -.114E+01   0.247E-01 -.494E-02 -.632E-02
   0.106E+00 -.530E+00 0.234E+04   -.864E-01 0.517E+00 -.234E+04   -.416E-02 0.283E-01 -.116E+01   0.978E-03 0.125E-01 0.111E-03
   -.386E+00 0.120E+00 0.234E+04   0.350E+00 -.456E-01 -.234E+04   0.512E-02 0.371E-02 -.128E+01   0.132E-01 -.482E-01 0.582E-02
   -.399E+00 -.756E+00 0.234E+04   0.394E+00 0.652E+00 -.234E+04   0.178E-01 0.301E-01 -.122E+01   0.372E-02 0.665E-01 0.206E-01
   0.363E+00 -.350E+00 0.234E+04   -.225E+00 0.194E+00 -.234E+04   -.739E-01 0.939E-01 -.112E+01   -.295E-01 -.592E-03 -.166E-01
   -.747E+00 0.615E+00 0.234E+04   0.649E+00 -.497E+00 -.234E+04   0.917E-02 -.251E-01 -.127E+01   0.632E-01 -.616E-01 0.105E-01
   0.352E+00 -.582E+00 0.234E+04   -.282E+00 0.553E+00 -.234E+04   -.201E-01 0.128E-01 -.105E+01   -.380E-01 0.543E-01 0.235E-01
   0.591E+01 -.601E+01 0.857E+03   -.596E+01 0.593E+01 -.857E+03   0.847E-02 0.119E+00 -.603E+00   -.724E-01 0.607E-01 0.289E-01
   -.727E+00 0.508E+01 0.863E+03   0.575E+00 -.509E+01 -.863E+03   0.116E+00 -.102E-01 -.385E+00   0.422E-01 -.381E-01 0.547E-01
   -.293E+01 0.523E+01 0.852E+03   0.299E+01 -.527E+01 -.852E+03   0.898E-01 -.138E-01 -.164E+00   0.227E-01 -.348E-01 0.850E-02
   0.233E+01 0.793E+01 0.864E+03   -.241E+01 -.795E+01 -.864E+03   0.194E-01 -.107E+00 -.380E+00   -.911E-02 -.213E-01 0.305E-01
   -.172E+01 -.257E+01 0.864E+03   0.167E+01 0.257E+01 -.864E+03   0.116E+00 0.534E-02 -.492E+00   -.106E-01 0.731E-01 0.719E-01
   0.508E+00 -.398E+00 0.866E+03   -.511E+00 0.362E+00 -.866E+03   -.260E-01 0.103E+00 -.399E+00   0.333E-01 -.282E-01 0.659E-01
   -.285E+00 -.188E+01 0.862E+03   0.365E+00 0.202E+01 -.861E+03   -.106E+00 -.795E-01 -.397E+00   -.144E-01 -.393E-01 0.516E-01
   -.756E+01 -.171E+01 0.860E+03   0.754E+01 0.181E+01 -.859E+03   0.126E+00 -.696E-02 -.396E+00   0.386E-01 -.349E-01 0.401E-01
   0.358E+01 -.515E+01 0.861E+03   -.352E+01 0.527E+01 -.861E+03   -.600E-01 -.334E-01 -.427E+00   -.305E-01 0.628E-01 0.504E-01
   -.826E+00 -.728E+01 -.627E+03   0.736E+00 0.711E+01 0.627E+03   0.266E-01 0.521E+00 0.506E+00   -.287E-02 -.264E-01 0.500E-01
   -.264E+01 -.107E+02 -.636E+03   0.260E+01 0.108E+02 0.635E+03   0.136E+00 0.306E+00 0.148E+00   0.131E-01 -.615E-01 0.513E-01
   0.102E+01 0.154E+02 -.636E+03   -.123E+01 -.151E+02 0.635E+03   0.105E+00 -.514E+00 0.544E+00   0.414E-01 -.596E-02 0.297E-01
   0.497E+01 0.199E+02 -.677E+03   -.536E+01 -.192E+02 0.677E+03   0.137E+00 -.805E+00 -.733E+00   -.137E-01 0.353E-01 -.233E-02
   0.149E+02 0.355E+01 -.620E+03   -.144E+02 -.363E+01 0.620E+03   -.579E+00 0.351E-01 0.747E+00   0.123E-01 0.370E-01 0.268E-01
   -.111E+02 -.994E+01 -.630E+03   0.110E+02 0.997E+01 0.630E+03   0.493E+00 -.201E+00 0.770E+00   -.574E-01 -.598E-02 0.241E-01
   -.187E+01 -.712E+00 -.664E+03   0.198E+01 0.746E+00 0.664E+03   -.202E+00 -.108E+00 0.208E+00   -.133E-01 -.201E-01 -.268E-02
   -.135E+02 0.699E+01 -.630E+03   0.135E+02 -.703E+01 0.630E+03   0.274E+00 -.293E+00 0.713E+00   0.106E-01 0.246E-01 0.139E-01
   0.858E+01 -.133E+02 -.636E+03   -.856E+01 0.131E+02 0.635E+03   -.314E+00 0.223E+00 0.164E+00   0.106E-01 0.279E-01 0.483E-01
   -.144E+02 -.225E+02 -.214E+04   0.151E+02 0.225E+02 0.214E+04   -.796E+00 0.145E+00 0.166E+01   -.501E-02 -.158E-01 -.779E-02
   0.168E+02 0.263E+02 -.213E+04   -.171E+02 -.270E+02 0.213E+04   0.363E+00 0.748E+00 0.158E+01   0.475E-02 -.187E-01 0.474E-02
   0.377E+02 -.101E+01 -.215E+04   -.380E+02 0.946E+00 0.215E+04   0.182E+00 0.679E-01 0.966E+00   0.945E-02 0.420E-01 0.143E-01
   -.354E+00 0.853E+01 -.220E+04   0.466E+00 -.877E+01 0.220E+04   -.307E+00 0.209E+00 0.950E+00   -.262E-01 -.405E-02 0.108E-01
   0.190E+02 0.210E+02 -.216E+04   -.191E+02 -.211E+02 0.216E+04   -.414E-01 0.732E-01 0.923E+00   -.281E-02 -.279E-01 0.267E-01
   0.654E+02 0.662E+02 -.196E+04   -.679E+02 -.649E+02 0.196E+04   0.229E+01 -.116E+01 -.161E+01   0.423E-01 0.216E-01 -.546E-02
   -.663E+02 -.585E+02 -.205E+04   0.675E+02 0.605E+02 0.205E+04   -.958E+00 -.178E+01 0.261E+01   -.219E-01 -.295E-01 -.314E-03
   -.609E+02 0.916E+02 -.205E+04   0.608E+02 -.920E+02 0.205E+04   -.206E+00 0.446E+00 -.822E+00   0.501E-02 0.319E-01 0.300E-02
   0.283E+01 -.870E+02 -.215E+04   -.292E+01 0.882E+02 0.215E+04   0.390E+00 -.717E+00 0.782E+00   -.295E-02 -.653E-02 0.464E-02
 -----------------------------------------------------------------------------------------------
   -.110E+02 0.214E+02 0.724E+02   -.973E-13 -.114E-12 -.364E-11   0.111E+02 -.213E+02 -.732E+02   0.148E-01 0.107E-01 0.826E+00
 
 
 POSITION                                       TOTAL-FORCE (eV/Angst)
 -----------------------------------------------------------------------------------
      5.09385      0.68343     10.37412        -0.033278     -1.331331     -1.365423
      6.64845     -0.55591     10.25266         0.475715      0.220068     -0.322588
      4.90083      1.05264     11.45649         0.121130      0.179854      0.327410
      7.20031     -1.38846      1.62732         0.030760     -0.053270      0.128603
      2.33567      1.42014      1.62732        -0.053992     -0.040782      0.147717
      4.76799      0.01584      1.62732        -0.030858     -0.009897      0.110101
      7.20031      1.42015      1.62732         0.014408      0.023972      0.125115
      2.33567      4.22875      1.62732        -0.019668      0.026155      0.100728
      4.76799      2.82445      1.62732         0.014878     -0.010558      0.188046
      2.33567      7.03734      1.62732         0.032476     -0.066078      0.025552
      4.76799      5.63304      1.62732        -0.028089      0.027466      0.142632
      7.20031      4.22874      1.62732         0.009987      0.033947      0.086225
      1.52490      0.01584      3.92052        -0.121362      0.093332     -0.201787
      3.95722     -1.38846      3.92052         0.003374     -0.070883     -0.226373
      6.38953     -2.79276      3.92052         0.171067     -0.092971      0.016491
      1.52490      2.82445      3.92052        -0.069257     -0.147524     -0.192453
      3.95722      1.42015      3.92052         0.057497      0.073116     -0.119267
      6.38953      0.01585      3.92052         0.002044      0.034761     -0.175604
      1.52490      5.63305      3.92052        -0.043088      0.017197     -0.228786
      3.95722      4.22874      3.92052         0.141632      0.053249     -0.157863
      6.38953      2.82445      3.92052        -0.033349      0.145252     -0.195390
      0.71826      4.17966      6.17334        -0.068494      0.314698      0.135951
      3.13628      5.61110      6.18242         0.107326      0.306552     -0.189182
      5.58063     -1.37144      6.17920        -0.069426     -0.202620      0.341745
      0.72220      1.44572      6.25944        -0.277203     -0.107073     -0.047559
      3.16139      0.01325      6.15162        -0.061457     -0.011157      0.511940
      0.69339      7.05560      6.16047         0.293486     -0.184855      0.342541
      5.60068      4.22554      6.22253        -0.108091     -0.097627     -0.063369
      3.15592      2.82439      6.16752         0.288769     -0.306055      0.288425
      5.60264      1.41714      6.19994        -0.287956      0.124323     -0.103206
      2.38690      4.18725      8.40701        -0.127483      0.128660      0.380325
      4.76953      5.59763      8.43445         0.063485      0.025954      0.105787
      2.35091      1.39052      8.51462        -0.170735      0.041799     -0.308533
      7.24321      4.19021      8.56755        -0.222881     -0.036332     -0.381650
      2.35742      7.01072      8.46861        -0.144085     -0.051370     -0.174095
      4.70618      0.05340      8.52571        -0.104620      0.165358      0.849700
      7.25429      1.40997      8.41149         0.201714      0.219624      0.255245
      7.23648     -1.45908      8.60221        -0.245019      0.134136      0.573191
      4.77034      2.81029      8.59662         0.290640      0.430911     -0.730343
 -----------------------------------------------------------------------------------
    total drift:                                0.084619      0.138916     -0.000147
  FORCES: max atom, RMS     1.907336    0.460771
  Number: max atom                 1
  FORCE total and by dimension    2.877512    1.365423


--------------------------------------------------------------------------------------------------------



  FREE ENERGIE OF THE ION-ELECTRON SYSTEM (eV)
  ---------------------------------------------------
  free  energy   TOTEN  =      -230.44530210 eV

  energy  without entropy=     -230.42859908  energy(sigma->0) =     -230.43973443
 
 d Force = 0.8000818E-01[ 0.182E-01, 0.142E+00]  d Energy = 0.8360035E-01-0.359E-02
 d Force =-0.1373373E+02[-0.141E+02,-0.133E+02]  d Ewald  =-0.1372937E+02-0.436E-02


--------------------------------------------------------------------------------------------------------


    POTLOK:  cpu time    0.4902: real time    0.6472


--------------------------------------------------------------------------------------------------------


 stress matrix after NEB project (eV)
    -36.99870      1.06501      1.24104
      1.06501    -39.53692     -0.92247
      1.24104     -0.92247     -5.98422
  FORCES: max atom, RMS     1.907336    0.460771
  FORCE total and by dimension    2.877512    1.365423
  Stress total and by dimension   54.542947   39.536918
 Quasi-Newton relaxation of ions (Broydens 2nd method)
  g(Force)  = 0.160E+00   g(Stress)= 0.000E+00

 retain information from N=  2 steps
 eigenvalues of (default step * inverse Hessian matrix)
  average eigenvalue of G=   2.2781
 eigenvalue spectrum of G is  0.3414  4.2148
  RESET_HESSIAN           0


--------------------------------------------------------------------------------------------------------


    WAVPRE:  cpu time    0.0938: real time    0.3969
    FEWALD:  cpu time    0.0084: real time    0.0370

 real space projection operators:
  total allocation   :      13554.23 KBytes
  max/ min on nodes  :       6785.83       6768.41

    ORTHCH:  cpu time    1.2076: real time    1.7495
     LOOP+:  cpu time  126.8509: real time  153.7797


--------------------------------------- Iteration      4(   1)  ---------------------------------------


    POTLOK:  cpu time    0.3434: real time    0.5242
