 running on    8 total cores
 distrk:  each k-point on    8 cores,    1 groups
 distr:  one band on    2 cores,    4 groups
 using from now: INCAR     
 vasp.5.4.4 16052018 (build Apr 24 2014 20:13:14) complex standard
 Contain Constrained Minimization Technique (TS), Periodic NBO, VASPsol, libbeef, VASP2WANNIER90, Constrained Cell Relaxation
 POSCAR found type information on POSCAR  C  O  Pt
 POSCAR found :  3 types and      39 ions
 scaLAPACK will be used
 LDA part: xc-table for Pade appr. of Perdew
 POSCAR found type information on POSCAR  C  O  Pt
 POSCAR found :  3 types and      39 ions
 POSCAR, INCAR and KPOINTS ok, starting setup
 FFT: planning ...
 WAVECAR not read
 entering main loop
       N       E                     dE             d eps       ncg     rms          rms(c)
DAV:   1     0.241828897586E+04    0.24183E+04   -0.15950E+05  1824   0.129E+03
DAV:   2    -0.645092925256E+02   -0.24828E+04   -0.23066E+04  2120   0.286E+02
DAV:   3    -0.241077123473E+03   -0.17657E+03   -0.16017E+03  2168   0.688E+01
DAV:   4    -0.248652533223E+03   -0.75754E+01   -0.73137E+01  2376   0.136E+01
DAV:   5    -0.248866424219E+03   -0.21389E+00   -0.21161E+00  2416   0.233E+00    0.274E+01
RMM:   6    -0.246893996189E+03    0.19724E+01   -0.54585E+01  1831   0.148E+01    0.297E+01
RMM:   7    -0.238420360270E+03    0.84736E+01   -0.32902E+01  1828   0.898E+00    0.175E+01
RMM:   8    -0.243139976205E+03   -0.47196E+01   -0.77036E+00  1832   0.459E+00    0.251E+01
RMM:   9    -0.232010194780E+03    0.11130E+02   -0.33785E+00  1831   0.291E+00    0.927E+00
RMM:  10    -0.230811316618E+03    0.11989E+01   -0.12075E+00  1831   0.171E+00    0.486E+00
RMM:  11    -0.230337039914E+03    0.47428E+00   -0.38573E-01  1831   0.987E-01    0.264E+00
RMM:  12    -0.230258097838E+03    0.78942E-01   -0.17832E-01  1836   0.651E-01    0.254E+00
RMM:  13    -0.230223512179E+03    0.34586E-01   -0.15278E-01  1830   0.662E-01    0.182E+00
RMM:  14    -0.230187341847E+03    0.36170E-01   -0.95456E-02  1830   0.535E-01    0.105E+00
RMM:  15    -0.230178243941E+03    0.90979E-02   -0.26994E-02  1831   0.271E-01    0.657E-01
RMM:  16    -0.230171832453E+03    0.64115E-02   -0.81919E-03  1829   0.157E-01    0.223E-01
RMM:  17    -0.230171905708E+03   -0.73255E-04   -0.19994E-03  1821   0.758E-02    0.216E-01
RMM:  18    -0.230172023882E+03   -0.11817E-03   -0.11251E-03  1813   0.569E-02    0.143E-01
RMM:  19    -0.230172019392E+03    0.44900E-05   -0.42001E-04  1360   0.362E-02
   1 F= -.23017202E+03 E0= -.23016718E+03  d E =-.230172E+03
 BRION: g(F)=  0.276E+00 g(S)=  0.000E+00
 bond charge predicted
       N       E                     dE             d eps       ncg     rms          rms(c)
DAV:   1    -0.230324676721E+03   -0.15265E+00   -0.24551E+01  1848   0.916E+00    0.828E-01
RMM:   2    -0.230431745362E+03   -0.10707E+00   -0.56374E-01  1840   0.151E+00    0.215E+00
RMM:   3    -0.230379126148E+03    0.52619E-01   -0.41802E-02  1864   0.350E-01    0.101E+00
RMM:   4    -0.230366735779E+03    0.12390E-01   -0.13198E-02  1847   0.193E-01    0.582E-01
RMM:   5    -0.230363783695E+03    0.29521E-02   -0.64994E-03  1834   0.134E-01    0.445E-01
RMM:   6    -0.230363666694E+03    0.11700E-03   -0.90799E-03  1830   0.164E-01    0.356E-01
RMM:   7    -0.230362226531E+03    0.14402E-02   -0.41257E-03  1829   0.109E-01    0.209E-01
RMM:   8    -0.230361787795E+03    0.43874E-03   -0.12966E-03  1815   0.614E-02    0.114E-01
RMM:   9    -0.230361674416E+03    0.11338E-03   -0.30593E-04  1153   0.314E-02    0.560E-02
RMM:  10    -0.230361701750E+03   -0.27335E-04   -0.94140E-05   963   0.190E-02
   2 F= -.23036170E+03 E0= -.23035617E+03  d E =-.189682E+00
 BRION: g(F)=  0.321E+00 g(S)=  0.000E+00 retain N=  1 mean eig= 0.73
 eig:   0.727
 bond charge predicted
       N       E                     dE             d eps       ncg     rms          rms(c)
DAV:   1    -0.230427981717E+03   -0.66307E-01   -0.64349E+00  1856   0.476E+00    0.481E-01
RMM:   2    -0.230458567498E+03   -0.30586E-01   -0.26925E-01  1842   0.795E-01    0.806E-01
RMM:   3    -0.230451062145E+03    0.75054E-02   -0.10288E-02  1844   0.161E-01    0.532E-01
RMM:   4    -0.230447946446E+03    0.31157E-02   -0.33326E-03  1843   0.952E-02    0.362E-01
RMM:   5    -0.230447197395E+03    0.74905E-03   -0.35537E-03  1833   0.947E-02    0.363E-01
RMM:   6    -0.230446289819E+03    0.90758E-03   -0.43484E-03  1825   0.106E-01    0.247E-01
RMM:   7    -0.230445514517E+03    0.77530E-03   -0.16033E-03  1816   0.663E-02    0.124E-01
RMM:   8    -0.230445355451E+03    0.15907E-03   -0.37746E-04  1278   0.340E-02    0.710E-02
RMM:   9    -0.230445302096E+03    0.53354E-04   -0.11217E-04   980   0.209E-02
   3 F= -.23044530E+03 E0= -.23043973E+03  d E =-.836003E-01
 BRION: g(F)=  0.160E+00 g(S)=  0.000E+00 retain N=  2 mean eig= 2.28
 eig:   0.341  4.215
 bond charge predicted
       N       E                     dE             d eps       ncg     rms          rms(c)
[mpiexec@node07] Sending Ctrl-C to processes as requested
[mpiexec@node07] Press Ctrl-C again to force abort
