<?xml version="1.0" encoding="ISO-8859-1"?>
<modeling>
 <generator>
  <i name="program" type="string"> vasp </i>
  <i name="version" type="string">5.4.4  </i>
  <i name="subversion" type="string">16052018 (build Apr 24 2014 20:13:14) complex standard parallel Constrained Minimization Technique (TS), Periodic NBO, VASPsol, libbeef, VASP2WANNIER90, Constrained Cell Relaxation </i>
  <i name="platform" type="string">Center for Computational Chemistry </i>
  <i name="user" type="string">phu </i>
  <i name="host" type="string">node07 </i>
  <i name="date" type="string">2025 11 24 </i>
  <i name="time" type="string">19:29:37 </i>
 </generator>
 <incar>
  <i type="string" name="SYSTEM"> metal</i>
  <i type="int" name="ISTART">     0</i>
  <i type="string" name="PREC">normal</i>
  <i type="string" name="ALGO">Fast</i>
  <i type="int" name="NSIM">     4</i>
  <i type="int" name="ISPIN">     1</i>
  <i type="int" name="NELMIN">     8</i>
  <i type="int" name="IBRION">     1</i>
  <i name="EDIFFG">     -0.05000000</i>
  <i type="int" name="NSW">  5000</i>
  <i type="int" name="ISIF">     2</i>
  <i type="int" name="ISYM">     0</i>
  <i name="ENCUT">    450.00000000</i>
  <i name="POTIM">      0.20000000</i>
  <i type="string" name="LREAL">A</i>
  <i type="int" name="ISMEAR">     1</i>
  <i name="SIGMA">      0.20000000</i>
  <i type="logical" name="LWAVE"> F  </i>
  <i type="logical" name="LCHARG"> F  </i>
  <v type="int" name="KPOINT_BSE">    -1     0     0     0</v>
  <i type="int" name="VOSKOWN">     0</i>
 </incar>
 <structure name="primitive_cell" >
  <crystal>
   <varray name="basis" >
    <v>       7.29695512      -4.21289900       0.00000000 </v>
    <v>       0.00000000       8.42579800       0.00000000 </v>
    <v>       0.00000000       0.00000000      21.87963500 </v>
   </varray>
   <i name="volume">   1345.21837528 </i>
   <varray name="rec_basis" >
    <v>       0.13704346       0.00000000       0.00000000 </v>
    <v>       0.06852173       0.11868312       0.00000000 </v>
    <v>       0.00000000       0.00000000       0.04570460 </v>
   </varray>
  </crystal>
  <varray name="positions" >
   <v>      -0.30137353       0.43396200       0.47480407 </v>
   <v>      -0.32951007       0.46081788      -0.47530740 </v>
   <v>      -0.09057760       0.38814067       0.46942752 </v>
   <v>      -0.35494716       0.32827524       0.38814220 </v>
   <v>      -0.34770163      -0.34184517       0.39384781 </v>
   <v>      -0.00694439      -0.33704259       0.38404644 </v>
   <v>       0.32290177       0.32646169       0.38962384 </v>
   <v>      -0.00673802       0.32241869       0.39198053 </v>
   <v>       0.32392965      -0.00579678       0.38740340 </v>
   <v>      -0.34687010      -0.00909443       0.38537990 </v>
   <v>      -0.23060031      -0.44800445       0.28361473 </v>
   <v>      -0.00642278      -0.00558409       0.39218348 </v>
   <v>       0.43376656       0.21850132       0.28033283 </v>
   <v>      -0.23476358       0.22094279       0.28192361 </v>
   <v>       0.32780880      -0.33957122       0.38356395 </v>
   <v>       0.43053831      -0.44781540       0.28146391 </v>
   <v>       0.09890400      -0.45617531       0.28200119 </v>
   <v>      -0.23192947      -0.11403258       0.28438140 </v>
   <v>       0.09334643      -0.11522191       0.28090836 </v>
   <v>       0.42933950      -0.12114140       0.28294002 </v>
   <v>       0.10025567       0.22258037       0.28614887 </v>
   <v>      -0.45768900       0.43970300       0.17918600 </v>
   <v>      -0.12435600       0.43970300       0.17918600 </v>
   <v>      -0.45768900       0.10636900       0.17918600 </v>
   <v>      -0.12435600      -0.22696400       0.17918600 </v>
   <v>       0.20897700       0.10636900       0.17918600 </v>
   <v>      -0.45768900      -0.22696400       0.17918600 </v>
   <v>      -0.12435600       0.10636900       0.17918600 </v>
   <v>       0.20897700      -0.22696400       0.17918600 </v>
   <v>       0.20897700       0.43970300       0.17918600 </v>
   <v>      -0.34657800       0.32859100       0.07437600 </v>
   <v>      -0.34657800      -0.33807500       0.07437600 </v>
   <v>      -0.01324500      -0.33807500       0.07437600 </v>
   <v>       0.32008800       0.32859100       0.07437600 </v>
   <v>      -0.01324500       0.32859100       0.07437600 </v>
   <v>       0.32008800      -0.00474200       0.07437600 </v>
   <v>      -0.34657800      -0.00474200       0.07437600 </v>
   <v>      -0.01324500      -0.00474200       0.07437600 </v>
   <v>       0.32008800      -0.33807500       0.07437600 </v>
  </varray>
 </structure>
 <varray name="primitive_index" >
  <v type="int" >        1 </v>
  <v type="int" >        3 </v>
  <v type="int" >        2 </v>
  <v type="int" >       36 </v>
  <v type="int" >       39 </v>
  <v type="int" >       37 </v>
  <v type="int" >       33 </v>
  <v type="int" >       38 </v>
  <v type="int" >       35 </v>
  <v type="int" >       32 </v>
  <v type="int" >       30 </v>
  <v type="int" >       34 </v>
  <v type="int" >       26 </v>
  <v type="int" >       24 </v>
  <v type="int" >       31 </v>
  <v type="int" >       29 </v>
  <v type="int" >       22 </v>
  <v type="int" >       28 </v>
  <v type="int" >       27 </v>
  <v type="int" >       23 </v>
  <v type="int" >       25 </v>
  <v type="int" >       17 </v>
  <v type="int" >       18 </v>
  <v type="int" >       14 </v>
  <v type="int" >       21 </v>
  <v type="int" >       13 </v>
  <v type="int" >       20 </v>
  <v type="int" >       15 </v>
  <v type="int" >       19 </v>
  <v type="int" >       16 </v>
  <v type="int" >        6 </v>
  <v type="int" >        9 </v>
  <v type="int" >        7 </v>
  <v type="int" >        5 </v>
  <v type="int" >        4 </v>
  <v type="int" >       10 </v>
  <v type="int" >       11 </v>
  <v type="int" >       12 </v>
  <v type="int" >        8 </v>
 </varray>
 <kpoints>
  <generation param="Gamma">
   <v type="int" name="divisions">       2        2        1 </v>
   <v name="usershift">      0.00000000       0.00000000       0.00000000 </v>
   <v name="genvec1">      0.50000000       0.00000000       0.00000000 </v>
   <v name="genvec2">     -0.00000000       0.50000000       0.00000000 </v>
   <v name="genvec3">      0.00000000       0.00000000       1.00000000 </v>
   <v name="shift">      0.00000000       0.00000000       0.00000000 </v>
  </generation>
  <varray name="kpointlist" >
   <v>       0.00000000       0.00000000       0.00000000 </v>
   <v>       0.50000000       0.00000000       0.00000000 </v>
   <v>      -0.00000000       0.50000000       0.00000000 </v>
   <v>       0.50000000       0.50000000       0.00000000 </v>
  </varray>
  <varray name="weights" >
   <v>       0.25000000 </v>
   <v>       0.25000000 </v>
   <v>       0.25000000 </v>
   <v>       0.25000000 </v>
  </varray>
 </kpoints>
 <parameters>
  <separator name="general" >
   <i type="string" name="SYSTEM">metal</i>
   <i type="logical" name="LCOMPAT"> F  </i>
  </separator>
  <separator name="electronic" >
   <i type="string" name="PREC">normal</i>
   <i name="ENMAX">    450.00000000</i>
   <i name="ENAUG">    644.87300000</i>
   <i name="EDIFF">      0.00010000</i>
   <i type="int" name="IALGO">    68</i>
   <i type="int" name="IWAVPR">    11</i>
   <i type="int" name="NBANDS">   228</i>
   <i name="NELECT">    376.00000000</i>
   <i type="int" name="TURBO">     0</i>
   <i type="int" name="IRESTART">     0</i>
   <i type="int" name="NREBOOT">     0</i>
   <i type="int" name="NMIN">     0</i>
   <i name="EREF">      0.00000000</i>
   <separator name="electronic smearing" >
    <i type="int" name="ISMEAR">     1</i>
    <i name="SIGMA">      0.20000000</i>
    <i name="KSPACING">      0.50000000</i>
    <i type="logical" name="KGAMMA"> T  </i>
   </separator>
   <separator name="electronic projectors" >
    <i type="logical" name="LREAL"> T  </i>
    <v name="ROPT">     -0.00050000     -0.00050000     -0.00050000</v>
    <i type="int" name="LMAXPAW">  -100</i>
    <i type="int" name="LMAXMIX">     2</i>
    <i type="logical" name="NLSPLINE"> F  </i>
   </separator>
   <separator name="electronic startup" >
    <i type="int" name="ISTART">     0</i>
    <i type="int" name="ICHARG">     2</i>
    <i type="int" name="INIWAV">     1</i>
   </separator>
   <separator name="electronic spin" >
    <i type="int" name="ISPIN">     1</i>
    <i type="logical" name="LNONCOLLINEAR"> F  </i>
    <v name="MAGMOM">      1.00000000      1.00000000      1.00000000      1.00000000      1.00000000      1.00000000      1.00000000      1.00000000      1.00000000      1.00000000      1.00000000      1.00000000      1.00000000      1.00000000      1.00000000      1.00000000      1.00000000      1.00000000      1.00000000      1.00000000
      1.00000000      1.00000000      1.00000000      1.00000000      1.00000000      1.00000000      1.00000000      1.00000000      1.00000000      1.00000000      1.00000000      1.00000000      1.00000000      1.00000000      1.00000000      1.00000000      1.00000000      1.00000000      1.00000000</v>
    <i name="NUPDOWN">     -1.00000000</i>
    <i type="logical" name="LSORBIT"> F  </i>
    <v name="SAXIS">      0.00000000      0.00000000      1.00000000</v>
    <i type="logical" name="LSPIRAL"> F  </i>
    <v name="QSPIRAL">      0.00000000      0.00000000      0.00000000</v>
    <i type="logical" name="LZEROZ"> F  </i>
   </separator>
   <separator name="electronic exchange-correlation" >
    <i type="logical" name="LASPH"> F  </i>
    <i type="logical" name="LMETAGGA"> F  </i>
   </separator>
   <separator name="electronic convergence" >
    <i type="int" name="NELM">    60</i>
    <i type="int" name="NELMDL">    -5</i>
    <i type="int" name="NELMIN">     8</i>
    <i name="ENINI">    450.00000000</i>
    <separator name="electronic convergence detail" >
     <i type="logical" name="LDIAG"> T  </i>
     <i type="logical" name="LSUBROT"> F  </i>
     <i name="WEIMIN">      0.00100000</i>
     <i name="EBREAK">      0.00000011</i>
     <i name="DEPER">      0.30000000</i>
     <i type="int" name="NRMM">     4</i>
     <i name="TIME">      0.40000000</i>
    </separator>
   </separator>
   <separator name="electronic mixer" >
    <i name="AMIX">      0.40000000</i>
    <i name="BMIX">      1.00000000</i>
    <i name="AMIN">      0.10000000</i>
    <i name="AMIX_MAG">      1.60000000</i>
    <i name="BMIX_MAG">      1.00000000</i>
    <separator name="electronic mixer details" >
     <i type="int" name="IMIX">     4</i>
     <i type="logical" name="MIXFIRST"> F  </i>
     <i type="int" name="MAXMIX">   -45</i>
     <i name="WC">    100.00000000</i>
     <i type="int" name="INIMIX">     1</i>
     <i type="int" name="MIXPRE">     1</i>
     <i type="int" name="MREMOVE">     5</i>
    </separator>
   </separator>
   <separator name="electronic dipolcorrection" >
    <i type="logical" name="LDIPOL"> F  </i>
    <i type="logical" name="LMONO"> F  </i>
    <i type="int" name="IDIPOL">     0</i>
    <i name="EPSILON">      1.00000000</i>
    <v name="DIPOL">   -100.00000000   -100.00000000   -100.00000000</v>
    <i name="EFIELD">      0.00000000</i>
   </separator>
  </separator>
  <separator name="grids" >
   <i type="int" name="NGX">    48</i>
   <i type="int" name="NGY">    48</i>
   <i type="int" name="NGZ">   120</i>
   <i type="int" name="NGXF">    96</i>
   <i type="int" name="NGYF">    96</i>
   <i type="int" name="NGZF">   240</i>
   <i type="logical" name="ADDGRID"> F  </i>
  </separator>
  <separator name="ionic" >
   <i type="int" name="NSW">  5000</i>
   <i type="int" name="IBRION">     1</i>
   <i type="int" name="MDALGO">     0</i>
   <i type="int" name="ISIF">     2</i>
   <i name="PSTRESS">      0.00000000</i>
   <i name="EDIFFG">     -0.05000000</i>
   <i type="int" name="NFREE">     0</i>
   <i name="POTIM">      0.20000000</i>
   <i name="SMASS">     -3.00000000</i>
   <i name="SCALEE">      1.00000000</i>
  </separator>
  <separator name="ionic md" >
   <i name="TEBEG">      0.00010000</i>
   <i name="TEEND">      0.00010000</i>
   <i type="int" name="NBLOCK">     1</i>
   <i type="int" name="KBLOCK">  5000</i>
   <i type="int" name="NPACO">   256</i>
   <i name="APACO">     16.00000000</i>
  </separator>
  <separator name="symmetry" >
   <i type="int" name="ISYM">     0</i>
   <i name="SYMPREC">      0.00001000</i>
  </separator>
  <separator name="dos" >
   <i type="int" name="LORBIT">     0</i>
   <v name="RWIGS">     -1.00000000     -1.00000000     -1.00000000</v>
   <i type="int" name="NEDOS">   301</i>
   <i name="EMIN">     10.00000000</i>
   <i name="EMAX">    -10.00000000</i>
   <i name="EFERMI">      0.00000000</i>
  </separator>
  <separator name="writing" >
   <i type="int" name="NWRITE">     2</i>
   <i type="logical" name="LWAVE"> F  </i>
   <i type="logical" name="LDOWNSAMPLE"> F  </i>
   <i type="logical" name="LCHARG"> F  </i>
   <i type="logical" name="LPARD"> F  </i>
   <i type="logical" name="LVTOT"> F  </i>
   <i type="logical" name="LVHAR"> F  </i>
   <i type="logical" name="LELF"> F  </i>
   <i type="logical" name="LOPTICS"> F  </i>
   <v name="STM">      0.00000000      0.00000000      0.00000000      0.00000000      0.00000000      0.00000000      0.00000000</v>
  </separator>
  <separator name="performance" >
   <i type="int" name="NPAR">     4</i>
   <i type="int" name="NSIM">     4</i>
   <i type="int" name="NBLK">    -1</i>
   <i type="logical" name="LPLANE"> T  </i>
   <i type="logical" name="LSCALAPACK"> T  </i>
   <i type="logical" name="LSCAAWARE"> F  </i>
   <i type="logical" name="LSCALU"> F  </i>
   <i type="logical" name="LASYNC"> F  </i>
   <i type="logical" name="LORBITALREAL"> F  </i>
  </separator>
  <separator name="miscellaneous" >
   <i type="int" name="IDIOT">     3</i>
   <i type="int" name="ISPECIAL">     0</i>
   <i type="logical" name="LMUSIC"> F  </i>
   <v name="POMASS">     12.01100000     16.00000000    195.08000000</v>
   <v name="DARWINR">      0.00000000      0.00000000      0.00000000</v>
   <v name="DARWINV">      1.00000000      1.00000000      1.00000000</v>
   <i type="logical" name="LCORR"> T  </i>
  </separator>
  <i type="logical" name="GGA_COMPAT"> T  </i>
  <i type="logical" name="LBERRY"> F  </i>
  <i type="int" name="ICORELEVEL">     0</i>
  <i type="logical" name="LDAU"> F  </i>
  <i type="int" name="I_CONSTRAINED_M">     0</i>
  <separator name="electronic exchange-correlation" >
   <i type="string" name="GGA">--</i>
   <i type="int" name="VOSKOWN">     0</i>
   <i type="logical" name="LHFCALC"> F  </i>
   <i type="string" name="PRECFOCK"></i>
   <i type="logical" name="LSYMGRAD"> F  </i>
   <i type="logical" name="LHFONE"> F  </i>
   <i type="logical" name="LRHFCALC"> F  </i>
   <i type="logical" name="LTHOMAS"> F  </i>
   <i type="logical" name="LMODELHF"> F  </i>
   <i name="ENCUT4O">     -1.00000000</i>
   <i type="int" name="EXXOEP">     0</i>
   <i type="int" name="FOURORBIT">     0</i>
   <i name="AEXX">      0.00000000</i>
   <i name="HFALPHA">      0.00000000</i>
   <i name="MCALPHA">      0.00000000</i>
   <i name="ALDAX">      1.00000000</i>
   <i name="AGGAX">      1.00000000</i>
   <i name="ALDAC">      1.00000000</i>
   <i name="AGGAC">      1.00000000</i>
   <i type="int" name="NKREDX">     1</i>
   <i type="int" name="NKREDY">     1</i>
   <i type="int" name="NKREDZ">     1</i>
   <i type="logical" name="SHIFTRED"> F  </i>
   <i type="logical" name="ODDONLY"> F  </i>
   <i type="logical" name="EVENONLY"> F  </i>
   <i type="int" name="LMAXFOCK">     0</i>
   <i type="int" name="NMAXFOCKAE">     0</i>
   <i type="logical" name="LFOCKAEDFT"> F  </i>
   <i name="HFSCREEN">      0.00000000</i>
   <i name="HFSCREENC">      0.00000000</i>
   <i type="int" name="NBANDSGWLOW">     0</i>
  </separator>
  <separator name="vdW DFT" >
   <i type="logical" name="LUSE_VDW"> F  </i>
   <i name="Zab_VDW">     -0.84910000</i>
   <i name="PARAM1">      0.12340000</i>
   <i name="PARAM2">      1.00000000</i>
   <i name="PARAM3">      0.00000000</i>
  </separator>
  <separator name="model GW" >
   <i type="int" name="MODEL_GW">     0</i>
   <i name="MODEL_EPS0">     20.69566731</i>
   <i name="MODEL_ALPHA">      1.00000000</i>
  </separator>
  <separator name="linear response parameters" >
   <i type="logical" name="LEPSILON"> F  </i>
   <i type="logical" name="LRPA"> F  </i>
   <i type="logical" name="LNABLA"> F  </i>
   <i type="logical" name="LVEL"> F  </i>
   <i type="int" name="KINTER">     0</i>
   <i name="CSHIFT">      0.10000000</i>
   <i name="OMEGAMAX">     -1.00000000</i>
   <i name="DEG_THRESHOLD">      0.00200000</i>
   <i name="RTIME">     -0.10000000</i>
   <i name="WPLASMAI">      0.00000000</i>
   <v name="DFIELD">      0.00000000      0.00000000      0.00000000</v>
   <v name="WPLASMA">      0.00000000      0.00000000      0.00000000      0.00000000      0.00000000      0.00000000      0.00000000      0.00000000      0.00000000</v>
  </separator>
  <separator name="orbital magnetization" >
   <i type="logical" name="NUCIND"> F  </i>
   <v name="MAGPOS">      0.00000000      0.00000000      0.00000000</v>
   <i type="logical" name="LNICSALL"> T  </i>
   <i type="logical" name="ORBITALMAG"> F  </i>
   <i type="logical" name="LMAGBLOCH"> F  </i>
   <i type="logical" name="LCHIMAG"> F  </i>
   <i type="logical" name="LGAUGE"> T  </i>
   <i type="int" name="MAGATOM">     0</i>
   <v name="MAGDIPOL">      0.00000000      0.00000000      0.00000000</v>
   <v name="AVECCONST">      0.00000000      0.00000000      0.00000000</v>
  </separator>
  <separator name="response functions" >
   <i type="logical" name="LADDER"> F  </i>
   <i type="logical" name="LRPAFORCE"> F  </i>
   <i type="logical" name="LFXC"> F  </i>
   <i type="logical" name="LHARTREE"> T  </i>
   <i type="int" name="IBSE">     0</i>
   <v type="int" name="KPOINT">    -1     0     0     0</v>
   <i type="logical" name="LTCTE"> F  </i>
   <i type="logical" name="LTETE"> F  </i>
   <i type="logical" name="LTRIPLET"> F  </i>
   <i type="logical" name="LFXCEPS"> F  </i>
   <i type="logical" name="LFXHEG"> F  </i>
   <i type="int" name="NATURALO">     2</i>
   <i type="logical" name="L2ORDER"> F  </i>
   <i type="logical" name="LMP2LT"> F  </i>
   <i type="logical" name="LUSEW"> F  </i>
   <i name="ENCUTGW">     -2.00000000</i>
   <i name="ENCUTGWSOFT">     -2.00000000</i>
   <i name="ENCUTLF">     -1.00000000</i>
   <i type="int" name="LMAXMP2">    -1</i>
   <i name="SCISSOR">      0.00000000</i>
   <i type="int" name="NOMEGA">     0</i>
   <i type="int" name="NOMEGAR">     0</i>
   <i type="int" name="NBANDSGW">    -1</i>
   <i type="int" name="NBANDSO">    -1</i>
   <i type="int" name="NBANDSV">    -1</i>
   <i type="int" name="NELM">     1</i>
   <i type="int" name="NELMHF">     1</i>
   <i type="int" name="DIM">     3</i>
   <i type="int" name="ANTIRES">     0</i>
   <i name="OMEGAMAX">    -30.00000000</i>
   <i name="OMEGAMIN">    -30.00000000</i>
   <i name="OMEGATL">   -200.00000000</i>
   <i type="int" name="OMEGAGRID">   140</i>
   <i name="CSHIFT">     -0.10000000</i>
   <i type="logical" name="SELFENERGY"> F  </i>
   <i type="logical" name="LSPECTRAL"> F  </i>
   <i type="logical" name="LSPECTRALGW"> F  </i>
   <i type="logical" name="LSINGLES"> F  </i>
   <i type="logical" name="LFERMIGW"> F  </i>
   <i type="logical" name="ODDONLYGW"> F  </i>
   <i type="logical" name="EVENONLYGW"> F  </i>
   <i type="int" name="NKREDLFX">     1</i>
   <i type="int" name="NKREDLFY">     1</i>
   <i type="int" name="NKREDLFZ">     1</i>
   <i type="int" name="MAXMEM">  2800</i>
   <i type="int" name="TELESCOPE">     0</i>
   <i type="int" name="TAUPAR">     1</i>
   <i type="int" name="OMEGAPAR">    -1</i>
   <i name="LAMBDA">      1.00000000</i>
  </separator>
  <separator name="External order field" >
   <i name="OFIELD_KAPPA">      0.00000000</i>
   <v name="OFIELD_K">      0.00000000      0.00000000      0.00000000</v>
   <i name="OFIELD_Q6_NEAR">      0.00000000</i>
   <i name="OFIELD_Q6_FAR">      0.00000000</i>
   <i name="OFIELD_A">      0.00000000</i>
  </separator>
  <separator name="solvation model" >
   <i type="logical" name="LSOL"> F  </i>
  </separator>
 </parameters>
 <atominfo>
  <atoms>      39 </atoms>
  <types>       3 </types>
  <array name="atoms" >
   <dimension dim="1">ion</dimension>
   <field type="string">element</field>
   <field type="int">atomtype</field>
   <set>
    <rc><c>C </c><c>   1</c></rc>
    <rc><c>O </c><c>   2</c></rc>
    <rc><c>O </c><c>   2</c></rc>
    <rc><c>Pt</c><c>   3</c></rc>
    <rc><c>Pt</c><c>   3</c></rc>
    <rc><c>Pt</c><c>   3</c></rc>
    <rc><c>Pt</c><c>   3</c></rc>
    <rc><c>Pt</c><c>   3</c></rc>
    <rc><c>Pt</c><c>   3</c></rc>
    <rc><c>Pt</c><c>   3</c></rc>
    <rc><c>Pt</c><c>   3</c></rc>
    <rc><c>Pt</c><c>   3</c></rc>
    <rc><c>Pt</c><c>   3</c></rc>
    <rc><c>Pt</c><c>   3</c></rc>
    <rc><c>Pt</c><c>   3</c></rc>
    <rc><c>Pt</c><c>   3</c></rc>
    <rc><c>Pt</c><c>   3</c></rc>
    <rc><c>Pt</c><c>   3</c></rc>
    <rc><c>Pt</c><c>   3</c></rc>
    <rc><c>Pt</c><c>   3</c></rc>
    <rc><c>Pt</c><c>   3</c></rc>
    <rc><c>Pt</c><c>   3</c></rc>
    <rc><c>Pt</c><c>   3</c></rc>
    <rc><c>Pt</c><c>   3</c></rc>
    <rc><c>Pt</c><c>   3</c></rc>
    <rc><c>Pt</c><c>   3</c></rc>
    <rc><c>Pt</c><c>   3</c></rc>
    <rc><c>Pt</c><c>   3</c></rc>
    <rc><c>Pt</c><c>   3</c></rc>
    <rc><c>Pt</c><c>   3</c></rc>
    <rc><c>Pt</c><c>   3</c></rc>
    <rc><c>Pt</c><c>   3</c></rc>
    <rc><c>Pt</c><c>   3</c></rc>
    <rc><c>Pt</c><c>   3</c></rc>
    <rc><c>Pt</c><c>   3</c></rc>
    <rc><c>Pt</c><c>   3</c></rc>
    <rc><c>Pt</c><c>   3</c></rc>
    <rc><c>Pt</c><c>   3</c></rc>
    <rc><c>Pt</c><c>   3</c></rc>
   </set>
  </array>
  <array name="atomtypes" >
   <dimension dim="1">type</dimension>
   <field type="int">atomspertype</field>
   <field type="string">element</field>
   <field>mass</field>
   <field>valence</field>
   <field type="string">pseudopotential</field>
   <set>
    <rc><c>   1</c><c>C </c><c>     12.01100000</c><c>      4.00000000</c><c> PAW_PBE C 08Apr2002                    </c></rc>
    <rc><c>   2</c><c>O </c><c>     16.00000000</c><c>      6.00000000</c><c> PAW_PBE O 08Apr2002                    </c></rc>
    <rc><c>  36</c><c>Pt</c><c>    195.08000000</c><c>     10.00000000</c><c>  PAW_PBE Pt 04Feb2005                  </c></rc>
   </set>
  </array>
 </atominfo>
 <structure name="initialpos" >
  <crystal>
   <varray name="basis" >
    <v>       7.29695512      -4.21289900       0.00000000 </v>
    <v>       0.00000000       8.42579800       0.00000000 </v>
    <v>       0.00000000       0.00000000      21.87963500 </v>
   </varray>
   <i name="volume">   1345.21837528 </i>
   <varray name="rec_basis" >
    <v>       0.13704346       0.00000000       0.00000000 </v>
    <v>       0.06852173       0.11868312       0.00000000 </v>
    <v>       0.00000000       0.00000000       0.04570460 </v>
   </varray>
  </crystal>
  <varray name="positions" >
   <v>       0.69862647       0.43396200       0.47480407 </v>
   <v>       0.90942240       0.38814067       0.46942752 </v>
   <v>       0.67048993       0.46081788       0.52469260 </v>
   <v>       0.98675500       0.32859100       0.07437600 </v>
   <v>       0.32008800       0.32859100       0.07437600 </v>
   <v>       0.65342200       0.32859100       0.07437600 </v>
   <v>       0.98675500       0.66192500       0.07437600 </v>
   <v>       0.32008800       0.66192500       0.07437600 </v>
   <v>       0.65342200       0.66192500       0.07437600 </v>
   <v>       0.32008800       0.99525800       0.07437600 </v>
   <v>       0.65342200       0.99525800       0.07437600 </v>
   <v>       0.98675500       0.99525800       0.07437600 </v>
   <v>       0.20897700       0.10636900       0.17918600 </v>
   <v>       0.54231100       0.10636900       0.17918600 </v>
   <v>       0.87564400       0.10636900       0.17918600 </v>
   <v>       0.20897700       0.43970300       0.17918600 </v>
   <v>       0.54231100       0.43970300       0.17918600 </v>
   <v>       0.87564400       0.43970300       0.17918600 </v>
   <v>       0.20897700       0.77303600       0.17918600 </v>
   <v>       0.54231100       0.77303600       0.17918600 </v>
   <v>       0.87564400       0.77303600       0.17918600 </v>
   <v>       0.09890400       0.54382469       0.28200119 </v>
   <v>       0.42933950       0.87885860       0.28294002 </v>
   <v>       0.76523642       0.22094279       0.28192361 </v>
   <v>       0.10025567       0.22258037       0.28614887 </v>
   <v>       0.43376656       0.21850132       0.28033283 </v>
   <v>       0.09334643       0.88477809       0.28090836 </v>
   <v>       0.76807053       0.88596742       0.28438140 </v>
   <v>       0.43053831       0.55218460       0.28146391 </v>
   <v>       0.76939969       0.55199555       0.28361473 </v>
   <v>       0.32780880       0.66042878       0.38356395 </v>
   <v>       0.65312990       0.99090557       0.38537990 </v>
   <v>       0.32290177       0.32646169       0.38962384 </v>
   <v>       0.99357722       0.99441591       0.39218348 </v>
   <v>       0.32392965       0.99420322       0.38740340 </v>
   <v>       0.64505284       0.32827524       0.38814220 </v>
   <v>       0.99305561       0.66295741       0.38404644 </v>
   <v>       0.99326198       0.32241869       0.39198053 </v>
   <v>       0.65229837       0.65815483       0.39384781 </v>
  </varray>
  <varray name="selective"  type="logical" >
   <v type="logical" >  T  T  T </v>
   <v type="logical" >  T  T  T </v>
   <v type="logical" >  T  T  T </v>
   <v type="logical" >  F  F  F </v>
   <v type="logical" >  F  F  F </v>
   <v type="logical" >  F  F  F </v>
   <v type="logical" >  F  F  F </v>
   <v type="logical" >  F  F  F </v>
   <v type="logical" >  F  F  F </v>
   <v type="logical" >  F  F  F </v>
   <v type="logical" >  F  F  F </v>
   <v type="logical" >  F  F  F </v>
   <v type="logical" >  F  F  F </v>
   <v type="logical" >  F  F  F </v>
   <v type="logical" >  F  F  F </v>
   <v type="logical" >  F  F  F </v>
   <v type="logical" >  F  F  F </v>
   <v type="logical" >  F  F  F </v>
   <v type="logical" >  F  F  F </v>
   <v type="logical" >  F  F  F </v>
   <v type="logical" >  F  F  F </v>
   <v type="logical" >  T  T  T </v>
   <v type="logical" >  T  T  T </v>
   <v type="logical" >  T  T  T </v>
   <v type="logical" >  T  T  T </v>
   <v type="logical" >  T  T  T </v>
   <v type="logical" >  T  T  T </v>
   <v type="logical" >  T  T  T </v>
   <v type="logical" >  T  T  T </v>
   <v type="logical" >  T  T  T </v>
   <v type="logical" >  T  T  T </v>
   <v type="logical" >  T  T  T </v>
   <v type="logical" >  T  T  T </v>
   <v type="logical" >  T  T  T </v>
   <v type="logical" >  T  T  T </v>
   <v type="logical" >  T  T  T </v>
   <v type="logical" >  T  T  T </v>
   <v type="logical" >  T  T  T </v>
   <v type="logical" >  T  T  T </v>
  </varray>
  <nose>
   <v>      -3.00000000       0.00000000       0.00010000       0.00010000 </v>
  </nose>
 </structure>
 <calculation>
  <scstep>
   <time name="dav">   27.23   41.47</time>
   <time name="total">   27.62   42.13</time>
   <energy>
    <i name="alphaZ">    975.10247152 </i>
    <i name="ewald">  91338.68857837 </i>
    <i name="hartreedc">-120432.08932408 </i>
    <i name="XCdc">    189.36753742 </i>
    <i name="pawpsdc">  24789.08602224 </i>
    <i name="pawaedc"> -23775.73976456 </i>
    <i name="eentropy">      0.01634079 </i>
    <i name="bandstr">   2073.96295330 </i>
    <i name="atom">  27259.89416086 </i>
    <i name="e_fr_energy">   2418.28897586 </i>
    <i name="e_wo_entrp">   2418.27263507 </i>
    <i name="e_0_energy">   2418.28352893 </i>
   </energy>
  </scstep>
  <scstep>
   <time name="dav">   28.52   37.95</time>
   <time name="total">   28.52   37.96</time>
   <energy>
    <i name="e_fr_energy">    -64.50929253 </i>
    <i name="e_wo_entrp">    -64.51787382 </i>
    <i name="e_0_energy">    -64.51215296 </i>
   </energy>
  </scstep>
  <scstep>
   <time name="dav">   27.40   41.86</time>
   <time name="total">   27.40   41.86</time>
   <energy>
    <i name="e_fr_energy">   -241.07712347 </i>
    <i name="e_wo_entrp">   -241.08096753 </i>
    <i name="e_0_energy">   -241.07840482 </i>
   </energy>
  </scstep>
  <scstep>
   <time name="dav">   29.11   41.65</time>
   <time name="total">   29.11   41.65</time>
   <energy>
    <i name="e_fr_energy">   -248.65253322 </i>
    <i name="e_wo_entrp">   -248.66133549 </i>
    <i name="e_0_energy">   -248.65546731 </i>
   </energy>
  </scstep>
  <scstep>
   <time name="dav">   33.30   45.17</time>
   <time name="total">   33.98   46.46</time>
   <energy>
    <i name="e_fr_energy">   -248.86642422 </i>
    <i name="e_wo_entrp">   -248.87518131 </i>
    <i name="e_0_energy">   -248.86934325 </i>
   </energy>
  </scstep>
  <scstep>
   <time name="diag">    2.57    3.15</time>
   <time name="diis">    4.79    6.77</time>
   <time name="orth">    0.40    0.52</time>
   <time name="total">    8.48   11.56</time>
   <energy>
    <i name="e_fr_energy">   -246.89399619 </i>
    <i name="e_wo_entrp">   -246.66279018 </i>
    <i name="e_0_energy">   -246.81692752 </i>
   </energy>
  </scstep>
  <scstep>
   <time name="diag">    3.00    3.94</time>
   <time name="diis">    5.26    7.67</time>
   <time name="orth">    0.40    0.41</time>
   <time name="total">    9.95   13.46</time>
   <energy>
    <i name="e_fr_energy">   -238.42036027 </i>
    <i name="e_wo_entrp">   -238.30752788 </i>
    <i name="e_0_energy">   -238.38274947 </i>
   </energy>
  </scstep>
  <scstep>
   <time name="diag">    3.34    4.24</time>
   <time name="diis">    5.24    7.81</time>
   <time name="orth">    0.61    0.85</time>
   <time name="total">   10.00   14.10</time>
   <energy>
    <i name="e_fr_energy">   -243.13997621 </i>
    <i name="e_wo_entrp">   -243.17959489 </i>
    <i name="e_0_energy">   -243.15318243 </i>
   </energy>
  </scstep>
  <scstep>
   <time name="diag">    2.18    3.49</time>
   <time name="diis">    5.06    7.05</time>
   <time name="orth">    0.29    0.52</time>
   <time name="total">    8.32   12.26</time>
   <energy>
    <i name="e_fr_energy">   -232.01019478 </i>
    <i name="e_wo_entrp">   -231.96693026 </i>
    <i name="e_0_energy">   -231.99577327 </i>
   </energy>
  </scstep>
  <scstep>
   <time name="diag">    3.06    4.45</time>
   <time name="diis">    5.38    8.26</time>
   <time name="orth">    0.48    0.70</time>
   <time name="total">    9.89   14.72</time>
   <energy>
    <i name="e_fr_energy">   -230.81131662 </i>
    <i name="e_wo_entrp">   -230.79465395 </i>
    <i name="e_0_energy">   -230.80576240 </i>
   </energy>
  </scstep>
  <scstep>
   <time name="diag">    2.25    2.82</time>
   <time name="diis">    5.36    8.48</time>
   <time name="orth">    0.36    0.49</time>
   <time name="total">    9.17   13.45</time>
   <energy>
    <i name="e_fr_energy">   -230.33703991 </i>
    <i name="e_wo_entrp">   -230.32428436 </i>
    <i name="e_0_energy">   -230.33278806 </i>
   </energy>
  </scstep>
  <scstep>
   <time name="diag">    2.79    3.73</time>
   <time name="diis">    5.21    6.58</time>
   <time name="orth">    0.33    0.46</time>
   <time name="total">    9.56   12.50</time>
   <energy>
    <i name="e_fr_energy">   -230.25809784 </i>
    <i name="e_wo_entrp">   -230.23282981 </i>
    <i name="e_0_energy">   -230.24967516 </i>
   </energy>
  </scstep>
  <scstep>
   <time name="diag">    3.21    4.74</time>
   <time name="diis">    6.16    7.39</time>
   <time name="orth">    0.58    0.66</time>
   <time name="total">   10.88   14.33</time>
   <energy>
    <i name="e_fr_energy">   -230.22351218 </i>
    <i name="e_wo_entrp">   -230.20369173 </i>
    <i name="e_0_energy">   -230.21690536 </i>
   </energy>
  </scstep>
  <scstep>
   <time name="diag">    2.61    3.08</time>
   <time name="diis">    5.99    7.36</time>
   <time name="orth">    0.50    0.51</time>
   <time name="total">   10.26   12.28</time>
   <energy>
    <i name="e_fr_energy">   -230.18734185 </i>
    <i name="e_wo_entrp">   -230.18108647 </i>
    <i name="e_0_energy">   -230.18525672 </i>
   </energy>
  </scstep>
  <scstep>
   <time name="diag">    3.08    4.01</time>
   <time name="diis">    6.29    6.43</time>
   <time name="orth">    0.59    0.60</time>
   <time name="total">   11.20   12.41</time>
   <energy>
    <i name="e_fr_energy">   -230.17824394 </i>
    <i name="e_wo_entrp">   -230.16113957 </i>
    <i name="e_0_energy">   -230.17254249 </i>
   </energy>
  </scstep>
  <scstep>
   <time name="diag">    2.84    2.85</time>
   <time name="diis">    6.50    6.53</time>
   <time name="orth">    0.52    0.52</time>
   <time name="total">   11.32   11.38</time>
   <energy>
    <i name="e_fr_energy">   -230.17183245 </i>
    <i name="e_wo_entrp">   -230.15798803 </i>
    <i name="e_0_energy">   -230.16721765 </i>
   </energy>
  </scstep>
  <scstep>
   <time name="diag">    3.91    3.95</time>
   <time name="diis">    5.06    6.74</time>
   <time name="orth">    0.67    0.70</time>
   <time name="total">   10.85   12.90</time>
   <energy>
    <i name="e_fr_energy">   -230.17190571 </i>
    <i name="e_wo_entrp">   -230.15646337 </i>
    <i name="e_0_energy">   -230.16675826 </i>
   </energy>
  </scstep>
  <scstep>
   <time name="diag">    4.71    5.05</time>
   <time name="diis">    5.70    6.58</time>
   <time name="orth">    0.62    0.63</time>
   <time name="total">   12.51   13.76</time>
   <energy>
    <i name="e_fr_energy">   -230.17202388 </i>
    <i name="e_wo_entrp">   -230.15818616 </i>
    <i name="e_0_energy">   -230.16741131 </i>
   </energy>
  </scstep>
  <scstep>
   <time name="diag">    2.89    2.91</time>
   <time name="diis">    6.06    6.14</time>
   <time name="orth">    0.55    0.56</time>
   <time name="total">    9.86    9.98</time>
   <energy>
    <i name="alphaZ">    975.10247152 </i>
    <i name="ewald">  91338.68857837 </i>
    <i name="hartreedc">-120040.01832178 </i>
    <i name="XCdc">    177.88064469 </i>
    <i name="pawpsdc">  30053.36655260 </i>
    <i name="pawaedc"> -29138.91719734 </i>
    <i name="eentropy">     -0.01452616 </i>
    <i name="bandstr">   -856.15438217 </i>
    <i name="atom">  27259.89416086 </i>
    <i name="e_fr_energy">   -230.17201939 </i>
    <i name="e_wo_entrp">   -230.15749323 </i>
    <i name="e_0_energy">   -230.16717734 </i>
   </energy>
  </scstep>
  <structure>
   <crystal>
    <varray name="basis" >
     <v>       7.29695512      -4.21289900       0.00000000 </v>
     <v>       0.00000000       8.42579800       0.00000000 </v>
     <v>       0.00000000       0.00000000      21.87963500 </v>
    </varray>
    <i name="volume">   1345.21837528 </i>
    <varray name="rec_basis" >
     <v>       0.13704346       0.00000000       0.00000000 </v>
     <v>       0.06852173       0.11868312       0.00000000 </v>
     <v>       0.00000000       0.00000000       0.04570460 </v>
    </varray>
   </crystal>
   <varray name="positions" >
    <v>       0.69862647       0.43396200       0.47480407 </v>
    <v>       0.90942240       0.38814067       0.46942752 </v>
    <v>       0.67048993       0.46081788       0.52469260 </v>
    <v>       0.98675500       0.32859100       0.07437600 </v>
    <v>       0.32008800       0.32859100       0.07437600 </v>
    <v>       0.65342200       0.32859100       0.07437600 </v>
    <v>       0.98675500       0.66192500       0.07437600 </v>
    <v>       0.32008800       0.66192500       0.07437600 </v>
    <v>       0.65342200       0.66192500       0.07437600 </v>
    <v>       0.32008800       0.99525800       0.07437600 </v>
    <v>       0.65342200       0.99525800       0.07437600 </v>
    <v>       0.98675500       0.99525800       0.07437600 </v>
    <v>       0.20897700       0.10636900       0.17918600 </v>
    <v>       0.54231100       0.10636900       0.17918600 </v>
    <v>       0.87564400       0.10636900       0.17918600 </v>
    <v>       0.20897700       0.43970300       0.17918600 </v>
    <v>       0.54231100       0.43970300       0.17918600 </v>
    <v>       0.87564400       0.43970300       0.17918600 </v>
    <v>       0.20897700       0.77303600       0.17918600 </v>
    <v>       0.54231100       0.77303600       0.17918600 </v>
    <v>       0.87564400       0.77303600       0.17918600 </v>
    <v>       0.09890400       0.54382469       0.28200119 </v>
    <v>       0.42933950       0.87885860       0.28294002 </v>
    <v>       0.76523642       0.22094279       0.28192361 </v>
    <v>       0.10025567       0.22258037       0.28614887 </v>
    <v>       0.43376656       0.21850132       0.28033283 </v>
    <v>       0.09334643       0.88477809       0.28090836 </v>
    <v>       0.76807053       0.88596742       0.28438140 </v>
    <v>       0.43053831       0.55218460       0.28146391 </v>
    <v>       0.76939969       0.55199555       0.28361473 </v>
    <v>       0.32780880       0.66042878       0.38356395 </v>
    <v>       0.65312990       0.99090557       0.38537990 </v>
    <v>       0.32290177       0.32646169       0.38962384 </v>
    <v>       0.99357722       0.99441591       0.39218348 </v>
    <v>       0.32392965       0.99420322       0.38740340 </v>
    <v>       0.64505284       0.32827524       0.38814220 </v>
    <v>       0.99305561       0.66295741       0.38404644 </v>
    <v>       0.99326198       0.32241869       0.39198053 </v>
    <v>       0.65229837       0.65815483       0.39384781 </v>
   </varray>
  </structure>
  <varray name="forces" >
   <v>      -0.02153374      -1.37351475      -1.46987799 </v>
   <v>       0.46492230       0.14094212      -0.77938256 </v>
   <v>       0.14885936       0.07863782      -0.02182157 </v>
   <v>       0.03079796      -0.05545926       0.12458566 </v>
   <v>      -0.05682721      -0.04904027       0.14652921 </v>
   <v>      -0.03379139      -0.00748434       0.10080552 </v>
   <v>       0.01424784       0.01916232       0.13069919 </v>
   <v>      -0.02214736       0.02921062       0.10028198 </v>
   <v>       0.01999046      -0.02221117       0.19889009 </v>
   <v>       0.03864781      -0.06540504       0.02590180 </v>
   <v>      -0.03484980       0.03101070       0.14725193 </v>
   <v>       0.01751185       0.03879173       0.08584942 </v>
   <v>      -0.12815384       0.10675788      -0.23317325 </v>
   <v>      -0.01004923      -0.13994624      -0.25032628 </v>
   <v>       0.17891614      -0.08914017       0.01277380 </v>
   <v>      -0.09195410      -0.15989591      -0.30546124 </v>
   <v>       0.08985118       0.12332228      -0.11207207 </v>
   <v>       0.02000725       0.05722822      -0.24834654 </v>
   <v>      -0.03067091       0.00023522      -0.21490095 </v>
   <v>       0.16326129       0.07707926      -0.19464253 </v>
   <v>      -0.09100098       0.13483427      -0.21728629 </v>
   <v>      -0.14061974       0.57172355       0.10886023 </v>
   <v>       0.12711683       0.60224813      -0.32628464 </v>
   <v>      -0.13308351      -0.37276723       0.40416785 </v>
   <v>      -0.35564570      -0.31495440      -0.05326361 </v>
   <v>      -0.15774408      -0.01464184       0.68937143 </v>
   <v>       0.48617478      -0.23017225       0.56536547 </v>
   <v>      -0.15072094      -0.14028168       0.03622668 </v>
   <v>       0.58534150      -0.58488509       0.33857718 </v>
   <v>      -0.45581703       0.31555731      -0.22663625 </v>
   <v>      -0.20201839       0.13369006       0.57874262 </v>
   <v>       0.15417341      -0.00542145       0.08425061 </v>
   <v>      -0.19560852      -0.00401304      -0.38294146 </v>
   <v>      -0.25539842      -0.11567750      -0.50463599 </v>
   <v>      -0.25284297      -0.05819237      -0.30458381 </v>
   <v>       0.01734535       0.19988132       1.34414623 </v>
   <v>       0.31275142       0.29040231       0.32773606 </v>
   <v>      -0.45521477       0.37747465       1.05038258 </v>
   <v>       0.40577587       0.47491422      -0.75575850 </v>
  </varray>
  <varray name="stress" >
   <v>     -43.60983864       1.59833771       1.64796531 </v>
   <v>       1.59833768     -46.81239400      -1.57406181 </v>
   <v>       1.64796529      -1.57406178      -9.11653315 </v>
  </varray>
  <energy>
   <i name="e_fr_energy">   -230.17201939 </i>
   <i name="e_wo_entrp">   -230.16717734 </i>
   <i name="e_0_energy">     -0.01452616 </i>
  </energy>
  <time name="totalsc">  305.60  408.88</time>
 </calculation>
 <calculation>
  <scstep>
   <time name="dav">   23.40   25.93</time>
   <time name="total">   24.70   27.50</time>
   <energy>
    <i name="alphaZ">    975.10247152 </i>
    <i name="ewald">  91315.42603770 </i>
    <i name="hartreedc">-120019.37408238 </i>
    <i name="XCdc">    177.83949117 </i>
    <i name="pawpsdc">  30054.92571830 </i>
    <i name="pawaedc"> -29140.46819441 </i>
    <i name="eentropy">     -0.01968822 </i>
    <i name="bandstr">   -853.65059126 </i>
    <i name="atom">  27259.89416086 </i>
    <i name="e_fr_energy">   -230.32467672 </i>
    <i name="e_wo_entrp">   -230.30498850 </i>
    <i name="e_0_energy">   -230.31811398 </i>
   </energy>
  </scstep>
  <scstep>
   <time name="diag">    3.37    3.39</time>
   <time name="diis">    7.46    7.51</time>
   <time name="orth">    0.65    0.65</time>
   <time name="total">   12.84   12.93</time>
   <energy>
    <i name="e_fr_energy">   -230.43174536 </i>
    <i name="e_wo_entrp">   -230.42926774 </i>
    <i name="e_0_energy">   -230.43091949 </i>
   </energy>
  </scstep>
  <scstep>
   <time name="diag">    3.45    3.47</time>
   <time name="diis">    6.52    7.69</time>
   <time name="orth">    0.68    0.78</time>
   <time name="total">   11.88   13.30</time>
   <energy>
    <i name="e_fr_energy">   -230.37912615 </i>
    <i name="e_wo_entrp">   -230.36053026 </i>
    <i name="e_0_energy">   -230.37292752 </i>
   </energy>
  </scstep>
  <scstep>
   <time name="diag">    2.72    3.49</time>
   <time name="diis">    7.07    8.20</time>
   <time name="orth">    0.71    0.97</time>
   <time name="total">   12.08   14.53</time>
   <energy>
    <i name="e_fr_energy">   -230.36673578 </i>
    <i name="e_wo_entrp">   -230.34790765 </i>
    <i name="e_0_energy">   -230.36045973 </i>
   </energy>
  </scstep>
  <scstep>
   <time name="diag">    3.42    3.74</time>
   <time name="diis">    7.32    8.25</time>
   <time name="orth">    0.66    0.66</time>
   <time name="total">   13.04   14.70</time>
   <energy>
    <i name="e_fr_energy">   -230.36378370 </i>
    <i name="e_wo_entrp">   -230.34970501 </i>
    <i name="e_0_energy">   -230.35909080 </i>
   </energy>
  </scstep>
  <scstep>
   <time name="diag">    4.06    4.79</time>
   <time name="diis">    6.02    6.47</time>
   <time name="orth">    0.38    0.38</time>
   <time name="total">   12.26   13.61</time>
   <energy>
    <i name="e_fr_energy">   -230.36366669 </i>
    <i name="e_wo_entrp">   -230.34598093 </i>
    <i name="e_0_energy">   -230.35777144 </i>
   </energy>
  </scstep>
  <scstep>
   <time name="diag">    3.34    3.98</time>
   <time name="diis">    6.47    8.03</time>
   <time name="orth">    0.46    0.67</time>
   <time name="total">   11.53   14.33</time>
   <energy>
    <i name="e_fr_energy">   -230.36222653 </i>
    <i name="e_wo_entrp">   -230.34665305 </i>
    <i name="e_0_energy">   -230.35703537 </i>
   </energy>
  </scstep>
  <scstep>
   <time name="diag">    2.53    2.91</time>
   <time name="diis">    6.07    7.05</time>
   <time name="orth">    0.67    0.68</time>
   <time name="total">   10.98   12.47</time>
   <energy>
    <i name="e_fr_energy">   -230.36178779 </i>
    <i name="e_wo_entrp">   -230.34462140 </i>
    <i name="e_0_energy">   -230.35606566 </i>
   </energy>
  </scstep>
  <scstep>
   <time name="diag">    2.82    3.28</time>
   <time name="diis">    5.33    5.38</time>
   <time name="orth">    0.63    0.63</time>
   <time name="total">   10.07   10.96</time>
   <energy>
    <i name="e_fr_energy">   -230.36167442 </i>
    <i name="e_wo_entrp">   -230.34509769 </i>
    <i name="e_0_energy">   -230.35614884 </i>
   </energy>
  </scstep>
  <scstep>
   <time name="diag">    3.36    4.14</time>
   <time name="diis">    4.40    4.81</time>
   <time name="orth">    0.75    0.80</time>
   <time name="total">    8.94   10.18</time>
   <energy>
    <i name="alphaZ">    975.10247152 </i>
    <i name="ewald">  91315.42603770 </i>
    <i name="hartreedc">-120015.26752295 </i>
    <i name="XCdc">    177.78599134 </i>
    <i name="pawpsdc">  30052.78484787 </i>
    <i name="pawaedc"> -29138.34552475 </i>
    <i name="eentropy">     -0.01658085 </i>
    <i name="bandstr">   -857.72558249 </i>
    <i name="atom">  27259.89416086 </i>
    <i name="e_fr_energy">   -230.36170175 </i>
    <i name="e_wo_entrp">   -230.34512090 </i>
    <i name="e_0_energy">   -230.35617480 </i>
   </energy>
  </scstep>
  <structure>
   <crystal>
    <varray name="basis" >
     <v>       7.29695512      -4.21289900       0.00000000 </v>
     <v>       0.00000000       8.42579800       0.00000000 </v>
     <v>       0.00000000       0.00000000      21.87963500 </v>
    </varray>
    <i name="volume">   1345.21837528 </i>
    <varray name="rec_basis" >
     <v>       0.13704346       0.00000000       0.00000000 </v>
     <v>       0.06852173       0.11868312       0.00000000 </v>
     <v>       0.00000000       0.00000000       0.04570460 </v>
    </varray>
   </crystal>
   <varray name="positions" >
    <v>       0.69856953       0.43078785       0.47350769 </v>
    <v>       0.91065190       0.38907822       0.46874013 </v>
    <v>       0.67088359       0.46119481       0.52467335 </v>
    <v>       0.98675500       0.32859100       0.07437600 </v>
    <v>       0.32008800       0.32859100       0.07437600 </v>
    <v>       0.65342200       0.32859100       0.07437600 </v>
    <v>       0.98675500       0.66192500       0.07437600 </v>
    <v>       0.32008800       0.66192500       0.07437600 </v>
    <v>       0.65342200       0.66192500       0.07437600 </v>
    <v>       0.32008800       0.99525800       0.07437600 </v>
    <v>       0.65342200       0.99525800       0.07437600 </v>
    <v>       0.98675500       0.99525800       0.07437600 </v>
    <v>       0.20897700       0.10636900       0.17918600 </v>
    <v>       0.54231100       0.10636900       0.17918600 </v>
    <v>       0.87564400       0.10636900       0.17918600 </v>
    <v>       0.20897700       0.43970300       0.17918600 </v>
    <v>       0.54231100       0.43970300       0.17918600 </v>
    <v>       0.87564400       0.43970300       0.17918600 </v>
    <v>       0.20897700       0.77303600       0.17918600 </v>
    <v>       0.54231100       0.77303600       0.17918600 </v>
    <v>       0.87564400       0.77303600       0.17918600 </v>
    <v>       0.09853212       0.54494814       0.28209720 </v>
    <v>       0.42967567       0.88040598       0.28265225 </v>
    <v>       0.76488448       0.21991309       0.28228007 </v>
    <v>       0.09931515       0.22138879       0.28610189 </v>
    <v>       0.43334940       0.21825921       0.28094084 </v>
    <v>       0.09463213       0.88489380       0.28140699 </v>
    <v>       0.76767194       0.88544685       0.28441335 </v>
    <v>       0.43208627       0.55161906       0.28176252 </v>
    <v>       0.76819426       0.55211553       0.28341485 </v>
    <v>       0.32727456       0.66046783       0.38407438 </v>
    <v>       0.65353762       0.99109701       0.38545421 </v>
    <v>       0.32238448       0.32619385       0.38928610 </v>
    <v>       0.99290181       0.99381328       0.39173841 </v>
    <v>       0.32326099       0.99373562       0.38713477 </v>
    <v>       0.64509871       0.32875595       0.38932769 </v>
    <v>       0.99388269       0.66403604       0.38433549 </v>
    <v>       0.99205815       0.32268128       0.39290693 </v>
    <v>       0.65337146       0.65977904       0.39318126 </v>
   </varray>
  </structure>
  <varray name="forces" >
   <v>      -0.42058649      -0.38752680       1.63598049 </v>
   <v>       0.40651697       0.26751737      -0.37579028 </v>
   <v>       0.63622693      -0.81237722      -2.71809627 </v>
   <v>       0.03115554      -0.05105100       0.12554553 </v>
   <v>      -0.05287512      -0.04268942       0.14555429 </v>
   <v>      -0.03130450      -0.00880323       0.11181370 </v>
   <v>       0.01461721       0.02136408       0.12816822 </v>
   <v>      -0.02043196       0.02846825       0.10027523 </v>
   <v>       0.01508763      -0.01415061       0.19265497 </v>
   <v>       0.03535096      -0.06719955       0.02773113 </v>
   <v>      -0.03232860       0.02962113       0.14347861 </v>
   <v>       0.01214165       0.03353749       0.08219194 </v>
   <v>      -0.12517623       0.09617408      -0.21791797 </v>
   <v>       0.00005294      -0.08682262      -0.23395683 </v>
   <v>       0.17311771      -0.09516846       0.01223826 </v>
   <v>      -0.07444639      -0.15164190      -0.22015287 </v>
   <v>       0.06614350       0.08356943      -0.12203794 </v>
   <v>       0.00398048       0.04046687      -0.19696654 </v>
   <v>      -0.03999207       0.01532673      -0.22751674 </v>
   <v>       0.14785298       0.06010581      -0.16701565 </v>
   <v>      -0.04660086       0.14457272      -0.20181853 </v>
   <v>      -0.08505099       0.36926522       0.13523308 </v>
   <v>       0.11175940       0.37026184      -0.22426898 </v>
   <v>      -0.08212089      -0.23471991       0.35406995 </v>
   <v>      -0.29271006      -0.14738343      -0.04301552 </v>
   <v>      -0.08660680      -0.01194342       0.55557390 </v>
   <v>       0.33616008      -0.19474324       0.39764493 </v>
   <v>      -0.11535519      -0.10950165      -0.03916627 </v>
   <v>       0.35297874      -0.36425156       0.31161477 </v>
   <v>      -0.33311820       0.17031443      -0.12597590 </v>
   <v>      -0.14201227       0.12417548       0.42268938 </v>
   <v>       0.08151696       0.01586613       0.10004719 </v>
   <v>      -0.17789045       0.02939702      -0.32999117 </v>
   <v>      -0.22923610      -0.05490844      -0.41594409 </v>
   <v>      -0.16490251      -0.05055354      -0.20648530 </v>
   <v>      -0.12603038       0.12910420       0.86415318 </v>
   <v>       0.23168385       0.24239854       0.27767236 </v>
   <v>      -0.29583338       0.17788208       0.65056692 </v>
   <v>       0.31826591       0.43604710      -0.70878114 </v>
  </varray>
  <varray name="stress" >
   <v>     -44.14041320       1.68685802       2.32736495 </v>
   <v>       1.68685799     -47.52632014      -2.35036084 </v>
   <v>       2.32736491      -2.35036089     -11.24996370 </v>
  </varray>
  <energy>
   <i name="e_fr_energy">   -230.36170175 </i>
   <i name="e_wo_entrp">   -230.35617480 </i>
   <i name="e_0_energy">     -0.01658085 </i>
  </energy>
  <time name="totalsc">  141.69  163.25</time>
 </calculation>
 <calculation>
  <scstep>
   <time name="dav">   26.56   30.96</time>
   <time name="total">   27.33   31.94</time>
   <energy>
    <i name="alphaZ">    975.10247152 </i>
    <i name="ewald">  91329.15540641 </i>
    <i name="hartreedc">-120025.44963068 </i>
    <i name="XCdc">    177.92971341 </i>
    <i name="pawpsdc">  30052.80652066 </i>
    <i name="pawaedc"> -29138.36689384 </i>
    <i name="eentropy">     -0.01819519 </i>
    <i name="bandstr">   -861.48153487 </i>
    <i name="atom">  27259.89416086 </i>
    <i name="e_fr_energy">   -230.42798172 </i>
    <i name="e_wo_entrp">   -230.40978653 </i>
    <i name="e_0_energy">   -230.42191665 </i>
   </energy>
  </scstep>
  <scstep>
   <time name="diag">    3.78    4.24</time>
   <time name="diis">    7.12    7.49</time>
   <time name="orth">    0.54    0.59</time>
   <time name="total">   12.32   13.36</time>
   <energy>
    <i name="e_fr_energy">   -230.45856750 </i>
    <i name="e_wo_entrp">   -230.44727533 </i>
    <i name="e_0_energy">   -230.45480344 </i>
   </energy>
  </scstep>
  <scstep>
   <time name="diag">    3.06    3.99</time>
   <time name="diis">    7.07    8.08</time>
   <time name="orth">    0.70    0.89</time>
   <time name="total">   12.08   14.72</time>
   <energy>
    <i name="e_fr_energy">   -230.45106214 </i>
    <i name="e_wo_entrp">   -230.43242028 </i>
    <i name="e_0_energy">   -230.44484819 </i>
   </energy>
  </scstep>
  <scstep>
   <time name="diag">    3.35    3.84</time>
   <time name="diis">    7.75    9.14</time>
   <time name="orth">    0.71    0.83</time>
   <time name="total">   13.16   15.23</time>
   <energy>
    <i name="e_fr_energy">   -230.44794645 </i>
    <i name="e_wo_entrp">   -230.43012008 </i>
    <i name="e_0_energy">   -230.44200432 </i>
   </energy>
  </scstep>
  <scstep>
   <time name="diag">    3.48    4.27</time>
   <time name="diis">    5.76    7.04</time>
   <time name="orth">    0.31    0.53</time>
   <time name="total">   11.09   13.65</time>
   <energy>
    <i name="e_fr_energy">   -230.44719739 </i>
    <i name="e_wo_entrp">   -230.43265493 </i>
    <i name="e_0_energy">   -230.44234991 </i>
   </energy>
  </scstep>
  <scstep>
   <time name="diag">    2.80    4.19</time>
   <time name="diis">    5.27    7.17</time>
   <time name="orth">    0.57    0.60</time>
   <time name="total">    9.89   13.51</time>
   <energy>
    <i name="e_fr_energy">   -230.44628982 </i>
    <i name="e_wo_entrp">   -230.42823635 </i>
    <i name="e_0_energy">   -230.44027199 </i>
   </energy>
  </scstep>
  <scstep>
   <time name="diag">    3.30    3.94</time>
   <time name="diis">    4.97    6.52</time>
   <time name="orth">    0.53    0.62</time>
   <time name="total">    9.89   12.39</time>
   <energy>
    <i name="e_fr_energy">   -230.44551452 </i>
    <i name="e_wo_entrp">   -230.42926964 </i>
    <i name="e_0_energy">   -230.44009956 </i>
   </energy>
  </scstep>
  <scstep>
   <time name="diag">    2.14    2.68</time>
   <time name="diis">    4.78    5.62</time>
   <time name="orth">    0.47    0.58</time>
   <time name="total">    8.51   10.23</time>
   <energy>
    <i name="e_fr_energy">   -230.44535545 </i>
    <i name="e_wo_entrp">   -230.42831429 </i>
    <i name="e_0_energy">   -230.43967507 </i>
   </energy>
  </scstep>
  <scstep>
   <time name="diag">    3.44    4.01</time>
   <time name="diis">    2.88    3.77</time>
   <time name="orth">    0.45    0.59</time>
   <time name="total">    7.31    8.96</time>
   <energy>
    <i name="alphaZ">    975.10247152 </i>
    <i name="ewald">  91329.15540641 </i>
    <i name="hartreedc">-120033.07484163 </i>
    <i name="XCdc">    178.02803971 </i>
    <i name="pawpsdc">  30063.20057666 </i>
    <i name="pawaedc"> -29148.80275369 </i>
    <i name="eentropy">     -0.01670301 </i>
    <i name="bandstr">   -853.93165893 </i>
    <i name="atom">  27259.89416086 </i>
    <i name="e_fr_energy">   -230.44530210 </i>
    <i name="e_wo_entrp">   -230.42859908 </i>
    <i name="e_0_energy">   -230.43973443 </i>
   </energy>
  </scstep>
  <structure>
   <crystal>
    <varray name="basis" >
     <v>       7.29695512      -4.21289900       0.00000000 </v>
     <v>       0.00000000       8.42579800       0.00000000 </v>
     <v>       0.00000000       0.00000000      21.87963500 </v>
    </varray>
    <i name="volume">   1345.21837528 </i>
    <varray name="rec_basis" >
     <v>       0.13704346       0.00000000       0.00000000 </v>
     <v>       0.06852173       0.11868312       0.00000000 </v>
     <v>       0.00000000       0.00000000       0.04570460 </v>
    </varray>
   </crystal>
   <varray name="positions" >
    <v>       0.69807818       0.43015010       0.47414509 </v>
    <v>       0.91112682       0.38958633       0.46859372 </v>
    <v>       0.67162686       0.46074454       0.52361434 </v>
    <v>       0.98675500       0.32859100       0.07437600 </v>
    <v>       0.32008800       0.32859100       0.07437600 </v>
    <v>       0.65342200       0.32859100       0.07437600 </v>
    <v>       0.98675500       0.66192500       0.07437600 </v>
    <v>       0.32008800       0.66192500       0.07437600 </v>
    <v>       0.65342200       0.66192500       0.07437600 </v>
    <v>       0.32008800       0.99525800       0.07437600 </v>
    <v>       0.65342200       0.99525800       0.07437600 </v>
    <v>       0.98675500       0.99525800       0.07437600 </v>
    <v>       0.20897700       0.10636900       0.17918600 </v>
    <v>       0.54231100       0.10636900       0.17918600 </v>
    <v>       0.87564400       0.10636900       0.17918600 </v>
    <v>       0.20897700       0.43970300       0.17918600 </v>
    <v>       0.54231100       0.43970300       0.17918600 </v>
    <v>       0.87564400       0.43970300       0.17918600 </v>
    <v>       0.20897700       0.77303600       0.17918600 </v>
    <v>       0.54231100       0.77303600       0.17918600 </v>
    <v>       0.87564400       0.77303600       0.17918600 </v>
    <v>       0.09843276       0.54527205       0.28214989 </v>
    <v>       0.42980623       0.88084586       0.28256487 </v>
    <v>       0.76478854       0.21962765       0.28241802 </v>
    <v>       0.09897319       0.22106870       0.28608513 </v>
    <v>       0.43324822       0.21819654       0.28115730 </v>
    <v>       0.09502485       0.88489313       0.28156192 </v>
    <v>       0.76753718       0.88526868       0.28439809 </v>
    <v>       0.43249863       0.55145672       0.28188393 </v>
    <v>       0.76780510       0.55209326       0.28336577 </v>
    <v>       0.32710865       0.66051051       0.38423907 </v>
    <v>       0.65363285       0.99116068       0.38549319 </v>
    <v>       0.32217666       0.32611969       0.38915753 </v>
    <v>       0.99263400       0.99362382       0.39157635 </v>
    <v>       0.32306835       0.99358815       0.38705432 </v>
    <v>       0.64495148       0.32881295       0.38966438 </v>
    <v>       0.99415335       0.66441661       0.38444368 </v>
    <v>       0.99171254       0.32268844       0.39316040 </v>
    <v>       0.65374327       0.66040611       0.39290510 </v>
   </varray>
  </structure>
  <varray name="forces" >
   <v>      -0.03327849      -1.33133127      -1.36542264 </v>
   <v>       0.47571509       0.22006785      -0.32258757 </v>
   <v>       0.12113048       0.17985414       0.32740970 </v>
   <v>       0.03075993      -0.05327021       0.12860312 </v>
   <v>      -0.05399230      -0.04078173       0.14771726 </v>
   <v>      -0.03085760      -0.00989711       0.11010148 </v>
   <v>       0.01440793       0.02397250       0.12511458 </v>
   <v>      -0.01966798       0.02615514       0.10072800 </v>
   <v>       0.01487841      -0.01055793       0.18804590 </v>
   <v>       0.03247566      -0.06607798       0.02555152 </v>
   <v>      -0.02808930       0.02746633       0.14263220 </v>
   <v>       0.00998724       0.03394716       0.08622515 </v>
   <v>      -0.12136197       0.09333224      -0.20178656 </v>
   <v>       0.00337399      -0.07088260      -0.22637313 </v>
   <v>       0.17106720      -0.09297106       0.01649066 </v>
   <v>      -0.06925700      -0.14752388      -0.19245260 </v>
   <v>       0.05749665       0.07311628      -0.11926682 </v>
   <v>       0.00204437       0.03476058      -0.17560393 </v>
   <v>      -0.04308763       0.01719718      -0.22878598 </v>
   <v>       0.14163180       0.05324861      -0.15786282 </v>
   <v>      -0.03334903       0.14525163      -0.19539011 </v>
   <v>      -0.06849391       0.31469782       0.13595148 </v>
   <v>       0.10732592       0.30655213      -0.18918199 </v>
   <v>      -0.06942552      -0.20262026       0.34174481 </v>
   <v>      -0.27720266      -0.10707323      -0.04755933 </v>
   <v>      -0.06145728      -0.01115734       0.51194013 </v>
   <v>       0.29348601      -0.18485519       0.34254137 </v>
   <v>      -0.10809113      -0.09762745      -0.06336855 </v>
   <v>       0.28876910      -0.30605452       0.28842510 </v>
   <v>      -0.28795565       0.12432277      -0.10320585 </v>
   <v>      -0.12748255       0.12866026       0.38032478 </v>
   <v>       0.06348535       0.02595358       0.10578681 </v>
   <v>      -0.17073505       0.04179868      -0.30853334 </v>
   <v>      -0.22288132      -0.03633174      -0.38165023 </v>
   <v>      -0.14408504      -0.05136978      -0.17409454 </v>
   <v>      -0.10461961       0.16535792       0.84969955 </v>
   <v>       0.20171427       0.21962433       0.25524461 </v>
   <v>      -0.24501872       0.13413552       0.57319106 </v>
   <v>       0.29064033       0.43091063      -0.73034327 </v>
  </varray>
  <varray name="stress" >
   <v>     -44.06606023       1.26844082       1.47809804 </v>
   <v>       1.26844070     -47.08912295      -1.09867666 </v>
   <v>       1.47809807      -1.09867662      -7.12729926 </v>
  </varray>
  <energy>
   <i name="e_fr_energy">   -230.44530210 </i>
   <i name="e_wo_entrp">   -230.43973443 </i>
   <i name="e_0_energy">     -0.01670301 </i>
  </energy>
  <time name="totalsc">  126.85  153.78</time>
 </calculation>
 <calculation>
  <scstep>
