metal                                   
           1
     7.296955   -4.212899    0.000000
     0.000000    8.425798    0.000000
     0.000000    0.000000   21.879635
   C    O    Pt
   1   2  36
Direct configuration=     1
   0.69862647  0.43396200  0.47480407
   0.90942240  0.38814067  0.46942752
   0.67048993  0.46081788  0.52469260
   0.98675500  0.32859100  0.07437600
   0.32008800  0.32859100  0.07437600
   0.65342200  0.32859100  0.07437600
   0.98675500  0.66192500  0.07437600
   0.32008800  0.66192500  0.07437600
   0.65342200  0.66192500  0.07437600
   0.32008800  0.99525800  0.07437600
   0.65342200  0.99525800  0.07437600
   0.98675500  0.99525800  0.07437600
   0.20897700  0.10636900  0.17918600
   0.54231100  0.10636900  0.17918600
   0.87564400  0.10636900  0.17918600
   0.20897700  0.43970300  0.17918600
   0.54231100  0.43970300  0.17918600
   0.87564400  0.43970300  0.17918600
   0.20897700  0.77303600  0.17918600
   0.54231100  0.77303600  0.17918600
   0.87564400  0.77303600  0.17918600
   0.09890400  0.54382469  0.28200119
   0.42933950  0.87885860  0.28294002
   0.76523642  0.22094279  0.28192361
   0.10025567  0.22258037  0.28614887
   0.43376656  0.21850132  0.28033283
   0.09334643  0.88477809  0.28090836
   0.76807053  0.88596742  0.28438140
   0.43053831  0.55218460  0.28146391
   0.76939969  0.55199555  0.28361473
   0.32780880  0.66042878  0.38356395
   0.65312990  0.99090557  0.38537990
   0.32290177  0.32646169  0.38962384
   0.99357722  0.99441591  0.39218348
   0.32392965  0.99420322  0.38740340
   0.64505284  0.32827524  0.38814220
   0.99305561  0.66295741  0.38404644
   0.99326198  0.32241869  0.39198053
   0.65229837  0.65815483  0.39384781
Direct configuration=     2
   0.69856953  0.43078785  0.47350769
   0.91065190  0.38907822  0.46874013
   0.67088359  0.46119481  0.52467335
   0.98675500  0.32859100  0.07437600
   0.32008800  0.32859100  0.07437600
   0.65342200  0.32859100  0.07437600
   0.98675500  0.66192500  0.07437600
   0.32008800  0.66192500  0.07437600
   0.65342200  0.66192500  0.07437600
   0.32008800  0.99525800  0.07437600
   0.65342200  0.99525800  0.07437600
   0.98675500  0.99525800  0.07437600
   0.20897700  0.10636900  0.17918600
   0.54231100  0.10636900  0.17918600
   0.87564400  0.10636900  0.17918600
   0.20897700  0.43970300  0.17918600
   0.54231100  0.43970300  0.17918600
   0.87564400  0.43970300  0.17918600
   0.20897700  0.77303600  0.17918600
   0.54231100  0.77303600  0.17918600
   0.87564400  0.77303600  0.17918600
   0.09853212  0.54494814  0.28209720
   0.42967567  0.88040598  0.28265225
   0.76488448  0.21991309  0.28228007
   0.09931515  0.22138879  0.28610189
   0.43334940  0.21825921  0.28094084
   0.09463213  0.88489380  0.28140699
   0.76767194  0.88544685  0.28441335
   0.43208627  0.55161906  0.28176252
   0.76819426  0.55211553  0.28341485
   0.32727456  0.66046783  0.38407438
   0.65353762  0.99109701  0.38545421
   0.32238448  0.32619385  0.38928610
   0.99290181  0.99381328  0.39173841
   0.32326099  0.99373562  0.38713477
   0.64509871  0.32875595  0.38932769
   0.99388269  0.66403604  0.38433549
   0.99205815  0.32268128  0.39290693
   0.65337146  0.65977904  0.39318126
Direct configuration=     3
   0.69807818  0.43015010  0.47414509
   0.91112682  0.38958633  0.46859372
   0.67162686  0.46074454  0.52361434
   0.98675500  0.32859100  0.07437600
   0.32008800  0.32859100  0.07437600
   0.65342200  0.32859100  0.07437600
   0.98675500  0.66192500  0.07437600
   0.32008800  0.66192500  0.07437600
   0.65342200  0.66192500  0.07437600
   0.32008800  0.99525800  0.07437600
   0.65342200  0.99525800  0.07437600
   0.98675500  0.99525800  0.07437600
   0.20897700  0.10636900  0.17918600
   0.54231100  0.10636900  0.17918600
   0.87564400  0.10636900  0.17918600
   0.20897700  0.43970300  0.17918600
   0.54231100  0.43970300  0.17918600
   0.87564400  0.43970300  0.17918600
   0.20897700  0.77303600  0.17918600
   0.54231100  0.77303600  0.17918600
   0.87564400  0.77303600  0.17918600
   0.09843276  0.54527205  0.28214989
   0.42980623  0.88084586  0.28256487
   0.76478854  0.21962765  0.28241802
   0.09897319  0.22106870  0.28608513
   0.43324822  0.21819654  0.28115730
   0.09502485  0.88489313  0.28156192
   0.76753718  0.88526868  0.28439809
   0.43249863  0.55145672  0.28188393
   0.76780510  0.55209326  0.28336577
   0.32710865  0.66051051  0.38423907
   0.65363285  0.99116068  0.38549319
   0.32217666  0.32611969  0.38915753
   0.99263400  0.99362382  0.39157635
   0.32306835  0.99358815  0.38705432
   0.64495148  0.32881295  0.38966438
   0.99415335  0.66441661  0.38444368
   0.99171254  0.32268844  0.39316040
   0.65374327  0.66040611  0.39290510
