       N       E                     dE             d eps       ncg     rms          rms(c)
DAV:   1     0.242502199530E+04    0.24250E+04   -0.15954E+05  1824   0.129E+03
DAV:   2    -0.630960751711E+02   -0.24881E+04   -0.23078E+04  2120   0.286E+02
DAV:   3    -0.240462429536E+03   -0.17737E+03   -0.16100E+03  2144   0.693E+01
DAV:   4    -0.248204323334E+03   -0.77419E+01   -0.74688E+01  2328   0.139E+01
DAV:   5    -0.248450340660E+03   -0.24602E+00   -0.24366E+00  2440   0.249E+00    0.274E+01
RMM:   6    -0.246336904090E+03    0.21134E+01   -0.55189E+01  1830   0.149E+01    0.297E+01
RMM:   7    -0.244020289279E+03    0.23166E+01   -0.32575E+01  1830   0.903E+00    0.209E+01
RMM:   8    -0.243984000606E+03    0.36289E-01   -0.99891E+00  1826   0.481E+00    0.224E+01
RMM:   9    -0.231806170989E+03    0.12178E+02   -0.54908E+00  1831   0.387E+00    0.864E+00
RMM:  10    -0.230638670415E+03    0.11675E+01   -0.16735E+00  1830   0.212E+00    0.512E+00
RMM:  11    -0.230360629200E+03    0.27804E+00   -0.46140E-01  1831   0.106E+00    0.333E+00
RMM:  12    -0.230196746651E+03    0.16388E+00   -0.20053E-01  1845   0.706E-01    0.200E+00
RMM:  13    -0.230208165498E+03   -0.11419E-01   -0.11496E-01  1833   0.564E-01    0.194E+00
RMM:  14    -0.230156836632E+03    0.51329E-01   -0.80671E-02  1831   0.490E-01    0.846E-01
RMM:  15    -0.230152433597E+03    0.44030E-02   -0.26074E-02  1831   0.282E-01    0.593E-01
RMM:  16    -0.230147004541E+03    0.54291E-02   -0.62995E-03  1828   0.138E-01    0.228E-01
RMM:  17    -0.230146562307E+03    0.44223E-03   -0.14906E-03  1820   0.656E-02    0.142E-01
RMM:  18    -0.230146839245E+03   -0.27694E-03   -0.76169E-04  1745   0.469E-02    0.119E-01
RMM:  19    -0.230146773692E+03    0.65553E-04   -0.35089E-04  1243   0.336E-02
   1 F= -.23014677E+03 E0= -.23013855E+03  d E =-.230147E+03
       N       E                     dE             d eps       ncg     rms          rms(c)
DAV:   1    -0.230332037602E+03   -0.18520E+00   -0.25441E+01  1856   0.914E+00    0.582E-01
RMM:   2    -0.230374588371E+03   -0.42551E-01   -0.39973E-01  1832   0.139E+00    0.799E-01
RMM:   3    -0.230374580998E+03    0.73734E-05   -0.28810E-02  1873   0.301E-01    0.801E-01
RMM:   4    -0.230367584791E+03    0.69962E-02   -0.54854E-03  1860   0.123E-01    0.508E-01
RMM:   5    -0.230364699869E+03    0.28849E-02   -0.28654E-03  1832   0.887E-02    0.295E-01
RMM:   6    -0.230364589009E+03    0.11086E-03   -0.42196E-03  1826   0.108E-01    0.265E-01
RMM:   7    -0.230364070004E+03    0.51900E-03   -0.33584E-03  1827   0.984E-02    0.159E-01
RMM:   8    -0.230363777533E+03    0.29247E-03   -0.86534E-04  1806   0.504E-02    0.902E-02
RMM:   9    -0.230363710360E+03    0.67172E-04   -0.17874E-04  1005   0.245E-02
   2 F= -.23036371E+03 E0= -.23035511E+03  d E =-.216937E+00
       N       E                     dE             d eps       ncg     rms          rms(c)
DAV:   1    -0.230425808655E+03   -0.62031E-01   -0.13847E+01  1840   0.710E+00    0.536E-01
RMM:   2    -0.230463838179E+03   -0.38030E-01   -0.39248E-01  1846   0.114E+00    0.578E-01
RMM:   3    -0.230461758847E+03    0.20793E-02   -0.17155E-02  1860   0.230E-01    0.601E-01
RMM:   4    -0.230458767517E+03    0.29913E-02   -0.32927E-03  1851   0.950E-02    0.445E-01
RMM:   5    -0.230456865258E+03    0.19023E-02   -0.36197E-03  1833   0.975E-02    0.347E-01
RMM:   6    -0.230456580430E+03    0.28483E-03   -0.50993E-03  1830   0.117E-01    0.327E-01
RMM:   7    -0.230455126379E+03    0.14541E-02   -0.22485E-03  1825   0.798E-02    0.127E-01
RMM:   8    -0.230454980213E+03    0.14617E-03   -0.55263E-04  1548   0.406E-02    0.873E-02
RMM:   9    -0.230454885401E+03    0.94812E-04   -0.14797E-04  1003   0.231E-02
   3 F= -.23045489E+03 E0= -.23044635E+03  d E =-.911750E-01
       N       E                     dE             d eps       ncg     rms          rms(c)
