 vasp.5.4.4 16052018 (build Apr 24 2014 20:13:14) complex standard
 Contain Constrained Minimization Technique (TS), Periodic NBO, VASPsol, libbeef, VASP2WANNIER90, Constrained Cell Relaxation
 executed on Center for Computational Chemistry by phu@node11 date 2025.11.24 21:45:56
 running on    8 total cores
 distrk:  each k-point on    8 cores,    1 groups
 distr:  one band on NCORES_PER_BAND=   2 cores,    4 groups


--------------------------------------------------------------------------------------------------------


 INCAR:
 POTCAR:   PAW_PBE C 08Apr2002                    
 POTCAR:   PAW_PBE O 08Apr2002                    
 POTCAR:    PAW_PBE Pt 04Feb2005                  
 POTCAR:   PAW_PBE C 08Apr2002                    
   VRHFIN =C: s2p2                                                              
   LEXCH  = PE                                                                  
   EATOM  =   147.1560 eV,   10.8157 Ry                                         
                                                                                
   TITEL  = PAW_PBE C 08Apr2002                                                 
   LULTRA =        F    use ultrasoft PP ?                                      
   IUNSCR =        0    unscreen: 0-lin 1-nonlin 2-no                           
   RPACOR =     .000    partial core radius                                     
   POMASS =   12.011; ZVAL   =    4.000    mass and valenz                      
   RCORE  =    1.500    outmost cutoff radius                                   
   RWIGS  =    1.630; RWIGS  =     .863    wigner-seitz radius (au A)           
   ENMAX  =  400.000; ENMIN  =  300.000 eV                                      
   ICORE  =        2    local potential                                         
   LCOR   =        T    correct aug charges                                     
   LPAW   =        T    paw PP                                                  
   EAUG   =  644.873                                                            
   DEXC   =     .000                                                            
   RMAX   =    2.266    core radius for proj-oper                               
   RAUG   =    1.300    factor for augmentation sphere                          
   RDEP   =    1.501    radius for radial grids                                 
   RDEPT  =    1.300    core radius for aug-charge                              
   QCUT   =   -5.516; QGAM   =   11.032    optimization parameters              
                                                                                
   Description                                                                  
     l     E      TYP  RCUT    TYP  RCUT                                        
     0   .000     23  1.200                                                     
     0   .000     23  1.200                                                     
     1   .000     23  1.500                                                     
     1  2.500     23  1.500                                                     
     2   .000      7  1.500                                                     
  local pseudopotential read in
  atomic valenz-charges read in
  non local Contribution for L=           0  read in
    real space projection operators read in
  non local Contribution for L=           0  read in
    real space projection operators read in
  non local Contribution for L=           1  read in
    real space projection operators read in
  non local Contribution for L=           1  read in
    real space projection operators read in
    PAW grid and wavefunctions read in
 
   number of l-projection  operators is LMAX  =           4
   number of lm-projection operators is LMMAX =           8
 
 POTCAR:   PAW_PBE O 08Apr2002                    
   VRHFIN =O: s2p4                                                              
   LEXCH  = PE                                                                  
   EATOM  =   432.3788 eV,   31.7789 Ry                                         
                                                                                
   TITEL  = PAW_PBE O 08Apr2002                                                 
   LULTRA =        F    use ultrasoft PP ?                                      
   IUNSCR =        0    unscreen: 0-lin 1-nonlin 2-no                           
   RPACOR =     .000    partial core radius                                     
   POMASS =   16.000; ZVAL   =    6.000    mass and valenz                      
   RCORE  =    1.520    outmost cutoff radius                                   
   RWIGS  =    1.550; RWIGS  =     .820    wigner-seitz radius (au A)           
   ENMAX  =  400.000; ENMIN  =  300.000 eV                                      
   ICORE  =        2    local potential                                         
   LCOR   =        T    correct aug charges                                     
   LPAW   =        T    paw PP                                                  
   EAUG   =  605.392                                                            
   DEXC   =     .000                                                            
   RMAX   =    2.264    core radius for proj-oper                               
   RAUG   =    1.300    factor for augmentation sphere                          
   RDEP   =    1.550    radius for radial grids                                 
   QCUT   =   -5.520; QGAM   =   11.041    optimization parameters              
                                                                                
   Description                                                                  
     l     E      TYP  RCUT    TYP  RCUT                                        
     0   .000     23  1.200                                                     
     0  -.700     23  1.200                                                     
     1   .000     23  1.520                                                     
     1   .600     23  1.520                                                     
     2   .000      7  1.500                                                     
  local pseudopotential read in
  atomic valenz-charges read in
  non local Contribution for L=           0  read in
    real space projection operators read in
  non local Contribution for L=           0  read in
    real space projection operators read in
  non local Contribution for L=           1  read in
    real space projection operators read in
  non local Contribution for L=           1  read in
    real space projection operators read in
    PAW grid and wavefunctions read in
 
   number of l-projection  operators is LMAX  =           4
   number of lm-projection operators is LMMAX =           8
 
 POTCAR:    PAW_PBE Pt 04Feb2005                  
   VRHFIN =Pt: s1d9                                                             
   LEXCH  = PE                                                                  
   EATOM  =   729.1182 eV,   53.5887 Ry                                         
                                                                                
   TITEL  = PAW_PBE Pt 04Feb2005                                                
   LULTRA =        F    use ultrasoft PP ?                                      
   IUNSCR =        1    unscreen: 0-lin 1-nonlin 2-no                           
   RPACOR =    2.330    partial core radius                                     
   POMASS =  195.080; ZVAL   =   10.000    mass and valenz                      
   RCORE  =    2.600    outmost cutoff radius                                   
   RWIGS  =    2.750; RWIGS  =    1.455    wigner-seitz radius (au A)           
   ENMAX  =  230.283; ENMIN  =  172.712 eV                                      
   ICORE  =        3    local potential                                         
   LCOR   =        T    correct aug charges                                     
   LPAW   =        T    paw PP                                                  
   EAUG   =  358.966                                                            
   DEXC   =     .000                                                            
   RMAX   =    3.038    core radius for proj-oper                               
   RAUG   =    1.300    factor for augmentation sphere                          
   RDEP   =    2.761    radius for radial grids                                 
   QCUT   =   -4.114; QGAM   =    8.228    optimization parameters              
                                                                                
   Description                                                                  
     l     E      TYP  RCUT    TYP  RCUT                                        
     2   .000     23  2.500                                                     
     2   .000     23  2.500                                                     
     0   .000     23  2.500                                                     
     0   .000     23  2.500                                                     
     1  -.200     23  2.600                                                     
     1  1.500     23  2.600                                                     
     3   .000     23  2.500                                                     
  local pseudopotential read in
  partial core-charges read in
  atomic valenz-charges read in
  non local Contribution for L=           2  read in
    real space projection operators read in
  non local Contribution for L=           2  read in
    real space projection operators read in
  non local Contribution for L=           0  read in
    real space projection operators read in
  non local Contribution for L=           0  read in
    real space projection operators read in
  non local Contribution for L=           1  read in
    real space projection operators read in
  non local Contribution for L=           1  read in
    real space projection operators read in
    PAW grid and wavefunctions read in
 
   number of l-projection  operators is LMAX  =           6
   number of lm-projection operators is LMMAX =          18
 
 Optimization of the real space projectors (new method)

 maximal supplied QI-value         = 25.13
 optimisation between [QCUT,QGAM] = [ 10.81, 21.61] = [ 32.71,130.83] Ry 
 Optimized for a Real-space Cutoff    1.23 Angstroem

   l    n(q)    QCUT    max X(q) W(low)/X(q) W(high)/X(q)  e(spline) 
   0      8    10.807     5.582    0.53E-04    0.84E-04    0.44E-07
   0      8    10.807    69.432    0.35E-03    0.71E-03    0.24E-06
   1      7    10.807     2.780    0.44E-04    0.88E-04    0.89E-07
   1      7    10.807     4.549    0.14E-03    0.28E-03    0.13E-06
 Optimization of the real space projectors (new method)

 maximal supplied QI-value         = 24.76
 optimisation between [QCUT,QGAM] = [ 10.64, 21.54] = [ 31.73,129.89] Ry 
 Optimized for a Real-space Cutoff    1.23 Angstroem

   l    n(q)    QCUT    max X(q) W(low)/X(q) W(high)/X(q)  e(spline) 
   0      8    10.645     4.192    0.69E-04    0.93E-04    0.58E-07
   0      8    10.645     8.473    0.40E-03    0.65E-03    0.17E-06
   1      7    10.645     2.474    0.80E-04    0.12E-03    0.30E-07
   1      7    10.645     3.912    0.24E-03    0.53E-03    0.16E-06
 Optimization of the real space projectors (new method)

 maximal supplied QI-value         = 14.36
 optimisation between [QCUT,QGAM] = [ 10.77, 21.69] = [ 32.49,131.70] Ry 
 Optimized for a Real-space Cutoff    1.46 Angstroem

   l    n(q)    QCUT    max X(q) W(low)/X(q) W(high)/X(q)  e(spline) 
   2      9    10.771     3.903    0.38E-04    0.12E-03    0.82E-07
   2      9    10.771    18.372    0.13E-03    0.32E-03    0.28E-06
   0     10    10.771    13.697    0.11E-04    0.86E-05    0.85E-08
   0     10    10.771    65.529    0.40E-04    0.12E-03    0.14E-06
   1      9    10.771     7.604    0.48E-04    0.31E-04    0.38E-07
   1      9    10.771    12.136    0.35E-03    0.16E-03    0.23E-06
 PAW_PBE C 08Apr2002                    :
 energy of atom  1       EATOM= -147.1560
 kinetic energy error for atom=    0.0116 (will be added to EATOM!!)
 PAW_PBE O 08Apr2002                    :
 energy of atom  2       EATOM= -432.3788
 kinetic energy error for atom=    0.0389 (will be added to EATOM!!)
  PAW_PBE Pt 04Feb2005                  :
 energy of atom  3       EATOM= -729.1182
 kinetic energy error for atom=    0.0051 (will be added to EATOM!!)
 
 
 POSCAR: C    O    Pt                            
  positions in direct lattice
  No initial velocities read in
 exchange correlation table for  LEXCH =        8
   RHO(1)=    0.500       N(1)  =     2000
   RHO(2)=  100.500       N(2)  =     4000

 VTST: version 3.2, (02/03/18)

 CHAIN: initializing optimizer
 
 OPT: Using VASP QUASI-newton optimizer
 CHAIN: Read ICHAIN            0
 
 POSCAR: C    O    Pt                            
  positions in direct lattice
  No initial velocities read in
 


--------------------------------------------------------------------------------------------------------


 ion  position               nearest neighbor table
   1  0.700  0.432  0.476-   3 1.16  36 1.94   2 1.96
   2  0.906  0.390  0.462-   1 1.96  38 1.97  36 2.50  37 2.66
   3  0.672  0.459  0.526-   1 1.16
   4  0.987  0.329  0.074-  15 2.81  16 2.81  12 2.81   5 2.81  11 2.81   6 2.81  18 2.81   8 2.81
                             7 2.81
   5  0.320  0.329  0.074-  13 2.81  10 2.81   4 2.81  12 2.81  16 2.81  17 2.81   8 2.81   9 2.81
                             6 2.81
   6  0.653  0.329  0.074-  14 2.81  18 2.81  11 2.81   4 2.81  17 2.81   7 2.81  10 2.81   9 2.81
                             5 2.81
   7  0.987  0.662  0.074-  18 2.81  21 2.81  19 2.81  12 2.81   8 2.81  10 2.81   9 2.81   6 2.81
                             4 2.81
   8  0.320  0.662  0.074-  16 2.81  19 2.81  10 2.81   7 2.81  20 2.81   4 2.81  11 2.81   5 2.81
                             9 2.81
   9  0.653  0.662  0.074-  17 2.81  20 2.81  21 2.81  11 2.81  12 2.81   7 2.81   6 2.81   5 2.81
                             8 2.81
  10  0.320  0.995  0.074-  13 2.81  19 2.81   5 2.81   8 2.81  12 2.81   7 2.81  14 2.81   6 2.81
                            11 2.81
  11  0.653  0.995  0.074-  14 2.81  20 2.81  15 2.81   9 2.81   6 2.81  12 2.81   4 2.81   8 2.81
                            10 2.81
  12  0.987  0.995  0.074-  15 2.81  21 2.81  13 2.81   7 2.81   4 2.81  10 2.81   5 2.81  11 2.81
                             9 2.81
  13  0.209  0.106  0.179-  27 2.73  10 2.81   5 2.81  12 2.81  19 2.81  15 2.81  21 2.81  16 2.81
                            17 2.81  14 2.81  26 2.89  25 2.93
  14  0.542  0.106  0.179-  24 2.75  23 2.78   6 2.81  11 2.81  20 2.81  15 2.81  10 2.81  18 2.81
                            19 2.81  17 2.81  13 2.81  26 2.85
  15  0.876  0.106  0.179-  24 2.77  12 2.81   4 2.81  11 2.81  21 2.81  13 2.81  14 2.81  20 2.81
                            16 2.81  18 2.81  28 2.82  25 2.89
  16  0.209  0.440  0.179-  29 2.73  22 2.74   8 2.81   4 2.81  19 2.81  18 2.81   5 2.81  15 2.81
                            20 2.81  13 2.81  17 2.81  25 2.87
  17  0.542  0.440  0.179-  29 2.73   9 2.81  20 2.81  21 2.81  18 2.81   6 2.81   5 2.81  14 2.81
                            13 2.81  16 2.81  30 2.83  26 2.89
  18  0.876  0.440  0.179-  22 2.72  24 2.74  30 2.79   7 2.81   6 2.81  21 2.81  16 2.81  19 2.81
                            17 2.81   4 2.81  14 2.81  15 2.81
  19  0.209  0.773  0.179-  27 2.73  22 2.74  23 2.79  10 2.81   8 2.81   7 2.81  16 2.81  13 2.81
                            21 2.81  18 2.81  14 2.81  20 2.81
  20  0.542  0.773  0.179-  29 2.73  23 2.78  28 2.79  11 2.81   9 2.81  17 2.81  14 2.81  21 2.81
                            15 2.81   8 2.81  16 2.81  19 2.81
  21  0.876  0.773  0.179-  27 2.72  28 2.80   7 2.81  12 2.81   9 2.81  18 2.81  15 2.81  19 2.81
                            13 2.81  17 2.81  20 2.81  30 2.82
  22  0.095  0.549  0.280-  18 2.72  16 2.74  19 2.74  30 2.75  25 2.75  24 2.78  27 2.81  29 2.82
                            37 2.83  23 2.84  31 2.88  38 2.91
  23  0.433  0.885  0.283-  32 2.69  35 2.73  26 2.77  14 2.78  20 2.78  28 2.79  19 2.79  29 2.80
                            24 2.81  31 2.82  27 2.83  22 2.84
  24  0.764  0.221  0.281-  18 2.74  30 2.74  26 2.75  14 2.75  32 2.76  15 2.77  22 2.78  25 2.79
                            23 2.81  28 2.86  38 2.89  36 2.99
  25  0.096  0.223  0.289-  38 2.62  34 2.73  22 2.75  33 2.78  24 2.79  29 2.81  28 2.86  16 2.87
                            27 2.88  15 2.89  26 2.89  13 2.93
  26  0.435  0.214  0.288-  35 2.65  24 2.75  23 2.77  36 2.78  33 2.81  30 2.81  27 2.83  14 2.85
                            29 2.86  17 2.89  13 2.89  25 2.89
  27  0.096  0.883  0.279-  21 2.72  19 2.73  13 2.73  35 2.79  30 2.79  22 2.81  37 2.81  28 2.81
                            23 2.83  26 2.83  34 2.86  25 2.88
  28  0.762  0.881  0.284-  32 2.70  39 2.73  29 2.78  23 2.79  20 2.79  21 2.80  27 2.81  34 2.82
                            15 2.82  30 2.83  25 2.86  24 2.86
  29  0.432  0.552  0.280-  20 2.73  16 2.73  17 2.73  28 2.78  23 2.80  25 2.81  22 2.82  39 2.84
                            31 2.84  30 2.86  26 2.86  33 2.96
  30  0.769  0.548  0.284-  39 2.74  24 2.74  22 2.75  18 2.79  27 2.79  37 2.80  26 2.81  21 2.82
                            28 2.83  17 2.83  29 2.86  36 2.90
  31  0.322  0.659  0.387-  37 2.77  32 2.79  38 2.81  33 2.81  35 2.82  23 2.82  39 2.83  29 2.84
                            22 2.88
  32  0.650  0.993  0.382-  23 2.69  28 2.70  24 2.76  35 2.79  31 2.79  39 2.83  38 2.84  34 2.85
                            36 2.87
  33  0.320  0.325  0.392-  36 2.70  38 2.73  34 2.78  25 2.78  26 2.81  35 2.81  31 2.81  39 2.85
                            29 2.96
  34  0.990  0.996  0.388-  38 2.72  25 2.73  37 2.77  33 2.78  35 2.79  39 2.80  28 2.82  32 2.85
                            27 2.86
  35  0.318  0.992  0.383-  26 2.65  37 2.69  23 2.73  34 2.79  32 2.79  27 2.79  36 2.79  33 2.81
                            31 2.82
  36  0.642  0.328  0.394-   1 1.94   2 2.50  33 2.70  39 2.76  26 2.78  35 2.79  32 2.87  30 2.90
                            37 2.96  24 2.99  38 2.99
  37  0.999  0.672  0.387-   2 2.66  35 2.69  31 2.77  34 2.77  30 2.80  27 2.81  39 2.83  22 2.83
                            38 2.93  36 2.96
  38  0.994  0.321  0.389-   2 1.97  25 2.62  34 2.72  33 2.73  31 2.81  32 2.84  24 2.89  22 2.91
                            37 2.93  36 2.99
  39  0.659  0.662  0.385-  28 2.73  30 2.74  36 2.76  34 2.80  37 2.83  32 2.83  31 2.83  29 2.84
                            33 2.85
 

IMPORTANT INFORMATION: All symmetrisations will be switched off!
NOSYMM: (Re-)initialisation of all symmetry stuff for point group C_1.

 
 
 KPOINTS: mesh auto                               

Automatic generation of k-mesh.
Space group operators:
 irot       det(A)        alpha          n_x          n_y          n_z        tau_x        tau_y        tau_z
    1     1.000000     0.000000     1.000000     0.000000     0.000000     0.000000     0.000000     0.000000
 
 Subroutine IBZKPT returns following result:
 ===========================================
 
 Found      4 irreducible k-points:
 
 Following reciprocal coordinates:
            Coordinates               Weight
  0.000000  0.000000  0.000000      1.000000
  0.500000  0.000000  0.000000      1.000000
 -0.000000  0.500000  0.000000      1.000000
  0.500000  0.500000  0.000000      1.000000
 
 Following cartesian coordinates:
            Coordinates               Weight
  0.000000  0.000000  0.000000      1.000000
  0.068522  0.000000  0.000000      1.000000
  0.034261  0.059342  0.000000      1.000000
  0.102783  0.059342  0.000000      1.000000
 


--------------------------------------------------------------------------------------------------------




 Dimension of arrays:
   k-points           NKPTS =      4   k-points in BZ     NKDIM =      4   number of bands    NBANDS=    228
   number of dos      NEDOS =    301   number of ions     NIONS =     39
   non local maximal  LDIM  =      6   non local SUM 2l+1 LMDIM =     18
   total plane-waves  NPLWV = 276480
   max r-space proj   IRMAX =   2756   max aug-charges    IRDMAX=  12646
   dimension x,y,z NGX =    48 NGY =   48 NGZ =  120
   dimension x,y,z NGXF=    96 NGYF=   96 NGZF=  240
   support grid    NGXF=    96 NGYF=   96 NGZF=  240
   ions per type =               1   2  36
   NGX,Y,Z   is equivalent  to a cutoff of   9.47,  9.47,  9.12 a.u.
   NGXF,Y,Z  is equivalent  to a cutoff of  18.94, 18.94, 18.24 a.u.

 SYSTEM =  metal                                   
 POSCAR =  C    O    Pt                            

 Startparameter for this run:
   NWRITE =      2    write-flag & timer
   PREC   = normal    normal or accurate (medium, high low for compatibility)
   ISTART =      0    job   : 0-new  1-cont  2-samecut
   ICHARG =      2    charge: 1-file 2-atom 10-const
   ISPIN  =      1    spin polarized calculation?
   LNONCOLLINEAR =      F non collinear calculations
   LSORBIT =      F    spin-orbit coupling
   INIWAV =      1    electr: 0-lowe 1-rand  2-diag
   LASPH  =      F    aspherical Exc in radial PAW
   METAGGA=      F    non-selfconsistent MetaGGA calc.

 Electronic Relaxation 1
   ENCUT  =  450.0 eV  33.07 Ry    5.75 a.u.  14.57 14.57 37.84*2*pi/ulx,y,z
   ENINI  =  450.0     initial cutoff
   ENAUG  =  644.9 eV  augmentation charge cutoff
   NELM   =     60;   NELMIN=  8; NELMDL= -5     # of ELM steps 
   EDIFF  = 0.1E-03   stopping-criterion for ELM
   LREAL  =      T    real-space projection
   NLSPLINE    = F    spline interpolate recip. space projectors
   LCOMPAT=      F    compatible to vasp.4.4
   GGA_COMPAT  = T    GGA compatible to vasp.4.4-vasp.4.6
   LMAXPAW     = -100 max onsite density
   LMAXMIX     =    2 max onsite mixed and CHGCAR
   VOSKOWN=      0    Vosko Wilk Nusair interpolation
   ROPT   =   -0.00050  -0.00050  -0.00050
 Ionic relaxation
   EDIFFG = -.5E-01   stopping-criterion for IOM
   NSW    =   5000    number of steps for IOM
   NBLOCK =      1;   KBLOCK =   5000    inner block; outer block 
   IBRION =      1    ionic relax: 0-MD 1-quasi-New 2-CG
   NFREE  =      0    steps in history (QN), initial steepest desc. (CG)
   ISIF   =      2    stress and relaxation
   IWAVPR =     11    prediction:  0-non 1-charg 2-wave 3-comb
   ISYM   =      0    0-nonsym 1-usesym 2-fastsym
   LCORR  =      T    Harris-Foulkes like correction to forces

   POTIM  = 0.2000    time-step for ionic-motion
   TEIN   =    0.0    initial temperature
   TEBEG  =    0.0;   TEEND  =   0.0 temperature during run
   SMASS  =  -3.00    Nose mass-parameter (am)
   estimated Nose-frequenzy (Omega)   =  0.10E-29 period in steps =****** mass=  -0.162E-26a.u.
   SCALEE = 1.0000    scale energy and forces
   NPACO  =    256;   APACO  = 16.0  distance and # of slots for P.C.
   PSTRESS=    0.0 pullay stress

  Mass of Ions in am
   POMASS =  12.01 16.00195.08
  Ionic Valenz
   ZVAL   =   4.00  6.00 10.00
  Atomic Wigner-Seitz radii
   RWIGS  =  -1.00 -1.00 -1.00
  virtual crystal weights 
   VCA    =   1.00  1.00  1.00
   NELECT =     376.0000    total number of electrons
   NUPDOWN=      -1.0000    fix difference up-down

 DOS related values:
   EMIN   =  10.00;   EMAX   =-10.00  energy-range for DOS
   EFERMI =   0.00
   ISMEAR =     1;   SIGMA  =   0.20  broadening in eV -4-tet -1-fermi 0-gaus

 Electronic relaxation 2 (details)
   IALGO  =     68    algorithm
   LDIAG  =      T    sub-space diagonalisation (order eigenvalues)
   LSUBROT=      F    optimize rotation matrix (better conditioning)
   TURBO    =      0    0=normal 1=particle mesh
   IRESTART =      0    0=no restart 2=restart with 2 vectors
   NREBOOT  =      0    no. of reboots
   NMIN     =      0    reboot dimension
   EREF     =   0.00    reference energy to select bands
   IMIX   =      4    mixing-type and parameters
     AMIX     =   0.40;   BMIX     =  1.00
     AMIX_MAG =   1.60;   BMIX_MAG =  1.00
     AMIN     =   0.10
     WC   =   100.;   INIMIX=   1;  MIXPRE=   1;  MAXMIX= -45

 Intra band minimization:
   WEIMIN = 0.0010     energy-eigenvalue tresh-hold
   EBREAK =  0.11E-06  absolut break condition
   DEPER  =   0.30     relativ break condition  

   TIME   =   0.40     timestep for ELM

  volume/ion in A,a.u.               =      34.49       232.77
  Fermi-wavevector in a.u.,A,eV,Ry     =   1.070385  2.022734 15.588510  1.145723
  Thomas-Fermi vector in A             =   2.206093
 
 Write flags
   LWAVE        =      F    write WAVECAR
   LDOWNSAMPLE  =      F    k-point downsampling of WAVECAR
   LCHARG       =      F    write CHGCAR
   LVTOT        =      F    write LOCPOT, total local potential
   LVHAR        =      F    write LOCPOT, Hartree potential only
   LELF         =      F    write electronic localiz. function (ELF)
   LORBIT       =      0    0 simple, 1 ext, 2 COOP (PROOUT), +10 PAW based schemes


 Dipole corrections
   LMONO  =      F    monopole corrections only (constant potential shift)
   LDIPOL =      F    correct potential (dipole corrections)
   IDIPOL =      0    1-x, 2-y, 3-z, 4-all directions 
   EPSILON=  1.0000000 bulk dielectric constant

 Exchange correlation treatment:
   GGA     =    --    GGA type
   LEXCH   =     8    internal setting for exchange type
   VOSKOWN=      0    Vosko Wilk Nusair interpolation
   LHFCALC =     F    Hartree Fock is set to
   LHFONE  =     F    Hartree Fock one center treatment
   AEXX    =    0.0000 exact exchange contribution

 Linear response parameters
   LEPSILON=     F    determine dielectric tensor
   LRPA    =     F    only Hartree local field effects (RPA)
   LNABLA  =     F    use nabla operator in PAW spheres
   LVEL    =     F    velocity operator in full k-point grid
   LINTERFAST=   F  fast interpolation
   KINTER  =     0    interpolate to denser k-point grid
   CSHIFT  =0.1000    complex shift for real part using Kramers Kronig
   OMEGAMAX=  -1.0    maximum frequency
   DEG_THRESHOLD= 0.2000000E-02 threshold for treating states as degnerate
   RTIME   =   -0.100 relaxation time in fs
  (WPLASMAI=    0.000 imaginary part of plasma frequency in eV, 0.658/RTIME)
   DFIELD  = 0.0000000 0.0000000 0.0000000 field for delta impulse in time
 
 Orbital magnetization related:
   ORBITALMAG=     F  switch on orbital magnetization
   LCHIMAG   =     F  perturbation theory with respect to B field
   DQ        =  0.001000  dq finite difference perturbation B field
   LLRAUG    =     F  two centre corrections for induced B field



--------------------------------------------------------------------------------------------------------


 quasi-Newton-method for relaxation of ions
   using selective dynamics as specified on POSCAR
 charge density and potential will be updated during run
 non-spin polarized calculation
 RMM-DIIS sequential band-by-band and
  variant of blocked Davidson during initial phase
 perform sub-space diagonalisation
    before iterative eigenvector-optimisation
 modified Broyden-mixing scheme, WC =      100.0
 initial mixing is a Kerker type mixing with AMIX =  0.4000 and BMIX =      1.0000
 Hartree-type preconditioning will be used
 using additional bands           40
 real space projection scheme for non local part
 use partial core corrections
 calculate Harris-corrections to forces 
   (improved forces if not selfconsistent)
 use gradient corrections 
 use of overlap-Matrix (Vanderbilt PP)
 Methfessel and Paxton  Order N= 1 SIGMA  =   0.20


--------------------------------------------------------------------------------------------------------


  energy-cutoff  :      450.00
  volume of cell :     1345.22
      direct lattice vectors                 reciprocal lattice vectors
     7.296955120 -4.212899000  0.000000000     0.137043463  0.000000000  0.000000000
     0.000000000  8.425798000  0.000000000     0.068521732  0.118683121  0.000000000
     0.000000000  0.000000000 21.879635000     0.000000000  0.000000000  0.045704602

  length of vectors
     8.425798004  8.425798000 21.879635000     0.137043463  0.137043463  0.045704602


 
 k-points in units of 2pi/SCALE and weight: mesh auto                               
   0.00000000  0.00000000  0.00000000       0.250
   0.06852173  0.00000000  0.00000000       0.250
   0.03426087  0.05934156  0.00000000       0.250
   0.10278260  0.05934156  0.00000000       0.250
 
 k-points in reciprocal lattice and weights: mesh auto                               
   0.00000000  0.00000000  0.00000000       0.250
   0.50000000  0.00000000  0.00000000       0.250
  -0.00000000  0.50000000  0.00000000       0.250
   0.50000000  0.50000000  0.00000000       0.250
 
 position of ions in fractional coordinates (direct lattice) 
   0.70017323  0.43230665  0.47610865
   0.90579728  0.38960249  0.46178391
   0.67203668  0.45916254  0.52599718
   0.98675500  0.32859100  0.07437600
   0.32008800  0.32859100  0.07437600
   0.65342200  0.32859100  0.07437600
   0.98675500  0.66192500  0.07437600
   0.32008800  0.66192500  0.07437600
   0.65342200  0.66192500  0.07437600
   0.32008800  0.99525800  0.07437600
   0.65342200  0.99525800  0.07437600
   0.98675500  0.99525800  0.07437600
   0.20897700  0.10636900  0.17918600
   0.54231100  0.10636900  0.17918600
   0.87564400  0.10636900  0.17918600
   0.20897700  0.43970300  0.17918600
   0.54231100  0.43970300  0.17918600
   0.87564400  0.43970300  0.17918600
   0.20897700  0.77303600  0.17918600
   0.54231100  0.77303600  0.17918600
   0.87564400  0.77303600  0.17918600
   0.09519012  0.54918557  0.27987929
   0.43294518  0.88528690  0.28261354
   0.76409767  0.22075169  0.28100183
   0.09601329  0.22348345  0.28884236
   0.43484894  0.21449387  0.28780364
   0.09637288  0.88298895  0.27920823
   0.76172823  0.88069958  0.28375580
   0.43150030  0.55195833  0.27957538
   0.76853860  0.54848654  0.28422625
   0.32171709  0.65940972  0.38740746
   0.64989829  0.99316002  0.38187796
   0.31978859  0.32485019  0.39167694
   0.98967680  0.99600969  0.38759731
   0.31808321  0.99160611  0.38316624
   0.64206312  0.32789653  0.39436268
   0.99914416  0.67151072  0.38657125
   0.99371571  0.32103169  0.38859246
   0.65898028  0.66209257  0.38488548
 
 position of ions in cartesian coordinates  (Angst):
   5.10913263  0.69276945 10.41708343
   6.60956207 -0.53332056 10.10366340
   4.90382153  1.03758811 11.50862630
   7.20030695 -1.38845776  1.62731973
   2.33566777  1.42014298  1.62731973
   4.76799101  0.01584050  1.62731973
   7.20030695  1.42014719  1.62731973
   2.33566777  4.22874793  1.62731973
   4.76799101  2.82444545  1.62731973
   2.33566777  7.03734445  1.62731973
   4.76799101  5.63304198  1.62731973
   7.20030695  4.22874371  1.62731973
   1.52489579  0.01584471  3.92052428
   3.95721903 -1.38845776  3.92052428
   6.38953497 -2.79275602  3.92052428
   1.52489579  2.82444966  3.92052428
   3.95721903  1.42014719  3.92052428
   6.38953497  0.01584893  3.92052428
   1.52489579  5.63304619  3.92052428
   3.95721903  4.22874371  3.92052428
   6.38953497  2.82444545  3.92052428
   0.69459802  4.22630036  6.12365680
   3.15918153  5.63529433  6.18348118
   5.57558641 -1.35905713  6.14821742
   0.70060468  1.47853214  6.31976552
   3.17307319 -0.02469267  6.29703863
   0.70322860  7.03387731  6.10897413
   5.55829673  4.21151262  6.20847328
   3.14863830  2.83282222  6.11700728
   5.60799168  1.38366132  6.21876662
   2.34755519  4.20069150  8.47633376
   4.74227865  5.63020988  8.35535045
   2.33348300  1.38988507  8.56974849
   7.22162716  4.22276809  8.48048758
   2.32103890  7.01502037  8.38353746
   4.68510579  0.05784280  8.62851150
   7.29071007  1.44872023  8.45803781
   7.25109896 -1.48147578  8.50226127
   4.80854950  2.80244091  8.42115379
 


--------------------------------------------------------------------------------------------------------


 k-point  1 :   0.0000 0.0000 0.0000  plane waves:   29241
 k-point  2 :   0.5000 0.0000 0.0000  plane waves:   29108
 k-point  3 :  -0.0000 0.5000 0.0000  plane waves:   29108
 k-point  4 :   0.5000 0.5000 0.0000  plane waves:   29108

 maximum and minimum number of plane-waves per node :     14624    14548

 maximum number of plane-waves:     29241
 maximum index in each direction: 
   IXMAX=   14   IYMAX=   14   IZMAX=   37
   IXMIN=  -15   IYMIN=  -15   IZMIN=  -37


 real space projection operators:
  total allocation   :      13558.33 KBytes
  max/ min on nodes  :       6782.95       6775.38


 parallel 3D FFT for wavefunctions:
    minimum data exchange during FFTs selected (reduces bandwidth)
 parallel 3D FFT for charge:
    minimum data exchange during FFTs selected (reduces bandwidth)


 total amount of memory used by VASP MPI-rank0   131950. kBytes
=======================================================================

   base      :      30000. kBytes
   nonlr-proj:      10142. kBytes
   fftplans  :      13556. kBytes
   grid      :      23353. kBytes
   one-center:        311. kBytes
   wavefun   :      54588. kBytes
 
     INWAV:  cpu time    0.0001: real time    0.0001
 Broyden mixing: mesh for mixing (old mesh)
   NGX = 29   NGY = 29   NGZ = 75
  (NGX  = 96   NGY  = 96   NGZ  =240)
  gives a total of  63075 points

 initial charge density was supplied:
 charge density of overlapping atoms calculated
 number of electron     376.0000000 magnetization 
 keeping initial charge density in first step


--------------------------------------------------------------------------------------------------------


 Maximum index for non-local projection operator         1322
 Maximum index for augmentation-charges         1558 (set IRDMAX)


--------------------------------------------------------------------------------------------------------


 First call to EWALD:  gamma=   0.161
 Maximum number of real-space cells 4x 4x 2
 Maximum number of reciprocal cells 2x 2x 5

    FEWALD:  cpu time    0.0023: real time    0.0023


--------------------------------------- Iteration      1(   1)  ---------------------------------------


    POTLOK:  cpu time    0.1729: real time    0.3046
    SETDIJ:  cpu time    0.0124: real time    0.0125
     EDDAV:  cpu time   11.5373: real time   11.6148
       DOS:  cpu time    0.0009: real time    0.0009
    --------------------------------------------
      LOOP:  cpu time   11.7235: real time   11.9327

 eigenvalue-minimisations  :  1824
 total energy-change (2. order) : 0.2425022E+04  (-0.1595401E+05)
 number of electron     376.0000000 magnetization 
 augmentation part      376.0000000 magnetization 

 Free energy of the ion-electron system (eV)
  ---------------------------------------------------
  alpha Z        PSCENC =       975.10247152
  Ewald energy   TEWEN  =     91977.56128132
  -Hartree energ DENC   =   -121062.71766211
  -exchange      EXHF   =         0.00000000
  -V(xc)+E(xc)   XCENC  =       190.18868181
  PAW double counting   =     24789.08602224   -23775.73976456
  entropy T*S    EENTRO =         0.00156051
  eigenvalues    EBANDS =      2071.64524372
  atomic energy  EATOM  =     27259.89416086
  Solvation  Ediel_sol  =         0.00000000
  ---------------------------------------------------
  free energy    TOTEN  =      2425.02199530 eV

  energy without entropy =     2425.02043480  energy(sigma->0) =     2425.02147513


--------------------------------------------------------------------------------------------------------




--------------------------------------- Iteration      1(   2)  ---------------------------------------


     EDDAV:  cpu time   12.7987: real time   12.8858
       DOS:  cpu time    0.0011: real time    0.0011
    --------------------------------------------
      LOOP:  cpu time   12.7998: real time   12.8869

 eigenvalue-minimisations  :  2120
 total energy-change (2. order) :-0.2488118E+04  (-0.2307775E+04)
 number of electron     376.0000000 magnetization 
 augmentation part      376.0000000 magnetization 

 Free energy of the ion-electron system (eV)
  ---------------------------------------------------
  alpha Z        PSCENC =       975.10247152
  Ewald energy   TEWEN  =     91977.56128132
  -Hartree energ DENC   =   -121062.71766211
  -exchange      EXHF   =         0.00000000
  -V(xc)+E(xc)   XCENC  =       190.18868181
  PAW double counting   =     24789.08602224   -23775.73976456
  entropy T*S    EENTRO =        -0.01023532
  eigenvalues    EBANDS =      -416.46103092
  atomic energy  EATOM  =     27259.89416086
  Solvation  Ediel_sol  =         0.00000000
  ---------------------------------------------------
  free energy    TOTEN  =       -63.09607517 eV

  energy without entropy =      -63.08583985  energy(sigma->0) =      -63.09266340


--------------------------------------------------------------------------------------------------------




--------------------------------------- Iteration      1(   3)  ---------------------------------------


     EDDAV:  cpu time   13.1270: real time   13.2218
       DOS:  cpu time    0.0011: real time    0.0011
    --------------------------------------------
      LOOP:  cpu time   13.1281: real time   13.2230

 eigenvalue-minimisations  :  2144
 total energy-change (2. order) :-0.1773664E+03  (-0.1609999E+03)
 number of electron     376.0000000 magnetization 
 augmentation part      376.0000000 magnetization 

 Free energy of the ion-electron system (eV)
  ---------------------------------------------------
  alpha Z        PSCENC =       975.10247152
  Ewald energy   TEWEN  =     91977.56128132
  -Hartree energ DENC   =   -121062.71766211
  -exchange      EXHF   =         0.00000000
  -V(xc)+E(xc)   XCENC  =       190.18868181
  PAW double counting   =     24789.08602224   -23775.73976456
  entropy T*S    EENTRO =         0.00662252
  eigenvalues    EBANDS =      -593.84424313
  atomic energy  EATOM  =     27259.89416086
  Solvation  Ediel_sol  =         0.00000000
  ---------------------------------------------------
  free energy    TOTEN  =      -240.46242954 eV

  energy without entropy =     -240.46905206  energy(sigma->0) =     -240.46463704


--------------------------------------------------------------------------------------------------------




--------------------------------------- Iteration      1(   4)  ---------------------------------------


     EDDAV:  cpu time   13.7049: real time   13.8020
       DOS:  cpu time    0.0011: real time    0.0011
    --------------------------------------------
      LOOP:  cpu time   13.7060: real time   13.8031

 eigenvalue-minimisations  :  2328
 total energy-change (2. order) :-0.7741894E+01  (-0.7468815E+01)
 number of electron     376.0000000 magnetization 
 augmentation part      376.0000000 magnetization 

 Free energy of the ion-electron system (eV)
  ---------------------------------------------------
  alpha Z        PSCENC =       975.10247152
  Ewald energy   TEWEN  =     91977.56128132
  -Hartree energ DENC   =   -121062.71766211
  -exchange      EXHF   =         0.00000000
  -V(xc)+E(xc)   XCENC  =       190.18868181
  PAW double counting   =     24789.08602224   -23775.73976456
  entropy T*S    EENTRO =         0.01132226
  eigenvalues    EBANDS =      -601.59083666
  atomic energy  EATOM  =     27259.89416086
  Solvation  Ediel_sol  =         0.00000000
  ---------------------------------------------------
  free energy    TOTEN  =      -248.20432333 eV

  energy without entropy =     -248.21564559  energy(sigma->0) =     -248.20809742


--------------------------------------------------------------------------------------------------------




--------------------------------------- Iteration      1(   5)  ---------------------------------------


     EDDAV:  cpu time   14.3250: real time   14.4260
       DOS:  cpu time    0.0012: real time    0.0012
    CHARGE:  cpu time    0.5889: real time    0.5929
    MIXING:  cpu time    0.0086: real time    0.0086
    --------------------------------------------
      LOOP:  cpu time   14.9236: real time   15.0288

 eigenvalue-minimisations  :  2440
 total energy-change (2. order) :-0.2460173E+00  (-0.2436595E+00)
 number of electron     376.0000098 magnetization 
 augmentation part      105.8120559 magnetization 

 Broyden mixing:
  rms(total) = 0.27392E+01    rms(broyden)= 0.27388E+01
  rms(prec ) = 0.30512E+01
  weight for this iteration     100.00

 Free energy of the ion-electron system (eV)
  ---------------------------------------------------
  alpha Z        PSCENC =       975.10247152
  Ewald energy   TEWEN  =     91977.56128132
  -Hartree energ DENC   =   -121062.71766211
  -exchange      EXHF   =         0.00000000
  -V(xc)+E(xc)   XCENC  =       190.18868181
  PAW double counting   =     24789.08602224   -23775.73976456
  entropy T*S    EENTRO =         0.01144086
  eigenvalues    EBANDS =      -601.83697259
  atomic energy  EATOM  =     27259.89416086
  Solvation  Ediel_sol  =         0.00000000
  ---------------------------------------------------
  free energy    TOTEN  =      -248.45034066 eV

  energy without entropy =     -248.46178152  energy(sigma->0) =     -248.45415428


--------------------------------------------------------------------------------------------------------




--------------------------------------- Iteration      1(   6)  ---------------------------------------


    POTLOK:  cpu time    0.1693: real time    0.1705
    SETDIJ:  cpu time    0.0118: real time    0.0119
    EDDIAG:  cpu time    1.7828: real time    1.7955
  RMM-DIIS:  cpu time    6.2181: real time    6.3919
    ORTHCH:  cpu time    0.2426: real time    0.3364
       DOS:  cpu time    0.0011: real time    0.0011
    CHARGE:  cpu time    0.5103: real time    0.5139
    MIXING:  cpu time    0.0078: real time    0.0079
    --------------------------------------------
      LOOP:  cpu time    8.9438: real time    9.2289

 eigenvalue-minimisations  :  1830
 total energy-change (2. order) : 0.2113437E+01  (-0.5518916E+01)
 number of electron     376.0000116 magnetization 
 augmentation part      112.8552784 magnetization 

 Broyden mixing:
  rms(total) = 0.29665E+01    rms(broyden)= 0.29656E+01
  rms(prec ) = 0.40097E+01
  weight for this iteration     100.00

 eigenvalues of (default mixing * dielectric matrix)
  average eigenvalue GAMMA=   0.4877
  0.4877

 Free energy of the ion-electron system (eV)
  ---------------------------------------------------
  alpha Z        PSCENC =       975.10247152
  Ewald energy   TEWEN  =     91977.56128132
  -Hartree energ DENC   =   -120599.44602860
  -exchange      EXHF   =         0.00000000
  -V(xc)+E(xc)   XCENC  =       183.11684712
  PAW double counting   =     26759.34218565   -25799.92573166
  entropy T*S    EENTRO =        -0.14064116
  eigenvalues    EBANDS =     -1001.84144915
  atomic energy  EATOM  =     27259.89416086
  Solvation  Ediel_sol  =         0.00000000
  ---------------------------------------------------
  free energy    TOTEN  =      -246.33690409 eV

  energy without entropy =     -246.19626293  energy(sigma->0) =     -246.29002370


--------------------------------------------------------------------------------------------------------




--------------------------------------- Iteration      1(   7)  ---------------------------------------


    POTLOK:  cpu time    0.1545: real time    0.1556
    SETDIJ:  cpu time    0.0104: real time    0.0104
    EDDIAG:  cpu time    1.5998: real time    1.6109
  RMM-DIIS:  cpu time    6.1211: real time    6.1925
    ORTHCH:  cpu time    0.2554: real time    0.2572
       DOS:  cpu time    0.0011: real time    0.0011
    CHARGE:  cpu time    0.5894: real time    0.5936
    MIXING:  cpu time    0.0046: real time    0.0046
    --------------------------------------------
      LOOP:  cpu time    8.7363: real time    8.8259

 eigenvalue-minimisations  :  1830
 total energy-change (2. order) : 0.2316615E+01  (-0.3257487E+01)
 number of electron     376.0000111 magnetization 
 augmentation part      111.3366117 magnetization 

 Broyden mixing:
  rms(total) = 0.20923E+01    rms(broyden)= 0.20916E+01
  rms(prec ) = 0.35643E+01
  weight for this iteration     100.00

 eigenvalues of (default mixing * dielectric matrix)
  average eigenvalue GAMMA=   0.5731
  0.9003  0.2458

 Free energy of the ion-electron system (eV)
  ---------------------------------------------------
  alpha Z        PSCENC =       975.10247152
  Ewald energy   TEWEN  =     91977.56128132
  -Hartree energ DENC   =   -120793.25075874
  -exchange      EXHF   =         0.00000000
  -V(xc)+E(xc)   XCENC  =       180.84925929
  PAW double counting   =     27404.03004879   -26451.95946923
  entropy T*S    EENTRO =        -0.08911256
  eigenvalues    EBANDS =      -796.15817052
  atomic energy  EATOM  =     27259.89416086
  Solvation  Ediel_sol  =         0.00000000
  ---------------------------------------------------
  free energy    TOTEN  =      -244.02028928 eV

  energy without entropy =     -243.93117672  energy(sigma->0) =     -243.99058509


--------------------------------------------------------------------------------------------------------




--------------------------------------- Iteration      1(   8)  ---------------------------------------


    POTLOK:  cpu time    0.1612: real time    0.1623
    SETDIJ:  cpu time    0.0110: real time    0.0110
    EDDIAG:  cpu time    1.8897: real time    1.9029
  RMM-DIIS:  cpu time    6.4036: real time    6.4507
    ORTHCH:  cpu time    0.2575: real time    0.2591
       DOS:  cpu time    0.0013: real time    0.0013
    CHARGE:  cpu time    0.5978: real time    0.6020
    MIXING:  cpu time    0.0052: real time    0.0052
    --------------------------------------------
      LOOP:  cpu time    9.3273: real time    9.3946

 eigenvalue-minimisations  :  1826
 total energy-change (2. order) : 0.3628867E-01  (-0.9989129E+00)
 number of electron     376.0000114 magnetization 
 augmentation part      111.9419011 magnetization 

 Broyden mixing:
  rms(total) = 0.22398E+01    rms(broyden)= 0.22397E+01
  rms(prec ) = 0.39036E+01
  weight for this iteration     100.00

 eigenvalues of (default mixing * dielectric matrix)
  average eigenvalue GAMMA=   0.5326
  1.1684  0.2794  0.1500

 Free energy of the ion-electron system (eV)
  ---------------------------------------------------
  alpha Z        PSCENC =       975.10247152
  Ewald energy   TEWEN  =     91977.56128132
  -Hartree energ DENC   =   -120754.83429356
  -exchange      EXHF   =         0.00000000
  -V(xc)+E(xc)   XCENC  =       179.79563535
  PAW double counting   =     28015.52661630   -27073.09304924
  entropy T*S    EENTRO =        -0.06330485
  eigenvalues    EBANDS =      -823.87351832
  atomic energy  EATOM  =     27259.89416086
  Solvation  Ediel_sol  =         0.00000000
  ---------------------------------------------------
  free energy    TOTEN  =      -243.98400061 eV

  energy without entropy =     -243.92069576  energy(sigma->0) =     -243.96289899


--------------------------------------------------------------------------------------------------------




--------------------------------------- Iteration      1(   9)  ---------------------------------------


    POTLOK:  cpu time    0.1749: real time    0.1761
    SETDIJ:  cpu time    0.0109: real time    0.0109
    EDDIAG:  cpu time    1.8648: real time    1.8776
  RMM-DIIS:  cpu time    6.4369: real time    6.4841
    ORTHCH:  cpu time    0.2582: real time    0.2598
       DOS:  cpu time    0.0012: real time    0.0012
    CHARGE:  cpu time    0.5984: real time    0.6024
    MIXING:  cpu time    0.0064: real time    0.0065
    --------------------------------------------
      LOOP:  cpu time    9.3517: real time    9.4187

 eigenvalue-minimisations  :  1831
 total energy-change (2. order) : 0.1217783E+02  (-0.5490750E+00)
 number of electron     376.0000108 magnetization 
 augmentation part      112.6521660 magnetization 

 Broyden mixing:
  rms(total) = 0.86445E+00    rms(broyden)= 0.86409E+00
  rms(prec ) = 0.11546E+01
  weight for this iteration     100.00

 eigenvalues of (default mixing * dielectric matrix)
  average eigenvalue GAMMA=   0.5304
  1.3019  0.3418  0.3418  0.1361

 Free energy of the ion-electron system (eV)
  ---------------------------------------------------
  alpha Z        PSCENC =       975.10247152
  Ewald energy   TEWEN  =     91977.56128132
  -Hartree energ DENC   =   -120693.63457343
  -exchange      EXHF   =         0.00000000
  -V(xc)+E(xc)   XCENC  =       179.11406019
  PAW double counting   =     28738.76803209   -27807.56483691
  entropy T*S    EENTRO =        -0.09085780
  eigenvalues    EBANDS =      -860.95590884
  atomic energy  EATOM  =     27259.89416086
  Solvation  Ediel_sol  =         0.00000000
  ---------------------------------------------------
  free energy    TOTEN  =      -231.80617099 eV

  energy without entropy =     -231.71531319  energy(sigma->0) =     -231.77588506


--------------------------------------------------------------------------------------------------------




--------------------------------------- Iteration      1(  10)  ---------------------------------------


    POTLOK:  cpu time    0.1623: real time    0.1635
    SETDIJ:  cpu time    0.0103: real time    0.0103
    EDDIAG:  cpu time    1.7962: real time    1.8091
  RMM-DIIS:  cpu time    6.3314: real time    6.3750
    ORTHCH:  cpu time    0.2575: real time    0.2592
       DOS:  cpu time    0.0011: real time    0.0011
    CHARGE:  cpu time    0.5928: real time    0.5966
    MIXING:  cpu time    0.0059: real time    0.0059
    --------------------------------------------
      LOOP:  cpu time    9.1575: real time    9.2207

 eigenvalue-minimisations  :  1830
 total energy-change (2. order) : 0.1167501E+01  (-0.1673512E+00)
 number of electron     376.0000109 magnetization 
 augmentation part      112.7589791 magnetization 

 Broyden mixing:
  rms(total) = 0.51225E+00    rms(broyden)= 0.51219E+00
  rms(prec ) = 0.65649E+00
  weight for this iteration     100.00

 eigenvalues of (default mixing * dielectric matrix)
  average eigenvalue GAMMA=   0.5501
  1.4041  0.4727  0.4727  0.1387  0.2624

 Free energy of the ion-electron system (eV)
  ---------------------------------------------------
  alpha Z        PSCENC =       975.10247152
  Ewald energy   TEWEN  =     91977.56128132
  -Hartree energ DENC   =   -120684.14808581
  -exchange      EXHF   =         0.00000000
  -V(xc)+E(xc)   XCENC  =       178.98250699
  PAW double counting   =     29106.56150287   -28180.35405992
  entropy T*S    EENTRO =        -0.00121660
  eigenvalues    EBANDS =      -864.23723165
  atomic energy  EATOM  =     27259.89416086
  Solvation  Ediel_sol  =         0.00000000
  ---------------------------------------------------
  free energy    TOTEN  =      -230.63867041 eV

  energy without entropy =     -230.63745382  energy(sigma->0) =     -230.63826488


--------------------------------------------------------------------------------------------------------




--------------------------------------- Iteration      1(  11)  ---------------------------------------


    POTLOK:  cpu time    0.1648: real time    0.1659
    SETDIJ:  cpu time    0.0104: real time    0.0105
    EDDIAG:  cpu time    1.8093: real time    1.8211
  RMM-DIIS:  cpu time    6.3344: real time    6.3779
    ORTHCH:  cpu time    0.2578: real time    0.2595
       DOS:  cpu time    0.0013: real time    0.0013
    CHARGE:  cpu time    0.5469: real time    0.5506
    MIXING:  cpu time    0.0057: real time    0.0057
    --------------------------------------------
      LOOP:  cpu time    9.1307: real time    9.1925

 eigenvalue-minimisations  :  1831
 total energy-change (2. order) : 0.2780412E+00  (-0.4613980E-01)
 number of electron     376.0000110 magnetization 
 augmentation part      112.8977188 magnetization 

 Broyden mixing:
  rms(total) = 0.33300E+00    rms(broyden)= 0.33268E+00
  rms(prec ) = 0.43336E+00
  weight for this iteration     100.00

 eigenvalues of (default mixing * dielectric matrix)
  average eigenvalue GAMMA=   0.5899
  1.5763  0.8737  0.3620  0.3620  0.1376  0.2276

 Free energy of the ion-electron system (eV)
  ---------------------------------------------------
  alpha Z        PSCENC =       975.10247152
  Ewald energy   TEWEN  =     91977.56128132
  -Hartree energ DENC   =   -120680.41123031
  -exchange      EXHF   =         0.00000000
  -V(xc)+E(xc)   XCENC  =       178.98008212
  PAW double counting   =     29394.79105569   -28472.28759929
  entropy T*S    EENTRO =        -0.04392613
  eigenvalues    EBANDS =      -863.94692498
  atomic energy  EATOM  =     27259.89416086
  Solvation  Ediel_sol  =         0.00000000
  ---------------------------------------------------
  free energy    TOTEN  =      -230.36062920 eV

  energy without entropy =     -230.31670307  energy(sigma->0) =     -230.34598716


--------------------------------------------------------------------------------------------------------




--------------------------------------- Iteration      1(  12)  ---------------------------------------


    POTLOK:  cpu time    0.1596: real time    0.1606
    SETDIJ:  cpu time    0.0105: real time    0.0106
    EDDIAG:  cpu time    1.7825: real time    1.7943
  RMM-DIIS:  cpu time    6.1051: real time    6.1464
    ORTHCH:  cpu time    0.2538: real time    0.2553
       DOS:  cpu time    0.0013: real time    0.0013
    CHARGE:  cpu time    0.5567: real time    0.5604
    MIXING:  cpu time    0.0065: real time    0.0065
    --------------------------------------------
      LOOP:  cpu time    8.8759: real time    8.9354

 eigenvalue-minimisations  :  1845
 total energy-change (2. order) : 0.1638825E+00  (-0.2005302E-01)
 number of electron     376.0000110 magnetization 
 augmentation part      112.9561120 magnetization 

 Broyden mixing:
  rms(total) = 0.19982E+00    rms(broyden)= 0.19977E+00
  rms(prec ) = 0.22234E+00
  weight for this iteration     100.00

 eigenvalues of (default mixing * dielectric matrix)
  average eigenvalue GAMMA=   0.6715
  1.9105  1.0771  0.5299  0.5166  0.1378  0.2819  0.2470

 Free energy of the ion-electron system (eV)
  ---------------------------------------------------
  alpha Z        PSCENC =       975.10247152
  Ewald energy   TEWEN  =     91977.56128132
  -Hartree energ DENC   =   -120671.51879910
  -exchange      EXHF   =         0.00000000
  -V(xc)+E(xc)   XCENC  =       178.93873610
  PAW double counting   =     29701.22374336   -28782.44465876
  entropy T*S    EENTRO =        -0.03048750
  eigenvalues    EBANDS =      -868.92319445
  atomic energy  EATOM  =     27259.89416086
  Solvation  Ediel_sol  =         0.00000000
  ---------------------------------------------------
  free energy    TOTEN  =      -230.19674665 eV

  energy without entropy =     -230.16625915  energy(sigma->0) =     -230.18658415


--------------------------------------------------------------------------------------------------------




--------------------------------------- Iteration      1(  13)  ---------------------------------------


    POTLOK:  cpu time    0.1572: real time    0.1583
    SETDIJ:  cpu time    0.0105: real time    0.0106
    EDDIAG:  cpu time    1.8392: real time    1.8514
  RMM-DIIS:  cpu time    5.7951: real time    5.8485
    ORTHCH:  cpu time    0.2347: real time    0.2361
       DOS:  cpu time    0.0013: real time    0.0013
    CHARGE:  cpu time    0.5005: real time    0.5489
    MIXING:  cpu time    0.0063: real time    0.0064
    --------------------------------------------
      LOOP:  cpu time    8.5448: real time    8.6614

 eigenvalue-minimisations  :  1833
 total energy-change (2. order) :-0.1141885E-01  (-0.1149563E-01)
 number of electron     376.0000109 magnetization 
 augmentation part      112.9589441 magnetization 

 Broyden mixing:
  rms(total) = 0.19419E+00    rms(broyden)= 0.19416E+00
  rms(prec ) = 0.24851E+00
  weight for this iteration     100.00

 eigenvalues of (default mixing * dielectric matrix)
  average eigenvalue GAMMA=   0.6940
  2.1444  1.1453  0.8491  0.1378  0.4164  0.3343  0.2959  0.2292

 Free energy of the ion-electron system (eV)
  ---------------------------------------------------
  alpha Z        PSCENC =       975.10247152
  Ewald energy   TEWEN  =     91977.56128132
  -Hartree energ DENC   =   -120670.62840563
  -exchange      EXHF   =         0.00000000
  -V(xc)+E(xc)   XCENC  =       178.84430652
  PAW double counting   =     29952.72241229   -29036.91604793
  entropy T*S    EENTRO =        -0.02374491
  eigenvalues    EBANDS =      -866.76459954
  atomic energy  EATOM  =     27259.89416086
  Solvation  Ediel_sol  =         0.00000000
  ---------------------------------------------------
  free energy    TOTEN  =      -230.20816550 eV

  energy without entropy =     -230.18442059  energy(sigma->0) =     -230.20025053


--------------------------------------------------------------------------------------------------------




--------------------------------------- Iteration      1(  14)  ---------------------------------------


    POTLOK:  cpu time    0.1569: real time    0.1580
    SETDIJ:  cpu time    0.0101: real time    0.0102
    EDDIAG:  cpu time    1.6354: real time    1.6774
  RMM-DIIS:  cpu time    6.4000: real time    6.4447
    ORTHCH:  cpu time    0.2619: real time    0.2636
       DOS:  cpu time    0.0013: real time    0.0013
    CHARGE:  cpu time    0.6261: real time    0.6305
    MIXING:  cpu time    0.0071: real time    0.0072
    --------------------------------------------
      LOOP:  cpu time    9.0988: real time    9.1928

 eigenvalue-minimisations  :  1831
 total energy-change (2. order) : 0.5132887E-01  (-0.8067078E-02)
 number of electron     376.0000110 magnetization 
 augmentation part      112.9419010 magnetization 

 Broyden mixing:
  rms(total) = 0.84586E-01    rms(broyden)= 0.84575E-01
  rms(prec ) = 0.10460E+00
  weight for this iteration     100.00

 eigenvalues of (default mixing * dielectric matrix)
  average eigenvalue GAMMA=   0.7387
  2.4511  1.2664  0.8919  0.6889  0.4142  0.1378  0.3134  0.2570  0.2281

 Free energy of the ion-electron system (eV)
  ---------------------------------------------------
  alpha Z        PSCENC =       975.10247152
  Ewald energy   TEWEN  =     91977.56128132
  -Hartree energ DENC   =   -120676.20357497
  -exchange      EXHF   =         0.00000000
  -V(xc)+E(xc)   XCENC  =       178.78759323
  PAW double counting   =     30097.37774994   -29183.24579403
  entropy T*S    EENTRO =        -0.02634836
  eigenvalues    EBANDS =      -859.40437615
  atomic energy  EATOM  =     27259.89416086
  Solvation  Ediel_sol  =         0.00000000
  ---------------------------------------------------
  free energy    TOTEN  =      -230.15683663 eV

  energy without entropy =     -230.13048827  energy(sigma->0) =     -230.14805384


--------------------------------------------------------------------------------------------------------




--------------------------------------- Iteration      1(  15)  ---------------------------------------


    POTLOK:  cpu time    0.1579: real time    0.1590
    SETDIJ:  cpu time    0.0106: real time    0.0107
    EDDIAG:  cpu time    1.8218: real time    1.8345
  RMM-DIIS:  cpu time    6.6399: real time    6.6865
    ORTHCH:  cpu time    0.2580: real time    0.2597
       DOS:  cpu time    0.0011: real time    0.0011
    CHARGE:  cpu time    0.6035: real time    0.6076
    MIXING:  cpu time    0.0075: real time    0.0076
    --------------------------------------------
      LOOP:  cpu time    9.5004: real time    9.5666

 eigenvalue-minimisations  :  1831
 total energy-change (2. order) : 0.4403035E-02  (-0.2607376E-02)
 number of electron     376.0000110 magnetization 
 augmentation part      112.9280765 magnetization 

 Broyden mixing:
  rms(total) = 0.59298E-01    rms(broyden)= 0.59253E-01
  rms(prec ) = 0.72329E-01
  weight for this iteration     100.00

 eigenvalues of (default mixing * dielectric matrix)
  average eigenvalue GAMMA=   0.7094
  2.5014  1.2782  0.8096  0.8096  0.4365  0.1378  0.3354  0.3060  0.2526  0.2270

 Free energy of the ion-electron system (eV)
  ---------------------------------------------------
  alpha Z        PSCENC =       975.10247152
  Ewald energy   TEWEN  =     91977.56128132
  -Hartree energ DENC   =   -120677.54862307
  -exchange      EXHF   =         0.00000000
  -V(xc)+E(xc)   XCENC  =       178.76819754
  PAW double counting   =     30190.36223005   -29277.22672098
  entropy T*S    EENTRO =        -0.02413849
  eigenvalues    EBANDS =      -857.04129236
  atomic energy  EATOM  =     27259.89416086
  Solvation  Ediel_sol  =         0.00000000
  ---------------------------------------------------
  free energy    TOTEN  =      -230.15243360 eV

  energy without entropy =     -230.12829510  energy(sigma->0) =     -230.14438743


--------------------------------------------------------------------------------------------------------




--------------------------------------- Iteration      1(  16)  ---------------------------------------


    POTLOK:  cpu time    0.1690: real time    0.1701
    SETDIJ:  cpu time    0.0107: real time    0.0108
    EDDIAG:  cpu time    1.8314: real time    1.8442
  RMM-DIIS:  cpu time    6.5901: real time    6.6367
    ORTHCH:  cpu time    0.2631: real time    0.2647
       DOS:  cpu time    0.0012: real time    0.0012
    CHARGE:  cpu time    0.5949: real time    0.5988
    MIXING:  cpu time    0.0052: real time    0.0052
    --------------------------------------------
      LOOP:  cpu time    9.4656: real time    9.5318

 eigenvalue-minimisations  :  1828
 total energy-change (2. order) : 0.5429056E-02  (-0.6299468E-03)
 number of electron     376.0000110 magnetization 
 augmentation part      112.9321205 magnetization 

 Broyden mixing:
  rms(total) = 0.22831E-01    rms(broyden)= 0.22829E-01
  rms(prec ) = 0.27190E-01
  weight for this iteration     100.00

 eigenvalues of (default mixing * dielectric matrix)
  average eigenvalue GAMMA=   0.6888
  2.5041  1.2747  0.7713  0.7713  0.6259  0.4130  0.1378  0.3014  0.3014  0.2485
  0.2269

 Free energy of the ion-electron system (eV)
  ---------------------------------------------------
  alpha Z        PSCENC =       975.10247152
  Ewald energy   TEWEN  =     91977.56128132
  -Hartree energ DENC   =   -120677.83130376
  -exchange      EXHF   =         0.00000000
  -V(xc)+E(xc)   XCENC  =       178.77585538
  PAW double counting   =     30200.61542818   -29287.56387350
  entropy T*S    EENTRO =        -0.02419079
  eigenvalues    EBANDS =      -856.67683376
  atomic energy  EATOM  =     27259.89416086
  Solvation  Ediel_sol  =         0.00000000
  ---------------------------------------------------
  free energy    TOTEN  =      -230.14700454 eV

  energy without entropy =     -230.12281375  energy(sigma->0) =     -230.13894094


--------------------------------------------------------------------------------------------------------




--------------------------------------- Iteration      1(  17)  ---------------------------------------


    POTLOK:  cpu time    0.1560: real time    0.1570
    SETDIJ:  cpu time    0.0110: real time    0.0111
    EDDIAG:  cpu time    1.7981: real time    1.8106
  RMM-DIIS:  cpu time    6.5679: real time    6.6139
    ORTHCH:  cpu time    0.2649: real time    0.2664
       DOS:  cpu time    0.0013: real time    0.0013
    CHARGE:  cpu time    0.6070: real time    0.6111
    MIXING:  cpu time    0.0075: real time    0.0076
    --------------------------------------------
      LOOP:  cpu time    9.4137: real time    9.4789

 eigenvalue-minimisations  :  1820
 total energy-change (2. order) : 0.4422346E-03  (-0.1490645E-03)
 number of electron     376.0000110 magnetization 
 augmentation part      112.9325438 magnetization 

 Broyden mixing:
  rms(total) = 0.14172E-01    rms(broyden)= 0.14169E-01
  rms(prec ) = 0.16716E-01
  weight for this iteration     100.00

 eigenvalues of (default mixing * dielectric matrix)
  average eigenvalue GAMMA=   0.7480
  2.5160  1.3425  1.3013  0.9837  0.8559  0.4462  0.1378  0.3486  0.3183  0.2625
  0.2255  0.2373

 Free energy of the ion-electron system (eV)
  ---------------------------------------------------
  alpha Z        PSCENC =       975.10247152
  Ewald energy   TEWEN  =     91977.56128132
  -Hartree energ DENC   =   -120678.32974330
  -exchange      EXHF   =         0.00000000
  -V(xc)+E(xc)   XCENC  =       178.78224841
  PAW double counting   =     30200.68945456   -29287.61026856
  entropy T*S    EENTRO =        -0.02426158
  eigenvalues    EBANDS =      -856.21190554
  atomic energy  EATOM  =     27259.89416086
  Solvation  Ediel_sol  =         0.00000000
  ---------------------------------------------------
  free energy    TOTEN  =      -230.14656231 eV

  energy without entropy =     -230.12230073  energy(sigma->0) =     -230.13847511


--------------------------------------------------------------------------------------------------------




--------------------------------------- Iteration      1(  18)  ---------------------------------------


    POTLOK:  cpu time    0.1650: real time    0.1660
    SETDIJ:  cpu time    0.0105: real time    0.0106
    EDDIAG:  cpu time    1.8521: real time    1.8649
  RMM-DIIS:  cpu time    6.1946: real time    6.2370
    ORTHCH:  cpu time    0.2637: real time    0.2653
       DOS:  cpu time    0.0012: real time    0.0012
    CHARGE:  cpu time    0.5857: real time    0.5895
    MIXING:  cpu time    0.0069: real time    0.0069
    --------------------------------------------
      LOOP:  cpu time    9.0798: real time    9.1414

 eigenvalue-minimisations  :  1745
 total energy-change (2. order) :-0.2769384E-03  (-0.7616851E-04)
 number of electron     376.0000110 magnetization 
 augmentation part      112.9298716 magnetization 

 Broyden mixing:
  rms(total) = 0.11902E-01    rms(broyden)= 0.11902E-01
  rms(prec ) = 0.14774E-01
  weight for this iteration     100.00

 eigenvalues of (default mixing * dielectric matrix)
  average eigenvalue GAMMA=   0.7558
  2.5278  1.9334  1.2791  0.8757  0.8757  0.1378  0.4460  0.3841  0.3251  0.3251
  0.2550  0.2253  0.2348

 Free energy of the ion-electron system (eV)
  ---------------------------------------------------
  alpha Z        PSCENC =       975.10247152
  Ewald energy   TEWEN  =     91977.56128132
  -Hartree energ DENC   =   -120679.85959509
  -exchange      EXHF   =         0.00000000
  -V(xc)+E(xc)   XCENC  =       178.79410593
  PAW double counting   =     30199.53098718   -29286.36183752
  entropy T*S    EENTRO =        -0.02432242
  eigenvalues    EBANDS =      -854.78409103
  atomic energy  EATOM  =     27259.89416086
  Solvation  Ediel_sol  =         0.00000000
  ---------------------------------------------------
  free energy    TOTEN  =      -230.14683924 eV

  energy without entropy =     -230.12251682  energy(sigma->0) =     -230.13873177


--------------------------------------------------------------------------------------------------------




--------------------------------------- Iteration      1(  19)  ---------------------------------------


    POTLOK:  cpu time    0.1656: real time    0.1667
    SETDIJ:  cpu time    0.0106: real time    0.0106
    EDDIAG:  cpu time    1.8263: real time    1.8384
  RMM-DIIS:  cpu time    4.6775: real time    4.7095
    ORTHCH:  cpu time    0.2675: real time    0.2692
       DOS:  cpu time    0.0011: real time    0.0011
    --------------------------------------------
      LOOP:  cpu time    6.9485: real time    6.9955

 eigenvalue-minimisations  :  1243
 total energy-change (2. order) : 0.6555311E-04  (-0.3508911E-04)
 number of electron     376.0000110 magnetization 
 augmentation part      112.9298716 magnetization 

 Free energy of the ion-electron system (eV)
  ---------------------------------------------------
  alpha Z        PSCENC =       975.10247152
  Ewald energy   TEWEN  =     91977.56128132
  -Hartree energ DENC   =   -120680.67674868
  -exchange      EXHF   =         0.00000000
  -V(xc)+E(xc)   XCENC  =       178.80037333
  PAW double counting   =     30198.19296215   -29284.97275493
  entropy T*S    EENTRO =        -0.02467238
  eigenvalues    EBANDS =      -854.02384688
  atomic energy  EATOM  =     27259.89416086
  Solvation  Ediel_sol  =         0.00000000
  ---------------------------------------------------
  free energy    TOTEN  =      -230.14677369 eV

  energy without entropy =     -230.12210131  energy(sigma->0) =     -230.13854957


--------------------------------------------------------------------------------------------------------




 average (electrostatic) potential at core
  the test charge radii are     0.6991  0.7215  1.2059
  (the norm of the test charge is              1.0000)
       1 -56.3758       2 -74.7097       3 -76.3167       4 -72.3089       5 -72.3099
       6 -72.3067       7 -72.2996       8 -72.3132       9 -72.3003      10 -72.2791
      11 -72.3043      12 -72.2852      13 -72.8185      14 -72.9699      15 -72.8993
      16 -73.0069      17 -72.9639      18 -73.0472      19 -73.0439      20 -73.0099
      21 -72.9810      22 -72.9865      23 -73.0360      24 -72.9690      25 -72.9705
      26 -72.9488      27 -73.0480      28 -72.9829      29 -72.9019      30 -72.9064
      31 -72.2758      32 -72.4507      33 -72.3864      34 -72.4187      35 -72.5407
      36 -73.3351      37 -72.4926      38 -73.1800      39 -72.4189
 
 
 
 E-fermi :   1.1133     XC(G=0):  -6.6138     alpha+bet : -6.8913


 k-point     1 :       0.0000    0.0000    0.0000
  band No.  band energies     occupation 
      1     -22.1893      2.00000
      2     -16.9198      2.00000
      3      -8.7497      2.00000
      4      -8.1499      2.00000
      5      -6.8312      2.00000
      6      -6.0545      2.00000
      7      -5.9283      2.00000
      8      -5.7973      2.00000
      9      -5.7263      2.00000
     10      -5.7002      2.00000
     11      -5.6904      2.00000
     12      -5.6482      2.00000
     13      -5.5863      2.00000
     14      -5.5701      2.00000
     15      -5.4859      2.00000
     16      -5.2980      2.00000
     17      -5.1297      2.00000
     18      -5.1131      2.00000
     19      -5.0735      2.00000
     20      -5.0557      2.00000
     21      -5.0368      2.00000
     22      -5.0242      2.00000
     23      -4.7286      2.00000
     24      -4.6467      2.00000
     25      -4.5948      2.00000
     26      -4.5854      2.00000
     27      -4.5492      2.00000
     28      -4.5322      2.00000
     29      -4.4365      2.00000
     30      -4.3935      2.00000
     31      -4.3781      2.00000
     32      -4.3459      2.00000
     33      -4.3217      2.00000
     34      -4.2758      2.00000
     35      -4.2036      2.00000
     36      -4.1667      2.00000
     37      -4.1574      2.00000
     38      -4.1269      2.00000
     39      -4.0926      2.00000
     40      -4.0765      2.00000
     41      -4.0709      2.00000
     42      -4.0557      2.00000
     43      -4.0371      2.00000
     44      -4.0233      2.00000
     45      -3.9915      2.00000
     46      -3.9657      2.00000
     47      -3.6056      2.00000
     48      -3.5831      2.00000
     49      -3.5076      2.00000
     50      -3.4422      2.00000
     51      -3.4317      2.00000
     52      -3.4167      2.00000
     53      -3.4119      2.00000
     54      -3.4012      2.00000
     55      -3.3579      2.00000
     56      -3.3380      2.00000
     57      -3.3037      2.00000
     58      -3.2130      2.00000
     59      -3.1776      2.00000
     60      -3.1254      2.00000
     61      -3.0035      2.00000
     62      -2.9166      2.00000
     63      -2.8788      2.00000
     64      -2.6539      2.00000
     65      -2.6354      2.00000
     66      -2.5931      2.00000
     67      -2.5487      2.00000
     68      -2.5093      2.00000
     69      -2.4862      2.00000
     70      -2.4613      2.00000
     71      -2.4527      2.00000
     72      -2.4291      2.00000
     73      -2.4090      2.00000
     74      -2.4010      2.00000
     75      -2.3908      2.00000
     76      -2.3792      2.00000
     77      -2.3668      2.00000
     78      -2.3585      2.00000
     79      -2.3465      2.00000
     80      -2.3353      2.00000
     81      -2.3301      2.00000
     82      -2.3106      2.00000
     83      -2.2689      2.00000
     84      -2.2408      2.00000
     85      -2.2013      2.00000
     86      -2.1534      2.00000
     87      -2.1319      2.00000
     88      -2.1065      2.00000
     89      -2.0971      2.00000
     90      -2.0770      2.00000
     91      -2.0594      2.00000
     92      -2.0421      2.00000
     93      -2.0020      2.00000
     94      -1.9936      2.00000
     95      -1.9834      2.00000
     96      -1.9252      2.00000
     97      -1.8735      2.00000
     98      -1.8594      2.00000
     99      -1.8234      2.00000
    100      -1.7921      2.00000
    101      -1.6531      2.00000
    102      -1.6152      2.00000
    103      -1.6081      2.00000
    104      -1.6027      2.00000
    105      -1.5885      2.00000
    106      -1.5489      2.00000
    107      -1.5225      2.00000
    108      -1.5159      2.00000
    109      -1.5065      2.00000
    110      -1.4733      2.00000
    111      -1.4685      2.00000
    112      -1.4647      2.00000
    113      -1.4399      2.00000
    114      -1.3402      2.00000
    115      -1.2610      2.00000
    116      -1.1815      2.00000
    117      -1.1203      2.00000
    118      -1.1015      2.00000
    119      -1.0412      2.00000
    120      -1.0277      2.00000
    121      -0.9960      2.00000
    122      -0.9510      2.00000
    123      -0.9280      2.00000
    124      -0.8796      2.00000
    125      -0.8327      2.00000
    126      -0.7876      2.00000
    127      -0.7739      2.00000
    128      -0.7548      2.00000
    129      -0.6794      2.00000
    130      -0.6691      2.00000
    131      -0.6484      2.00000
    132      -0.6291      2.00000
    133      -0.5717      2.00000
    134      -0.5697      2.00000
    135      -0.4811      2.00000
    136      -0.4565      2.00000
    137      -0.4034      2.00000
    138      -0.3741      2.00000
    139      -0.3529      2.00000
    140      -0.3474      2.00000
    141      -0.2712      2.00000
    142      -0.2421      2.00000
    143      -0.2229      2.00000
    144      -0.1948      2.00000
    145      -0.1440      2.00000
    146      -0.1322      2.00000
    147      -0.0881      2.00000
    148      -0.0519      2.00000
    149      -0.0227      2.00000
    150       0.0173      2.00000
    151       0.0822      2.00000
    152       0.0956      2.00000
    153       0.1178      2.00000
    154       0.1546      2.00000
    155       0.1570      2.00000
    156       0.1801      2.00000
    157       0.2059      2.00000
    158       0.2635      2.00000
    159       0.2746      2.00000
    160       0.2977      2.00000
    161       0.3190      2.00000
    162       0.3299      2.00000
    163       0.3537      2.00000
    164       0.3581      2.00000
    165       0.3750      2.00000
    166       0.3900      2.00000
    167       0.4162      2.00001
    168       0.4376      2.00002
    169       0.4725      2.00006
    170       0.4934      2.00011
    171       0.5092      2.00017
    172       0.5361      2.00035
    173       0.5938      2.00148
    174       0.6174      2.00254
    175       0.6438      2.00445
    176       0.6590      2.00605
    177       0.6760      2.00837
    178       0.6913      2.01104
    179       0.7179      2.01723
    180       0.7382      2.02343
    181       0.7508      2.02794
    182       0.7760      2.03830
    183       0.8181      2.05743
    184       0.8212      2.05877
    185       0.8372      2.06494
    186       0.8385      2.06536
    187       0.8439      2.06705
    188       0.8468      2.06784
    189       0.8598      2.07039
    190       0.8629      2.07070
    191       0.8729      2.07075
    192       0.8827      2.06916
    193       0.8890      2.06714
    194       0.9305      2.02747
    195       0.9795      1.89694
    196       1.1162      0.97517
    197       1.1290      0.86735
    198       1.2012      0.32944
    199       1.2265      0.19156
    200       1.2394      0.13328
    201       1.2570      0.06739
    202       1.2812      0.00105
    203       1.2996     -0.03300
    204       1.4547     -0.03649
    205       1.5141     -0.01576
    206       1.9818     -0.00000
    207       2.0490     -0.00000
    208       2.0909     -0.00000
    209       2.0975     -0.00000
    210       2.2264     -0.00000
    211       2.5352     -0.00000
    212       3.6275     -0.00000
    213       4.0467     -0.00000
    214       4.3525     -0.00000
    215       4.4276     -0.00000
    216       4.4706     -0.00000
    217       4.6106     -0.00000
    218       4.8589     -0.00000
    219       5.4523     -0.00000
    220       5.6445     -0.00000
    221       5.8833     -0.00000
    222       5.8894     -0.00000
    223       5.9275     -0.00000
    224       5.9508     -0.00000
    225       5.9956     -0.00000
    226       6.1480     -0.00000
    227       6.5585     -0.00000
    228       6.8065      0.00000

 k-point     2 :       0.5000    0.0000    0.0000
  band No.  band energies     occupation 
      1     -22.1891      2.00000
      2     -16.9194      2.00000
      3      -8.7389      2.00000
      4      -7.3012      2.00000
      5      -7.2646      2.00000
      6      -6.1539      2.00000
      7      -6.0553      2.00000
      8      -5.9221      2.00000
      9      -5.8822      2.00000
     10      -5.7318      2.00000
     11      -5.6049      2.00000
     12      -5.4635      2.00000
     13      -5.3800      2.00000
     14      -5.2833      2.00000
     15      -5.0303      2.00000
     16      -4.9510      2.00000
     17      -4.9426      2.00000
     18      -4.9220      2.00000
     19      -4.9157      2.00000
     20      -4.8722      2.00000
     21      -4.8478      2.00000
     22      -4.8110      2.00000
     23      -4.7904      2.00000
     24      -4.7716      2.00000
     25      -4.7460      2.00000
     26      -4.7398      2.00000
     27      -4.7218      2.00000
     28      -4.6580      2.00000
     29      -4.6319      2.00000
     30      -4.5716      2.00000
     31      -4.4137      2.00000
     32      -4.3801      2.00000
     33      -4.3689      2.00000
     34      -4.3042      2.00000
     35      -4.2859      2.00000
     36      -4.1480      2.00000
     37      -4.1012      2.00000
     38      -4.0383      2.00000
     39      -4.0299      2.00000
     40      -4.0055      2.00000
     41      -3.9651      2.00000
     42      -3.9400      2.00000
     43      -3.8833      2.00000
     44      -3.8072      2.00000
     45      -3.7762      2.00000
     46      -3.7068      2.00000
     47      -3.6698      2.00000
     48      -3.6629      2.00000
     49      -3.6359      2.00000
     50      -3.5888      2.00000
     51      -3.4768      2.00000
     52      -3.4392      2.00000
     53      -3.4182      2.00000
     54      -3.3771      2.00000
     55      -3.3632      2.00000
     56      -3.3414      2.00000
     57      -3.2613      2.00000
     58      -3.2473      2.00000
     59      -3.1841      2.00000
     60      -3.1409      2.00000
     61      -3.1177      2.00000
     62      -3.0888      2.00000
     63      -3.0530      2.00000
     64      -3.0203      2.00000
     65      -2.9912      2.00000
     66      -2.9473      2.00000
     67      -2.9037      2.00000
     68      -2.8641      2.00000
     69      -2.8530      2.00000
     70      -2.8030      2.00000
[...]
     89      -2.1497      2.00000
     90      -2.1389      2.00000
     91      -2.1330      2.00000
     92      -2.0886      2.00000
     93      -2.0223      2.00000
     94      -2.0005      2.00000
     95      -1.9468      2.00000
     96      -1.9257      2.00000
     97      -1.9063      2.00000
     98      -1.8625      2.00000
     99      -1.8555      2.00000
    100      -1.8088      2.00000
    101      -1.7678      2.00000
    102      -1.7543      2.00000
    103      -1.7315      2.00000
    104      -1.6986      2.00000
    105      -1.6826      2.00000
    106      -1.6656      2.00000
    107      -1.6480      2.00000
    108      -1.6248      2.00000
    109      -1.5587      2.00000
    110      -1.5472      2.00000
    111      -1.5255      2.00000
    112      -1.4628      2.00000
    113      -1.4179      2.00000
    114      -1.3698      2.00000
    115      -1.3049      2.00000
    116      -1.2489      2.00000
    117      -1.2128      2.00000
    118      -1.1864      2.00000
    119      -1.1182      2.00000
    120      -1.0711      2.00000
    121      -1.0364      2.00000
    122      -1.0289      2.00000
    123      -0.9996      2.00000
    124      -0.9963      2.00000
    125      -0.9625      2.00000
    126      -0.9451      2.00000
    127      -0.9310      2.00000
    128      -0.9234      2.00000
    129      -0.8765      2.00000
    130      -0.8733      2.00000
    131      -0.8261      2.00000
    132      -0.8076      2.00000
    133      -0.7476      2.00000
    134      -0.7208      2.00000
    135      -0.6893      2.00000
    136      -0.6756      2.00000
    137      -0.6629      2.00000
    138      -0.6346      2.00000
    139      -0.5837      2.00000
    140      -0.5300      2.00000
    141      -0.4762      2.00000
    142      -0.4465      2.00000
    143      -0.3942      2.00000
    144      -0.2867      2.00000
    145      -0.2614      2.00000
    146      -0.2000      2.00000
    147      -0.1481      2.00000
    148      -0.1028      2.00000
    149      -0.0879      2.00000
    150      -0.0667      2.00000
    151      -0.0049      2.00000
    152       0.0502      2.00000
    153       0.0609      2.00000
    154       0.0968      2.00000
    155       0.1210      2.00000
    156       0.1450      2.00000
    157       0.1598      2.00000
    158       0.1839      2.00000
    159       0.2116      2.00000
    160       0.2384      2.00000
    161       0.2925      2.00000
    162       0.3151      2.00000
    163       0.3532      2.00000
    164       0.3727      2.00000
    165       0.3934      2.00000
    166       0.4320      2.00001
    167       0.5304      2.00021
    168       0.5755      2.00069
    169       0.6442      2.00340
    170       0.6449      2.00345
    171       0.6718      2.00598
    172       0.7129      2.01271
    173       0.7332      2.01773
    174       0.8101      2.04770
    175       0.8204      2.05249
    176       0.8359      2.05931
    177       0.8765      2.07071
    178       0.9063      2.06547
    179       0.9503      2.01616
    180       0.9589      1.99855
    181       0.9645      1.98561
    182       1.0470      1.61866
    183       1.0731      1.43572
    184       1.1154      1.09550
    185       1.1260      1.00557
    186       1.1346      0.93269
    187       1.1630      0.69770
    188       1.1765      0.59212
    189       1.1788      0.57493
    190       1.2105      0.35474
    191       1.3439     -0.06381
    192       1.3546     -0.06843
    193       1.3957     -0.06715
    194       1.4143     -0.06059
    195       1.4624     -0.03898
    196       1.5106     -0.02055
    197       1.6032     -0.00385
    198       1.7600     -0.00007
    199       1.8511     -0.00000
    200       2.0215     -0.00000
    201       2.2879     -0.00000
    202       2.3507     -0.00000
    203       2.8160     -0.00000
    204       2.9502     -0.00000
    205       2.9784     -0.00000
    206       2.9998     -0.00000
    207       3.0197     -0.00000
    208       3.2516     -0.00000
    209       3.4229     -0.00000
    210       3.5398     -0.00000
    211       3.5798     -0.00000
    212       3.6443     -0.00000
    213       3.7705     -0.00000
    214       3.8365     -0.00000
    215       3.9945     -0.00000
    216       4.2087     -0.00000
    217       4.2553     -0.00000
    218       4.4243     -0.00000
    219       4.4663     -0.00000
    220       4.6523     -0.00000
    221       4.6698     -0.00000
    222       4.8667     -0.00000
    223       5.1556     -0.00000
    224       5.5368     -0.00000
    225       5.9702     -0.00000
    226       6.5615     -0.00000
    227       6.5876      0.00000
    228       6.6347      0.00000


--------------------------------------------------------------------------------------------------------


 soft charge-density along one line, spin component           1
         0         1         2         3         4         5         6         7         8         9
 total charge-density along one line
 
 pseudopotential strength for first ion, spin component:           1
 10.103   0.016   0.004   0.012  -0.000  -0.004  -0.010   0.000
  0.016  -0.002  -0.000  -0.000  -0.000  -0.000  -0.000   0.000
  0.004  -0.000  -4.248  -0.007   0.001  -0.011  -0.002   0.000
  0.012  -0.000  -0.007  -4.266   0.004  -0.002  -0.018   0.001
 -0.000  -0.000   0.001   0.004  -4.245   0.000   0.001  -0.010
 -0.004  -0.000  -0.011  -0.002   0.000  -0.770  -0.000   0.000
 -0.010  -0.000  -0.002  -0.018   0.001  -0.000  -0.770   0.000
  0.000   0.000   0.000   0.001  -0.010   0.000   0.000  -0.770
 total augmentation occupancy for first ion, spin component:           1
  1.642  -0.902   0.018   0.022  -0.060   0.033   0.091  -0.027
 -0.902   1.295  -0.209  -0.594   0.111  -0.084  -0.244   0.039
  0.018  -0.209   0.850   0.189   0.001   0.116   0.053  -0.006
  0.022  -0.594   0.189   1.354  -0.022   0.053   0.253  -0.013
 -0.060   0.111   0.001  -0.022   0.796  -0.006  -0.014   0.102
  0.033  -0.084   0.116   0.053  -0.006   0.020   0.021  -0.004
  0.091  -0.244   0.053   0.253  -0.014   0.021   0.073  -0.008
 -0.027   0.039  -0.006  -0.013   0.102  -0.004  -0.008   0.015


------------------------ aborting loop because EDIFF is reached ----------------------------------------


    CHARGE:  cpu time    0.6722: real time    0.6771
    FORLOC:  cpu time    0.0497: real time    0.0500
    FORNL :  cpu time    3.1748: real time    3.1978
    STRESS:  cpu time    9.5623: real time    9.6317
    FORCOR:  cpu time    0.2016: real time    0.2029
    FORHAR:  cpu time    0.0871: real time    0.0876
    MIXING:  cpu time    0.0061: real time    0.0077
    OFIELD:  cpu time    0.0001: real time    0.0001

  FORCE on cell =-STRESS in cart. coord.  units (eV):
  Direction    XX          YY          ZZ          XY          YZ          ZX
  --------------------------------------------------------------------------------------
  Alpha Z   975.10247   975.10247   975.10247
  Ewald  111696.07987111645.85648************  -205.18050   244.77960   -96.76574
  Hartree118450.51009118389.09901************  -136.12817   106.02507   -54.68636
  E(xc)   -1666.59503 -1666.41604 -1673.84993    -0.46711     0.67851    -0.24031
  Local  ************************240751.78420   330.29292  -328.04312   144.30723
  n-local   125.88779   124.68819    95.39238    -0.97477     0.95056     0.05901
  augment  1895.56079  1894.30129  1930.55517     2.71383    -3.95864     0.98703
  Kinetic  5525.90749  5519.06570  5599.11284    10.35007   -20.20981     6.71065
  Fock        0.00000     0.00000     0.00000     0.00000     0.00000     0.00000
  -------------------------------------------------------------------------------------
  Total     -33.49017   -35.89517     1.46879     0.60626     0.22216     0.37150
  in kB     -39.88735   -42.75174     1.74935     0.72206     0.26460     0.44246
  external pressure =      -26.96 kB  Pullay stress =        0.00 kB


 VOLUME and BASIS-vectors are now :
 -----------------------------------------------------------------------------
  energy-cutoff  :      450.00
  volume of cell :     1345.22
      direct lattice vectors                 reciprocal lattice vectors
     7.296955120 -4.212899000  0.000000000     0.137043463  0.000000000  0.000000000
     0.000000000  8.425798000  0.000000000     0.068521732  0.118683121  0.000000000
     0.000000000  0.000000000 21.879635000     0.000000000  0.000000000  0.045704602

  length of vectors
     8.425798004  8.425798000 21.879635000     0.137043463  0.137043463  0.045704602


 FORCES acting on ions
    electron-ion (+dipol)            ewald-force                    non-local-force                 convergence-correction
 -----------------------------------------------------------------------------------------------
   0.568E+01 0.123E+02 -.878E+03   -.623E+01 -.172E+02 0.864E+03   0.303E+00 0.331E+01 0.111E+02   -.161E-01 0.246E-01 0.678E-01
   -.831E+02 0.539E+02 -.160E+04   0.854E+02 -.514E+02 0.162E+04   -.172E+01 -.215E+01 -.228E+02   -.409E-02 0.255E-01 0.549E-01
   0.595E+02 -.102E+03 -.155E+04   -.691E+02 0.123E+03 0.161E+04   0.974E+01 -.203E+02 -.591E+02   0.892E-02 -.120E-01 -.914E-02
   -.268E+00 0.164E+01 0.234E+04   0.266E+00 -.163E+01 -.234E+04   -.557E-04 -.473E-01 -.120E+01   0.316E-01 -.247E-01 0.488E-02
   0.408E+00 0.970E+00 0.234E+04   -.477E+00 -.107E+01 -.234E+04   0.343E-02 -.203E-01 -.110E+01   0.703E-02 0.657E-01 0.279E-01
   0.121E+01 -.109E+00 0.234E+04   -.127E+01 0.136E+00 -.234E+04   0.318E-01 -.344E-01 -.113E+01   -.848E-02 0.112E-01 -.163E-02
   0.443E+00 -.502E+00 0.235E+04   -.412E+00 0.579E+00 -.235E+04   0.153E-01 0.310E-01 -.118E+01   -.343E-01 -.709E-01 -.318E-01
   -.374E+00 0.831E+00 0.235E+04   0.344E+00 -.713E+00 -.234E+04   0.161E-01 0.177E-01 -.128E+01   0.118E-01 -.104E+00 -.318E-02
   0.303E+00 0.316E+00 0.234E+04   -.175E+00 -.294E+00 -.234E+04   -.578E-02 0.680E-02 -.123E+01   -.876E-01 -.153E-01 0.169E-01
   -.170E+00 -.200E+01 0.234E+04   0.246E+00 0.178E+01 -.234E+04   -.865E-01 0.118E+00 -.109E+01   0.549E-01 0.384E-01 -.256E-01
   -.688E+00 -.149E+00 0.234E+04   0.651E+00 0.158E+00 -.234E+04   0.491E-05 -.992E-03 -.128E+01   0.288E-01 0.421E-02 -.129E-03
   -.817E+00 -.110E+01 0.234E+04   0.829E+00 0.105E+01 -.234E+04   -.469E-02 -.613E-02 -.104E+01   -.358E-02 0.955E-01 -.723E-03
   -.412E+01 -.129E+02 0.850E+03   0.399E+01 0.128E+02 -.849E+03   0.172E+00 0.146E+00 -.354E+00   0.297E-01 0.112E+00 0.272E-01
   0.438E+01 -.691E+01 0.864E+03   -.453E+01 0.692E+01 -.864E+03   0.153E-01 0.113E+00 -.249E+00   0.436E-01 0.296E-01 0.151E-01
   -.896E+01 0.425E+01 0.857E+03   0.905E+01 -.445E+01 -.857E+03   0.111E+00 0.698E-01 -.206E+00   0.172E-01 0.160E-01 -.320E-02
   0.206E+01 0.150E+02 0.865E+03   -.211E+01 -.151E+02 -.865E+03   -.950E-01 -.262E-01 -.443E+00   0.493E-01 -.605E-01 -.331E-01
   0.521E+01 0.728E+01 0.859E+03   -.529E+01 -.736E+01 -.859E+03   0.108E+00 -.108E+00 -.293E+00   -.558E-01 0.424E-01 0.123E-01
   0.493E+01 0.532E+00 0.874E+03   -.498E+01 -.506E+00 -.873E+03   0.110E-01 0.818E-01 -.577E+00   -.328E-01 -.504E-01 -.131E-01
   -.378E+01 -.315E+01 0.873E+03   0.385E+01 0.334E+01 -.873E+03   -.410E-01 -.792E-01 -.638E+00   0.306E-01 -.517E-01 0.267E-01
   -.426E+01 0.126E+00 0.869E+03   0.431E+01 0.177E-01 -.869E+03   0.531E-01 -.140E-01 -.555E+00   0.100E-02 -.721E-01 0.297E-01
   0.437E+01 -.395E+01 0.867E+03   -.422E+01 0.415E+01 -.867E+03   -.134E+00 -.133E+00 -.497E+00   -.829E-01 0.350E-01 0.612E-01
   -.917E+01 0.281E+01 -.623E+03   0.909E+01 -.286E+01 0.622E+03   0.236E+00 0.213E-01 0.101E+01   0.921E-02 -.271E-01 -.135E-01
   0.299E+01 0.238E+01 -.630E+03   -.304E+01 -.236E+01 0.629E+03   -.154E+00 -.619E-01 0.181E+00   0.583E-01 -.131E-01 0.588E-01
   0.570E+00 0.623E+01 -.629E+03   -.737E+00 -.587E+01 0.629E+03   0.190E+00 -.462E+00 0.692E+00   -.260E-01 -.196E-01 -.171E-01
   -.107E+02 0.230E+02 -.673E+03   0.102E+02 -.221E+02 0.674E+03   0.465E+00 -.110E+01 -.148E+01   0.252E-01 -.157E-01 0.413E-01
   0.159E+02 -.125E+02 -.663E+03   -.152E+02 0.124E+02 0.663E+03   -.752E+00 0.417E+00 -.739E+00   -.696E-02 0.204E-01 0.501E-01
   -.540E+01 -.199E+02 -.608E+03   0.528E+01 0.198E+02 0.608E+03   0.179E+00 0.124E+00 0.103E+01   -.136E-01 0.474E-01 0.436E-01
   -.977E+01 -.463E+01 -.637E+03   0.983E+01 0.461E+01 0.637E+03   0.225E+00 0.156E+00 -.253E-01   -.438E-01 -.258E-01 0.449E-01
   0.337E+01 0.979E+01 -.624E+03   -.344E+01 -.984E+01 0.623E+03   0.338E-02 -.140E+00 0.103E+01   0.437E-01 -.124E-01 -.573E-01
   0.986E+01 -.398E+01 -.643E+03   -.986E+01 0.372E+01 0.642E+03   -.146E+00 0.367E+00 0.327E-01   -.525E-01 0.434E-01 0.275E-01
   -.354E+02 -.130E+02 -.217E+04   0.357E+02 0.130E+02 0.217E+04   -.248E+00 0.140E-01 0.116E+01   0.289E-01 -.819E-02 0.340E-01
   0.158E+02 0.360E+02 -.213E+04   -.162E+02 -.364E+02 0.213E+04   0.507E+00 0.411E+00 0.182E+01   -.111E-01 -.411E-01 -.302E-01
   0.312E+02 -.118E+02 -.218E+04   -.315E+02 0.118E+02 0.218E+04   0.220E+00 0.124E+00 0.890E+00   -.682E-03 -.166E-01 0.210E-01
   0.578E+01 0.859E+01 -.219E+04   -.574E+01 -.881E+01 0.219E+04   -.162E+00 0.604E-01 0.114E+01   0.677E-02 0.237E-02 -.699E-02
   0.117E+02 0.187E+02 -.215E+04   -.119E+02 -.190E+02 0.215E+04   0.203E+00 0.254E+00 0.136E+01   -.121E-01 0.230E-01 -.307E-01
   0.708E+02 0.658E+02 -.200E+04   -.739E+02 -.638E+02 0.201E+04   0.285E+01 -.180E+01 -.289E+01   -.276E-01 0.264E-01 -.322E-02
   -.518E+02 -.542E+02 -.208E+04   0.533E+02 0.566E+02 0.208E+04   -.175E+01 -.246E+01 0.216E+01   0.619E-03 0.496E-01 0.278E-01
   -.516E+02 0.837E+02 -.203E+04   0.523E+02 -.846E+02 0.203E+04   -.757E+00 0.983E+00 -.354E+00   0.315E-01 -.505E-01 -.140E-01
   0.145E+02 -.784E+02 -.211E+04   -.144E+02 0.792E+02 0.210E+04   -.212E+00 -.501E+00 0.152E+01   0.746E-02 -.283E-02 -.266E-01
 -----------------------------------------------------------------------------------------------
   -.936E+01 0.228E+02 0.761E+02   0.746E-13 -.114E-12 0.273E-11   0.940E+01 -.226E+02 -.765E+02   0.638E-02 0.176E-01 0.372E+00
 
 
 POSITION                                       TOTAL-FORCE (eV/Angst)
 -----------------------------------------------------------------------------------
      5.08499      0.66450     10.41898        -0.260727     -1.585139     -2.481091
      6.62767     -0.51975     10.11452         0.577671      0.349281      0.259232
      4.92351      1.03415     11.48656         0.078901      0.791944      2.084455
      7.20031     -1.38846      1.62732         0.028111     -0.060361      0.137213
      2.33567      1.42014      1.62732        -0.059819     -0.056485      0.193169
      4.76799      0.01584      1.62732        -0.041759     -0.001221      0.181466
      7.20031      1.42015      1.62732         0.010073      0.033531      0.124633
      2.33567      4.22875      1.62732        -0.002508      0.026476      0.120504
      4.76799      2.82445      1.62732         0.033484      0.009332      0.133741
      2.33567      7.03734      1.62732         0.043511     -0.067076      0.052056
      4.76799      5.63304      1.62732        -0.010008      0.007981      0.090478
      7.20031      4.22874      1.62732         0.002398      0.044021      0.053211
      1.52490      0.01584      3.92052         0.067431      0.183794      0.060525
      3.95722     -1.38846      3.92052        -0.089622      0.146441     -0.154670
      6.38953     -2.79276      3.92052         0.210731     -0.116732     -0.059123
      1.52490      2.82445      3.92052        -0.097381     -0.205258     -0.165200
      3.95722      1.42015      3.92052        -0.025717     -0.148675      0.037362
      6.38953      0.01585      3.92052        -0.081539      0.053171     -0.240955
      1.52490      5.63305      3.92052         0.059865      0.054689     -0.416604
      3.95722      4.22874      3.92052         0.108287      0.053823     -0.326108
      6.38953      2.82445      3.92052        -0.067882      0.097450     -0.319149
      0.70710      4.22503      6.14643         0.163914     -0.059950      0.442043
      3.14770      5.62717      6.16862        -0.143268     -0.060700     -0.191468
      5.57664     -1.36627      6.16510        -0.003955     -0.119098      0.404828
      0.70518      1.46579      6.28251         0.025652     -0.224376     -0.663687
      3.17079     -0.00010      6.26206        -0.080804      0.328470     -0.614838
      0.70256      7.03757      6.13188         0.037897      0.037773      0.462178
      5.57350      4.21427      6.18886         0.235394      0.100032     -0.342665
      3.14594      2.82041      6.14570        -0.022221     -0.209105      0.516824
      5.59617      1.39143      6.20773        -0.191659      0.142718     -0.192677
      2.35446      4.19874      8.46223         0.152012      0.020260     -0.260429
      4.74633      5.62839      8.37657         0.066059     -0.047787      0.396839
      2.33599      1.39842      8.55313        -0.030234      0.143135     -0.414774
      7.21611      4.21039      8.48381        -0.114635     -0.165309      0.053557
      2.31901      7.01102      8.41146         0.055835     -0.024462      0.499146
      4.67570      0.06531      8.63876        -0.259225      0.163402      0.108601
      7.28579      1.44794      8.45360        -0.168802     -0.049355     -0.086222
      7.24759     -1.47315      8.52461        -0.049446      0.039635      0.413798
      4.79956      2.81777      8.42772        -0.156013      0.373730      0.103804
 -----------------------------------------------------------------------------------
    total drift:                                0.045538      0.158776     -0.041073
  FORCES: max atom, RMS     2.955749    0.674262
  Number: max atom                 1
  FORCE total and by dimension    4.210762    2.481091


--------------------------------------------------------------------------------------------------------



  FREE ENERGIE OF THE ION-ELECTRON SYSTEM (eV)
  ---------------------------------------------------
  free  energy   TOTEN  =      -230.45488540 eV

  energy  without entropy=     -230.42926810  energy(sigma->0) =     -230.44634630
 
 d Force = 0.8836323E-01[ 0.162E-01, 0.161E+00]  d Energy = 0.9117504E-01-0.281E-02
 d Force = 0.1679699E+02[ 0.166E+02, 0.170E+02]  d Ewald  = 0.1679851E+02-0.152E-02


--------------------------------------------------------------------------------------------------------


    POTLOK:  cpu time    0.1774: real time    0.2341


--------------------------------------------------------------------------------------------------------


 stress matrix after NEB project (eV)
    -33.49017      0.60626      0.37150
      0.60626    -35.89517      0.22216
      0.37150      0.22216      1.46879
  FORCES: max atom, RMS     2.955749    0.674262
  FORCE total and by dimension    4.210762    2.481091
  Stress total and by dimension   49.125570   35.895165
 Quasi-Newton relaxation of ions (Broydens 2nd method)
  g(Force)  = 0.342E+00   g(Stress)= 0.000E+00

 retain information from N=  2 steps
 eigenvalues of (default step * inverse Hessian matrix)
  average eigenvalue of G=   0.6461
 eigenvalue spectrum of G is  0.6461  0.6461
  RESET_HESSIAN           0


--------------------------------------------------------------------------------------------------------


    WAVPRE:  cpu time    0.0754: real time    0.1840
    FEWALD:  cpu time    0.0010: real time    0.0010

 real space projection operators:
  total allocation   :      13560.03 KBytes
  max/ min on nodes  :       6789.00       6771.03

    ORTHCH:  cpu time    1.1830: real time    1.1962
     LOOP+:  cpu time   97.9220: real time   99.0867


--------------------------------------- Iteration      4(   1)  ---------------------------------------


    POTLOK:  cpu time    0.1676: real time    0.2543
    SETDIJ:  cpu time    0.0107: real time    0.0108
