 vasp.5.4.4 16052018 (build Apr 24 2014 20:13:14) complex standard
 Contain Constrained Minimization Technique (TS), Periodic NBO, VASPsol, libbeef, VASP2WANNIER90, Constrained Cell Relaxation
 executed on Center for Computational Chemistry by phu@node06 date 2025.09.27 23:44:23
 running on    8 total cores
 distrk:  each k-point on    8 cores,    1 groups
 distr:  one band on NCORES_PER_BAND=   2 cores,    4 groups


--------------------------------------------------------------------------------------------------------


 INCAR:
 POTCAR:   PAW_PBE C 08Apr2002                    
 POTCAR:   PAW_PBE O 08Apr2002                    
 POTCAR:    PAW_PBE Pt 04Feb2005                  
 POTCAR:   PAW_PBE C 08Apr2002                    
   VRHFIN =C: s2p2                                                              
   LEXCH  = PE                                                                  
   EATOM  =   147.1560 eV,   10.8157 Ry                                         
                                                                                
   TITEL  = PAW_PBE C 08Apr2002                                                 
   LULTRA =        F    use ultrasoft PP ?                                      
   IUNSCR =        0    unscreen: 0-lin 1-nonlin 2-no                           
   RPACOR =     .000    partial core radius                                     
   POMASS =   12.011; ZVAL   =    4.000    mass and valenz                      
   RCORE  =    1.500    outmost cutoff radius                                   
   RWIGS  =    1.630; RWIGS  =     .863    wigner-seitz radius (au A)           
   ENMAX  =  400.000; ENMIN  =  300.000 eV                                      
   ICORE  =        2    local potential                                         
   LCOR   =        T    correct aug charges                                     
   LPAW   =        T    paw PP                                                  
   EAUG   =  644.873                                                            
   DEXC   =     .000                                                            
   RMAX   =    2.266    core radius for proj-oper                               
   RAUG   =    1.300    factor for augmentation sphere                          
   RDEP   =    1.501    radius for radial grids                                 
   RDEPT  =    1.300    core radius for aug-charge                              
   QCUT   =   -5.516; QGAM   =   11.032    optimization parameters              
                                                                                
   Description                                                                  
     l     E      TYP  RCUT    TYP  RCUT                                        
     0   .000     23  1.200                                                     
     0   .000     23  1.200                                                     
     1   .000     23  1.500                                                     
     1  2.500     23  1.500                                                     
     2   .000      7  1.500                                                     
  local pseudopotential read in
  atomic valenz-charges read in
  non local Contribution for L=           0  read in
    real space projection operators read in
  non local Contribution for L=           0  read in
    real space projection operators read in
  non local Contribution for L=           1  read in
    real space projection operators read in
  non local Contribution for L=           1  read in
    real space projection operators read in
    PAW grid and wavefunctions read in
 
   number of l-projection  operators is LMAX  =           4
   number of lm-projection operators is LMMAX =           8
 
 POTCAR:   PAW_PBE O 08Apr2002                    
   VRHFIN =O: s2p4                                                              
   LEXCH  = PE                                                                  
   EATOM  =   432.3788 eV,   31.7789 Ry                                         
                                                                                
   TITEL  = PAW_PBE O 08Apr2002                                                 
   LULTRA =        F    use ultrasoft PP ?                                      
   IUNSCR =        0    unscreen: 0-lin 1-nonlin 2-no                           
   RPACOR =     .000    partial core radius                                     
   POMASS =   16.000; ZVAL   =    6.000    mass and valenz                      
   RCORE  =    1.520    outmost cutoff radius                                   
   RWIGS  =    1.550; RWIGS  =     .820    wigner-seitz radius (au A)           
   ENMAX  =  400.000; ENMIN  =  300.000 eV                                      
   ICORE  =        2    local potential                                         
   LCOR   =        T    correct aug charges                                     
   LPAW   =        T    paw PP                                                  
   EAUG   =  605.392                                                            
   DEXC   =     .000                                                            
   RMAX   =    2.264    core radius for proj-oper                               
   RAUG   =    1.300    factor for augmentation sphere                          
   RDEP   =    1.550    radius for radial grids                                 
   QCUT   =   -5.520; QGAM   =   11.041    optimization parameters              
                                                                                
   Description                                                                  
     l     E      TYP  RCUT    TYP  RCUT                                        
     0   .000     23  1.200                                                     
     0  -.700     23  1.200                                                     
     1   .000     23  1.520                                                     
     1   .600     23  1.520                                                     
     2   .000      7  1.500                                                     
  local pseudopotential read in
  atomic valenz-charges read in
  non local Contribution for L=           0  read in
    real space projection operators read in
  non local Contribution for L=           0  read in
    real space projection operators read in
  non local Contribution for L=           1  read in
    real space projection operators read in
  non local Contribution for L=           1  read in
    real space projection operators read in
    PAW grid and wavefunctions read in
 
   number of l-projection  operators is LMAX  =           4
   number of lm-projection operators is LMMAX =           8
 
 POTCAR:    PAW_PBE Pt 04Feb2005                  
   VRHFIN =Pt: s1d9                                                             
   LEXCH  = PE                                                                  
   EATOM  =   729.1182 eV,   53.5887 Ry                                         
                                                                                
   TITEL  = PAW_PBE Pt 04Feb2005                                                
   LULTRA =        F    use ultrasoft PP ?                                      
   IUNSCR =        1    unscreen: 0-lin 1-nonlin 2-no                           
   RPACOR =    2.330    partial core radius                                     
   POMASS =  195.080; ZVAL   =   10.000    mass and valenz                      
   RCORE  =    2.600    outmost cutoff radius                                   
   RWIGS  =    2.750; RWIGS  =    1.455    wigner-seitz radius (au A)           
   ENMAX  =  230.283; ENMIN  =  172.712 eV                                      
   ICORE  =        3    local potential                                         
   LCOR   =        T    correct aug charges                                     
   LPAW   =        T    paw PP                                                  
   EAUG   =  358.966                                                            
   DEXC   =     .000                                                            
   RMAX   =    3.038    core radius for proj-oper                               
   RAUG   =    1.300    factor for augmentation sphere                          
   RDEP   =    2.761    radius for radial grids                                 
   QCUT   =   -4.114; QGAM   =    8.228    optimization parameters              
                                                                                
   Description                                                                  
     l     E      TYP  RCUT    TYP  RCUT                                        
     2   .000     23  2.500                                                     
     2   .000     23  2.500                                                     
     0   .000     23  2.500                                                     
     0   .000     23  2.500                                                     
     1  -.200     23  2.600                                                     
     1  1.500     23  2.600                                                     
     3   .000     23  2.500                                                     
  local pseudopotential read in
  partial core-charges read in
  atomic valenz-charges read in
  non local Contribution for L=           2  read in
    real space projection operators read in
  non local Contribution for L=           2  read in
    real space projection operators read in
  non local Contribution for L=           0  read in
    real space projection operators read in
  non local Contribution for L=           0  read in
    real space projection operators read in
  non local Contribution for L=           1  read in
    real space projection operators read in
  non local Contribution for L=           1  read in
    real space projection operators read in
    PAW grid and wavefunctions read in
 
   number of l-projection  operators is LMAX  =           6
   number of lm-projection operators is LMMAX =          18
 
 Optimization of the real space projectors (new method)

 maximal supplied QI-value         = 25.13
 optimisation between [QCUT,QGAM] = [ 10.81, 21.61] = [ 32.71,130.83] Ry 
 Optimized for a Real-space Cutoff    1.23 Angstroem

   l    n(q)    QCUT    max X(q) W(low)/X(q) W(high)/X(q)  e(spline) 
   0      8    10.807     5.582    0.53E-04    0.84E-04    0.44E-07
   0      8    10.807    69.432    0.35E-03    0.71E-03    0.24E-06
   1      7    10.807     2.780    0.44E-04    0.88E-04    0.89E-07
   1      7    10.807     4.549    0.14E-03    0.28E-03    0.13E-06
 Optimization of the real space projectors (new method)

 maximal supplied QI-value         = 24.76
 optimisation between [QCUT,QGAM] = [ 10.64, 21.54] = [ 31.73,129.89] Ry 
 Optimized for a Real-space Cutoff    1.23 Angstroem

   l    n(q)    QCUT    max X(q) W(low)/X(q) W(high)/X(q)  e(spline) 
   0      8    10.645     4.192    0.69E-04    0.93E-04    0.58E-07
   0      8    10.645     8.473    0.40E-03    0.65E-03    0.17E-06
   1      7    10.645     2.474    0.80E-04    0.12E-03    0.30E-07
   1      7    10.645     3.912    0.24E-03    0.53E-03    0.16E-06
 Optimization of the real space projectors (new method)

 maximal supplied QI-value         = 14.36
 optimisation between [QCUT,QGAM] = [ 10.77, 21.69] = [ 32.49,131.70] Ry 
 Optimized for a Real-space Cutoff    1.46 Angstroem

   l    n(q)    QCUT    max X(q) W(low)/X(q) W(high)/X(q)  e(spline) 
   2      9    10.771     3.903    0.38E-04    0.12E-03    0.82E-07
   2      9    10.771    18.372    0.13E-03    0.32E-03    0.28E-06
   0     10    10.771    13.697    0.11E-04    0.86E-05    0.85E-08
   0     10    10.771    65.529    0.40E-04    0.12E-03    0.14E-06
   1      9    10.771     7.604    0.48E-04    0.31E-04    0.38E-07
   1      9    10.771    12.136    0.35E-03    0.16E-03    0.23E-06
 PAW_PBE C 08Apr2002                    :
 energy of atom  1       EATOM= -147.1560
 kinetic energy error for atom=    0.0116 (will be added to EATOM!!)
 PAW_PBE O 08Apr2002                    :
 energy of atom  2       EATOM= -432.3788
 kinetic energy error for atom=    0.0389 (will be added to EATOM!!)
  PAW_PBE Pt 04Feb2005                  :
 energy of atom  3       EATOM= -729.1182
 kinetic energy error for atom=    0.0051 (will be added to EATOM!!)
 
 
 POSCAR: C    O    Pt                            
  positions in direct lattice
  No initial velocities read in
 exchange correlation table for  LEXCH =        8
   RHO(1)=    0.500       N(1)  =     2000
   RHO(2)=  100.500       N(2)  =     4000

 VTST: version 3.2, (02/03/18)

 CHAIN: initializing optimizer
 
 OPT: Using VASP QUASI-newton optimizer
 CHAIN: Read ICHAIN            0
 
 POSCAR: C    O    Pt                            
  positions in direct lattice
  No initial velocities read in
 


--------------------------------------------------------------------------------------------------------


 ion  position               nearest neighbor table
   1  0.701  0.437  0.472-   3 1.16  36 1.93   2 1.99  39 2.73
   2  0.907  0.388  0.462-  38 1.91   1 1.99  36 2.52  37 2.68
   3  0.672  0.464  0.522-   1 1.16
   4  0.987  0.329  0.074-  15 2.81  16 2.81  12 2.81   5 2.81  11 2.81   6 2.81  18 2.81   8 2.81
                             7 2.81
   5  0.320  0.329  0.074-  13 2.81  10 2.81   4 2.81  12 2.81  16 2.81  17 2.81   8 2.81   9 2.81
                             6 2.81
   6  0.653  0.329  0.074-  14 2.81  18 2.81  11 2.81   4 2.81  17 2.81   7 2.81  10 2.81   9 2.81
                             5 2.81
   7  0.987  0.662  0.074-  18 2.81  21 2.81  19 2.81  12 2.81   8 2.81  10 2.81   9 2.81   6 2.81
                             4 2.81
   8  0.320  0.662  0.074-  16 2.81  19 2.81  10 2.81   7 2.81  20 2.81   4 2.81  11 2.81   5 2.81
                             9 2.81
   9  0.653  0.662  0.074-  17 2.81  20 2.81  21 2.81  11 2.81  12 2.81   7 2.81   6 2.81   5 2.81
                             8 2.81
  10  0.320  0.995  0.074-  13 2.81  19 2.81   5 2.81   8 2.81  12 2.81   7 2.81  14 2.81   6 2.81
                            11 2.81
  11  0.653  0.995  0.074-  14 2.81  20 2.81  15 2.81   9 2.81   6 2.81  12 2.81   4 2.81   8 2.81
                            10 2.81
  12  0.987  0.995  0.074-  15 2.81  21 2.81  13 2.81   7 2.81   4 2.81  10 2.81   5 2.81  11 2.81
                             9 2.81
  13  0.209  0.106  0.179-  27 2.79  26 2.80   5 2.81  10 2.81  12 2.81  19 2.81  15 2.81  21 2.81
                            16 2.81  14 2.81  17 2.81  25 2.82
  14  0.542  0.106  0.179-  26 2.79  11 2.81   6 2.81  20 2.81  15 2.81  10 2.81  18 2.81  19 2.81
                            17 2.81  13 2.81  24 2.82  23 2.83
  15  0.876  0.106  0.179-  28 2.74  25 2.77  24 2.79  12 2.81   4 2.81  11 2.81  21 2.81  13 2.81
                            14 2.81  20 2.81  16 2.81  18 2.81
  16  0.209  0.440  0.179-  22 2.70  29 2.76  25 2.79   8 2.81   4 2.81  19 2.81  18 2.81   5 2.81
                            15 2.81  20 2.81  13 2.81  17 2.81
  17  0.542  0.440  0.179-  30 2.73  29 2.75   9 2.81  20 2.81  21 2.81  18 2.81   6 2.81   5 2.81
                            14 2.81  16 2.81  13 2.81  26 2.82
  18  0.876  0.440  0.179-  22 2.74  30 2.75   7 2.81   6 2.81  21 2.81  19 2.81  16 2.81  17 2.81
                             4 2.81  14 2.81  15 2.81  24 2.82
  19  0.209  0.773  0.179-  22 2.74  27 2.75   8 2.81  10 2.81   7 2.81  16 2.81  13 2.81  18 2.81
                            21 2.81  14 2.81  20 2.81  23 2.86
  20  0.542  0.773  0.179-  28 2.72  29 2.75   9 2.81  11 2.81  17 2.81  14 2.81  15 2.81  21 2.81
                             8 2.81  16 2.81  19 2.81  23 2.83
  21  0.876  0.773  0.179-  28 2.71  30 2.75  27 2.77  12 2.81   7 2.81   9 2.81  18 2.81  15 2.81
                            19 2.81  13 2.81  17 2.81  20 2.81
  22  0.102  0.548  0.279-  16 2.70  19 2.74  18 2.74  25 2.75  29 2.78  27 2.81  24 2.81  37 2.82
                            23 2.84  30 2.88  31 2.89  38 3.01
  23  0.436  0.887  0.286-  32 2.63  35 2.68  31 2.77  26 2.78  24 2.79  28 2.80  27 2.81  29 2.82
                            14 2.83  20 2.83  22 2.84  19 2.86
  24  0.767  0.216  0.284-  25 2.73  32 2.73  23 2.79  15 2.79  22 2.81  18 2.82  14 2.82  28 2.82
                            26 2.83  30 2.83  36 2.91  38 2.93
  25  0.091  0.217  0.283-  24 2.73  22 2.75  15 2.77  33 2.77  16 2.79  38 2.80  28 2.80  13 2.82
                            29 2.85  26 2.87  27 2.88  34 2.89
  26  0.430  0.213  0.284-  35 2.70  33 2.73  23 2.78  14 2.79  13 2.80  27 2.80  30 2.81  17 2.82
                            24 2.83  29 2.84  36 2.85  25 2.87
  27  0.098  0.879  0.282-  37 2.73  19 2.75  21 2.77  35 2.78  13 2.79  26 2.80  22 2.81  23 2.81
                            30 2.82  28 2.82  25 2.88  34 2.91
  28  0.764  0.880  0.279-  21 2.71  20 2.72  15 2.74  32 2.77  30 2.77  29 2.78  23 2.80  25 2.80
                            27 2.82  24 2.82  39 2.97  34 2.98
  29  0.433  0.551  0.281-  17 2.75  20 2.75  16 2.76  30 2.77  22 2.78  28 2.78  23 2.82  33 2.83
                            26 2.84  25 2.85  31 2.87  39 2.96
  30  0.761  0.549  0.280-  17 2.73  21 2.75  18 2.75  28 2.77  29 2.77  26 2.81  27 2.82  24 2.83
                            37 2.87  22 2.88  36 2.96  39 2.96
  31  0.324  0.666  0.389-  32 2.73  37 2.75  23 2.77  35 2.78  39 2.80  38 2.84  29 2.87  33 2.89
                            22 2.89
  32  0.650  0.986  0.382-  23 2.63  24 2.73  31 2.73  39 2.75  28 2.77  35 2.78  34 2.85  36 2.87
                            38 2.88
  33  0.318  0.320  0.385-  38 2.69  26 2.73  36 2.74  34 2.76  35 2.76  25 2.77  29 2.83  39 2.88
                            31 2.89
  34  0.991  0.994  0.392-  38 2.70  33 2.76  37 2.79  39 2.81  35 2.82  32 2.85  25 2.89  27 2.91
                            28 2.98
  35  0.326  0.997  0.384-  23 2.68  26 2.70  36 2.71  33 2.76  37 2.77  31 2.78  27 2.78  32 2.78
                            34 2.82
  36  0.643  0.322  0.393-   1 1.93   2 2.52  35 2.71  33 2.74  39 2.83  26 2.85  32 2.87  24 2.91
                            37 2.96  30 2.96  38 3.01
  37  0.998  0.667  0.385-   2 2.68  27 2.73  31 2.75  35 2.77  34 2.79  22 2.82  30 2.87  39 2.89
                            38 2.95  36 2.96
  38  0.998  0.318  0.393-   2 1.91  33 2.69  34 2.70  25 2.80  31 2.84  32 2.88  24 2.93  37 2.95
                            22 3.01  36 3.01
  39  0.655  0.664  0.394-   1 2.73  32 2.75  31 2.80  34 2.81  36 2.83  33 2.88  37 2.89  29 2.96
                            30 2.96  28 2.97
 

IMPORTANT INFORMATION: All symmetrisations will be switched off!
NOSYMM: (Re-)initialisation of all symmetry stuff for point group C_1.

 
 
 KPOINTS: mesh auto                               

Automatic generation of k-mesh.
Space group operators:
 irot       det(A)        alpha          n_x          n_y          n_z        tau_x        tau_y        tau_z
    1     1.000000     0.000000     1.000000     0.000000     0.000000     0.000000     0.000000     0.000000
 
 Subroutine IBZKPT returns following result:
 ===========================================
 
 Found      4 irreducible k-points:
 
 Following reciprocal coordinates:
            Coordinates               Weight
  0.000000  0.000000  0.000000      1.000000
  0.500000  0.000000  0.000000      1.000000
 -0.000000  0.500000  0.000000      1.000000
  0.500000  0.500000  0.000000      1.000000
 
 Following cartesian coordinates:
            Coordinates               Weight
  0.000000  0.000000  0.000000      1.000000
  0.068522  0.000000  0.000000      1.000000
  0.034261  0.059342  0.000000      1.000000
  0.102783  0.059342  0.000000      1.000000
 


--------------------------------------------------------------------------------------------------------




 Dimension of arrays:
   k-points           NKPTS =      4   k-points in BZ     NKDIM =      4   number of bands    NBANDS=    228
   number of dos      NEDOS =    301   number of ions     NIONS =     39
   non local maximal  LDIM  =      6   non local SUM 2l+1 LMDIM =     18
   total plane-waves  NPLWV = 276480
   max r-space proj   IRMAX =   2756   max aug-charges    IRDMAX=  12646
   dimension x,y,z NGX =    48 NGY =   48 NGZ =  120
   dimension x,y,z NGXF=    96 NGYF=   96 NGZF=  240
   support grid    NGXF=    96 NGYF=   96 NGZF=  240
   ions per type =               1   2  36
   NGX,Y,Z   is equivalent  to a cutoff of   9.47,  9.47,  9.12 a.u.
   NGXF,Y,Z  is equivalent  to a cutoff of  18.94, 18.94, 18.24 a.u.

 SYSTEM =  metal                                   
 POSCAR =  C    O    Pt                            

 Startparameter for this run:
   NWRITE =      2    write-flag & timer
   PREC   = normal    normal or accurate (medium, high low for compatibility)
   ISTART =      0    job   : 0-new  1-cont  2-samecut
   ICHARG =      2    charge: 1-file 2-atom 10-const
   ISPIN  =      1    spin polarized calculation?
   LNONCOLLINEAR =      F non collinear calculations
   LSORBIT =      F    spin-orbit coupling
   INIWAV =      1    electr: 0-lowe 1-rand  2-diag
   LASPH  =      F    aspherical Exc in radial PAW
   METAGGA=      F    non-selfconsistent MetaGGA calc.

 Electronic Relaxation 1
   ENCUT  =  450.0 eV  33.07 Ry    5.75 a.u.  14.57 14.57 37.84*2*pi/ulx,y,z
   ENINI  =  450.0     initial cutoff
   ENAUG  =  644.9 eV  augmentation charge cutoff
   NELM   =     60;   NELMIN=  8; NELMDL= -5     # of ELM steps 
   EDIFF  = 0.1E-03   stopping-criterion for ELM
   LREAL  =      T    real-space projection
   NLSPLINE    = F    spline interpolate recip. space projectors
   LCOMPAT=      F    compatible to vasp.4.4
   GGA_COMPAT  = T    GGA compatible to vasp.4.4-vasp.4.6
   LMAXPAW     = -100 max onsite density
   LMAXMIX     =    2 max onsite mixed and CHGCAR
   VOSKOWN=      0    Vosko Wilk Nusair interpolation
   ROPT   =   -0.00050  -0.00050  -0.00050
 Ionic relaxation
   EDIFFG = -.5E-01   stopping-criterion for IOM
   NSW    =   5000    number of steps for IOM
   NBLOCK =      1;   KBLOCK =   5000    inner block; outer block 
   IBRION =      1    ionic relax: 0-MD 1-quasi-New 2-CG
   NFREE  =      0    steps in history (QN), initial steepest desc. (CG)
   ISIF   =      2    stress and relaxation
   IWAVPR =     11    prediction:  0-non 1-charg 2-wave 3-comb
   ISYM   =      0    0-nonsym 1-usesym 2-fastsym
   LCORR  =      T    Harris-Foulkes like correction to forces

   POTIM  = 0.2000    time-step for ionic-motion
   TEIN   =    0.0    initial temperature
   TEBEG  =    0.0;   TEEND  =   0.0 temperature during run
   SMASS  =  -3.00    Nose mass-parameter (am)
   estimated Nose-frequenzy (Omega)   =  0.10E-29 period in steps =****** mass=  -0.162E-26a.u.
   SCALEE = 1.0000    scale energy and forces
   NPACO  =    256;   APACO  = 16.0  distance and # of slots for P.C.
   PSTRESS=    0.0 pullay stress

  Mass of Ions in am
   POMASS =  12.01 16.00195.08
  Ionic Valenz
   ZVAL   =   4.00  6.00 10.00
  Atomic Wigner-Seitz radii
   RWIGS  =  -1.00 -1.00 -1.00
  virtual crystal weights 
   VCA    =   1.00  1.00  1.00
   NELECT =     376.0000    total number of electrons
   NUPDOWN=      -1.0000    fix difference up-down

 DOS related values:
   EMIN   =  10.00;   EMAX   =-10.00  energy-range for DOS
   EFERMI =   0.00
   ISMEAR =     1;   SIGMA  =   0.20  broadening in eV -4-tet -1-fermi 0-gaus

 Electronic relaxation 2 (details)
   IALGO  =     68    algorithm
   LDIAG  =      T    sub-space diagonalisation (order eigenvalues)
   LSUBROT=      F    optimize rotation matrix (better conditioning)
   TURBO    =      0    0=normal 1=particle mesh
   IRESTART =      0    0=no restart 2=restart with 2 vectors
   NREBOOT  =      0    no. of reboots
   NMIN     =      0    reboot dimension
   EREF     =   0.00    reference energy to select bands
   IMIX   =      4    mixing-type and parameters
     AMIX     =   0.40;   BMIX     =  1.00
     AMIX_MAG =   1.60;   BMIX_MAG =  1.00
     AMIN     =   0.10
     WC   =   100.;   INIMIX=   1;  MIXPRE=   1;  MAXMIX= -45

 Intra band minimization:
   WEIMIN = 0.0010     energy-eigenvalue tresh-hold
   EBREAK =  0.11E-06  absolut break condition
   DEPER  =   0.30     relativ break condition  

   TIME   =   0.40     timestep for ELM

  volume/ion in A,a.u.               =      34.49       232.77
  Fermi-wavevector in a.u.,A,eV,Ry     =   1.070385  2.022734 15.588510  1.145723
  Thomas-Fermi vector in A             =   2.206093
 
 Write flags
   LWAVE        =      F    write WAVECAR
   LDOWNSAMPLE  =      F    k-point downsampling of WAVECAR
   LCHARG       =      F    write CHGCAR
   LVTOT        =      F    write LOCPOT, total local potential
   LVHAR        =      F    write LOCPOT, Hartree potential only
   LELF         =      F    write electronic localiz. function (ELF)
   LORBIT       =      0    0 simple, 1 ext, 2 COOP (PROOUT), +10 PAW based schemes


 Dipole corrections
   LMONO  =      F    monopole corrections only (constant potential shift)
   LDIPOL =      F    correct potential (dipole corrections)
   IDIPOL =      0    1-x, 2-y, 3-z, 4-all directions 
   EPSILON=  1.0000000 bulk dielectric constant

 Exchange correlation treatment:
   GGA     =    --    GGA type
   LEXCH   =     8    internal setting for exchange type
   VOSKOWN=      0    Vosko Wilk Nusair interpolation
   LHFCALC =     F    Hartree Fock is set to
   LHFONE  =     F    Hartree Fock one center treatment
   AEXX    =    0.0000 exact exchange contribution

 Linear response parameters
   LEPSILON=     F    determine dielectric tensor
   LRPA    =     F    only Hartree local field effects (RPA)
   LNABLA  =     F    use nabla operator in PAW spheres
   LVEL    =     F    velocity operator in full k-point grid
   LINTERFAST=   F  fast interpolation
   KINTER  =     0    interpolate to denser k-point grid
   CSHIFT  =0.1000    complex shift for real part using Kramers Kronig
   OMEGAMAX=  -1.0    maximum frequency
   DEG_THRESHOLD= 0.2000000E-02 threshold for treating states as degnerate
   RTIME   =   -0.100 relaxation time in fs
  (WPLASMAI=    0.000 imaginary part of plasma frequency in eV, 0.658/RTIME)
   DFIELD  = 0.0000000 0.0000000 0.0000000 field for delta impulse in time
 
 Orbital magnetization related:
   ORBITALMAG=     F  switch on orbital magnetization
   LCHIMAG   =     F  perturbation theory with respect to B field
   DQ        =  0.001000  dq finite difference perturbation B field
   LLRAUG    =     F  two centre corrections for induced B field



--------------------------------------------------------------------------------------------------------


 quasi-Newton-method for relaxation of ions
   using selective dynamics as specified on POSCAR
 charge density and potential will be updated during run
 non-spin polarized calculation
 RMM-DIIS sequential band-by-band and
  variant of blocked Davidson during initial phase
 perform sub-space diagonalisation
    before iterative eigenvector-optimisation
 modified Broyden-mixing scheme, WC =      100.0
 initial mixing is a Kerker type mixing with AMIX =  0.4000 and BMIX =      1.0000
 Hartree-type preconditioning will be used
 using additional bands           40
 real space projection scheme for non local part
 use partial core corrections
 calculate Harris-corrections to forces 
   (improved forces if not selfconsistent)
 use gradient corrections 
 use of overlap-Matrix (Vanderbilt PP)
 Methfessel and Paxton  Order N= 1 SIGMA  =   0.20


--------------------------------------------------------------------------------------------------------


  energy-cutoff  :      450.00
  volume of cell :     1345.22
      direct lattice vectors                 reciprocal lattice vectors
     7.296955120 -4.212899000  0.000000000     0.137043463  0.000000000  0.000000000
     0.000000000  8.425798000  0.000000000     0.068521732  0.118683121  0.000000000
     0.000000000  0.000000000 21.879635000     0.000000000  0.000000000  0.045704602

  length of vectors
     8.425798004  8.425798000 21.879635000     0.137043463  0.137043463  0.045704602


 
 k-points in units of 2pi/SCALE and weight: mesh auto                               
   0.00000000  0.00000000  0.00000000       0.250
   0.06852173  0.00000000  0.00000000       0.250
   0.03426087  0.05934156  0.00000000       0.250
   0.10278260  0.05934156  0.00000000       0.250
 
 k-points in reciprocal lattice and weights: mesh auto                               
   0.00000000  0.00000000  0.00000000       0.250
   0.50000000  0.00000000  0.00000000       0.250
  -0.00000000  0.50000000  0.00000000       0.250
   0.50000000  0.50000000  0.00000000       0.250
 
 position of ions in fractional coordinates (direct lattice) 
   0.70060728  0.43667009  0.47220526
   0.90731349  0.38787327  0.46229182
   0.67247074  0.46352597  0.52209379
   0.98675500  0.32859100  0.07437600
   0.32008800  0.32859100  0.07437600
   0.65342200  0.32859100  0.07437600
   0.98675500  0.66192500  0.07437600
   0.32008800  0.66192500  0.07437600
   0.65342200  0.66192500  0.07437600
   0.32008800  0.99525800  0.07437600
   0.65342200  0.99525800  0.07437600
   0.98675500  0.99525800  0.07437600
   0.20897700  0.10636900  0.17918600
   0.54231100  0.10636900  0.17918600
   0.87564400  0.10636900  0.17918600
   0.20897700  0.43970300  0.17918600
   0.54231100  0.43970300  0.17918600
   0.87564400  0.43970300  0.17918600
   0.20897700  0.77303600  0.17918600
   0.54231100  0.77303600  0.17918600
   0.87564400  0.77303600  0.17918600
   0.10154973  0.54804256  0.27924354
   0.43554630  0.88666997  0.28562959
   0.76721541  0.21619760  0.28409539
   0.09132062  0.21740020  0.28313183
   0.42970220  0.21317863  0.28359688
   0.09829488  0.87944858  0.28196202
   0.76415631  0.87979839  0.27915953
   0.43261690  0.55131990  0.28077376
   0.76064159  0.54907622  0.28040097
   0.32375230  0.66612403  0.38880663
   0.65004209  0.98590680  0.38219969
   0.31785999  0.32013118  0.38459017
   0.99073288  0.99390574  0.39221422
   0.32562972  0.99669797  0.38391936
   0.64277610  0.32206334  0.39259152
   0.99815367  0.66709867  0.38473940
   0.99834402  0.31811067  0.39342632
   0.65470571  0.66391914  0.39412229
 
 position of ions in cartesian coordinates  (Angst):
   5.11229989  0.72770622 10.33167873
   6.62062582 -0.55427829 10.11477625
   4.90698879  1.07252488 11.42322160
   7.20030695 -1.38845776  1.62731973
   2.33566777  1.42014298  1.62731973
   4.76799101  0.01584050  1.62731973
   7.20030695  1.42014719  1.62731973
   2.33566777  4.22874793  1.62731973
   4.76799101  2.82444545  1.62731973
   2.33566777  7.03734445  1.62731973
   4.76799101  5.63304198  1.62731973
   7.20030695  4.22874371  1.62731973
   1.52489579  0.01584471  3.92052428
   3.95721903 -1.38845776  3.92052428
   6.38953497 -2.79275602  3.92052428
   1.52489579  2.82444966  3.92052428
   3.95721903  1.42014719  3.92052428
   6.38953497  0.01584893  3.92052428
   1.52489579  5.63304619  3.92052428
   3.95721903  4.22874371  3.92052428
   6.38953497  2.82444545  3.92052428
   0.74100380  4.18987714  6.10974678
   3.17816178  5.63598954  6.24947114
   5.59833638 -1.41056371  6.21590335
   0.66636244  1.44704564  6.19482116
   3.13551770 -0.01409194  6.20499623
   0.71725331  6.99594972  6.16922613
   5.57601433  4.19369013  6.10790854
   3.15678609  2.82273884  6.14322747
   5.55036753  1.42189910  6.13507086
   2.36240603  4.24869077  8.50694725
   4.74332792  5.56848989  8.36238972
   2.31941008  1.35824862  8.41469259
   7.22933333  4.20059142  8.58150396
   2.37610546  7.02613067  8.40001544
   4.69030833  0.00568987  8.58975906
   7.28348256  1.41571798  8.41795768
   7.28487150 -1.52558630  8.60802425
   4.77735822  2.83583947  8.62325183
 


--------------------------------------------------------------------------------------------------------


 k-point  1 :   0.0000 0.0000 0.0000  plane waves:   29241
 k-point  2 :   0.5000 0.0000 0.0000  plane waves:   29108
 k-point  3 :  -0.0000 0.5000 0.0000  plane waves:   29108
 k-point  4 :   0.5000 0.5000 0.0000  plane waves:   29108

 maximum and minimum number of plane-waves per node :     14624    14548

 maximum number of plane-waves:     29241
 maximum index in each direction: 
   IXMAX=   14   IYMAX=   14   IZMAX=   37
   IXMIN=  -15   IYMIN=  -15   IZMIN=  -37


 real space projection operators:
  total allocation   :      13556.08 KBytes
  max/ min on nodes  :       6785.30       6770.78


 parallel 3D FFT for wavefunctions:
    minimum data exchange during FFTs selected (reduces bandwidth)
 parallel 3D FFT for charge:
    minimum data exchange during FFTs selected (reduces bandwidth)


 total amount of memory used by VASP MPI-rank0   131958. kBytes
=======================================================================

   base      :      30000. kBytes
   nonlr-proj:      10150. kBytes
   fftplans  :      13556. kBytes
   grid      :      23353. kBytes
   one-center:        311. kBytes
   wavefun   :      54588. kBytes
 
     INWAV:  cpu time    0.0000: real time    0.0000
 Broyden mixing: mesh for mixing (old mesh)
   NGX = 29   NGY = 29   NGZ = 75
  (NGX  = 96   NGY  = 96   NGZ  =240)
  gives a total of  63075 points

 initial charge density was supplied:
 charge density of overlapping atoms calculated
 number of electron     376.0000000 magnetization 
 keeping initial charge density in first step


--------------------------------------------------------------------------------------------------------


 Maximum index for non-local projection operator         1322
 Maximum index for augmentation-charges         1558 (set IRDMAX)


--------------------------------------------------------------------------------------------------------


 First call to EWALD:  gamma=   0.161
 Maximum number of real-space cells 4x 4x 2
 Maximum number of reciprocal cells 2x 2x 5

    FEWALD:  cpu time    0.0022: real time    0.0022


--------------------------------------- Iteration      1(   1)  ---------------------------------------


    POTLOK:  cpu time    0.1246: real time    0.2392
    SETDIJ:  cpu time    0.0097: real time    0.0097
     EDDAV:  cpu time    7.6226: real time    7.6763
       DOS:  cpu time    0.0010: real time    0.0010
    --------------------------------------------
      LOOP:  cpu time    7.7578: real time    7.9262

 eigenvalue-minimisations  :  1824
 total energy-change (2. order) : 0.2424842E+04  (-0.1595337E+05)
 number of electron     376.0000000 magnetization 
 augmentation part      376.0000000 magnetization 

 Free energy of the ion-electron system (eV)
  ---------------------------------------------------
  alpha Z        PSCENC =       975.10247152
  Ewald energy   TEWEN  =     91794.35899626
  -Hartree energ DENC   =   -120880.60062754
  -exchange      EXHF   =         0.00000000
  -V(xc)+E(xc)   XCENC  =       190.00381181
  PAW double counting   =     24789.08602224   -23775.73976456
  entropy T*S    EENTRO =         0.00404940
  eigenvalues    EBANDS =      2072.73330513
  atomic energy  EATOM  =     27259.89416086
  Solvation  Ediel_sol  =         0.00000000
  ---------------------------------------------------
  free energy    TOTEN  =      2424.84242512 eV

  energy without entropy =     2424.83837572  energy(sigma->0) =     2424.84107532


--------------------------------------------------------------------------------------------------------




--------------------------------------- Iteration      1(   2)  ---------------------------------------


     EDDAV:  cpu time    9.0277: real time    9.0929
       DOS:  cpu time    0.0010: real time    0.0010
    --------------------------------------------
      LOOP:  cpu time    9.0286: real time    9.0939

 eigenvalue-minimisations  :  2112
 total energy-change (2. order) :-0.2487471E+04  (-0.2307666E+04)
 number of electron     376.0000000 magnetization 
 augmentation part      376.0000000 magnetization 

 Free energy of the ion-electron system (eV)
  ---------------------------------------------------
  alpha Z        PSCENC =       975.10247152
  Ewald energy   TEWEN  =     91794.35899626
  -Hartree energ DENC   =   -120880.60062754
  -exchange      EXHF   =         0.00000000
  -V(xc)+E(xc)   XCENC  =       190.00381181
  PAW double counting   =     24789.08602224   -23775.73976456
  entropy T*S    EENTRO =        -0.03235817
  eigenvalues    EBANDS =      -414.70161226
  atomic energy  EATOM  =     27259.89416086
  Solvation  Ediel_sol  =         0.00000000
  ---------------------------------------------------
  free energy    TOTEN  =       -62.62889984 eV

  energy without entropy =      -62.59654168  energy(sigma->0) =      -62.61811379


--------------------------------------------------------------------------------------------------------




--------------------------------------- Iteration      1(   3)  ---------------------------------------


     EDDAV:  cpu time    8.2928: real time    8.3508
       DOS:  cpu time    0.0010: real time    0.0010
    --------------------------------------------
      LOOP:  cpu time    8.2938: real time    8.3518

 eigenvalue-minimisations  :  2136
 total energy-change (2. order) :-0.1775742E+03  (-0.1607551E+03)
 number of electron     376.0000000 magnetization 
 augmentation part      376.0000000 magnetization 

 Free energy of the ion-electron system (eV)
  ---------------------------------------------------
  alpha Z        PSCENC =       975.10247152
  Ewald energy   TEWEN  =     91794.35899626
  -Hartree energ DENC   =   -120880.60062754
  -exchange      EXHF   =         0.00000000
  -V(xc)+E(xc)   XCENC  =       190.00381181
  PAW double counting   =     24789.08602224   -23775.73976456
  entropy T*S    EENTRO =        -0.01283826
  eigenvalues    EBANDS =      -592.29530275
  atomic energy  EATOM  =     27259.89416086
  Solvation  Ediel_sol  =         0.00000000
  ---------------------------------------------------
  free energy    TOTEN  =      -240.20307042 eV

  energy without entropy =     -240.19023216  energy(sigma->0) =     -240.19879100


--------------------------------------------------------------------------------------------------------




--------------------------------------- Iteration      1(   4)  ---------------------------------------


     EDDAV:  cpu time    9.0919: real time    9.1565
       DOS:  cpu time    0.0011: real time    0.0011
    --------------------------------------------
      LOOP:  cpu time    9.0929: real time    9.1576

 eigenvalue-minimisations  :  2352
 total energy-change (2. order) :-0.7932729E+01  (-0.7640595E+01)
 number of electron     376.0000000 magnetization 
 augmentation part      376.0000000 magnetization 

 Free energy of the ion-electron system (eV)
  ---------------------------------------------------
  alpha Z        PSCENC =       975.10247152
  Ewald energy   TEWEN  =     91794.35899626
  -Hartree energ DENC   =   -120880.60062754
  -exchange      EXHF   =         0.00000000
  -V(xc)+E(xc)   XCENC  =       190.00381181
  PAW double counting   =     24789.08602224   -23775.73976456
  entropy T*S    EENTRO =        -0.01272097
  eigenvalues    EBANDS =      -600.22814871
  atomic energy  EATOM  =     27259.89416086
  Solvation  Ediel_sol  =         0.00000000
  ---------------------------------------------------
  free energy    TOTEN  =      -248.13579909 eV

  energy without entropy =     -248.12307812  energy(sigma->0) =     -248.13155877


--------------------------------------------------------------------------------------------------------




--------------------------------------- Iteration      1(   5)  ---------------------------------------


     EDDAV:  cpu time    9.8482: real time    9.9196
       DOS:  cpu time    0.0010: real time    0.0010
    CHARGE:  cpu time    0.3910: real time    0.3940
    MIXING:  cpu time    0.0070: real time    0.0071
    --------------------------------------------
      LOOP:  cpu time   10.2473: real time   10.3217

 eigenvalue-minimisations  :  2368
 total energy-change (2. order) :-0.2338314E+00  (-0.2314865E+00)
 number of electron     376.0000052 magnetization 
 augmentation part      105.7999457 magnetization 

 Broyden mixing:
  rms(total) = 0.27424E+01    rms(broyden)= 0.27420E+01
  rms(prec ) = 0.30558E+01
  weight for this iteration     100.00

 Free energy of the ion-electron system (eV)
  ---------------------------------------------------
  alpha Z        PSCENC =       975.10247152
  Ewald energy   TEWEN  =     91794.35899626
  -Hartree energ DENC   =   -120880.60062754
  -exchange      EXHF   =         0.00000000
  -V(xc)+E(xc)   XCENC  =       190.00381181
  PAW double counting   =     24789.08602224   -23775.73976456
  entropy T*S    EENTRO =        -0.01245737
  eigenvalues    EBANDS =      -600.46224375
  atomic energy  EATOM  =     27259.89416086
  Solvation  Ediel_sol  =         0.00000000
  ---------------------------------------------------
  free energy    TOTEN  =      -248.36963053 eV

  energy without entropy =     -248.35717316  energy(sigma->0) =     -248.36547807


--------------------------------------------------------------------------------------------------------




--------------------------------------- Iteration      1(   6)  ---------------------------------------


    POTLOK:  cpu time    0.1307: real time    0.1317
    SETDIJ:  cpu time    0.0103: real time    0.0103
    EDDIAG:  cpu time    1.3017: real time    1.3109
  RMM-DIIS:  cpu time    4.4594: real time    4.4933
    ORTHCH:  cpu time    0.2127: real time    0.2141
       DOS:  cpu time    0.0012: real time    0.0012
    CHARGE:  cpu time    0.3811: real time    0.3836
    MIXING:  cpu time    0.0055: real time    0.0056
    --------------------------------------------
      LOOP:  cpu time    6.5026: real time    6.5508

 eigenvalue-minimisations  :  1831
 total energy-change (2. order) : 0.2834629E+01  (-0.5555946E+01)
 number of electron     376.0000062 magnetization 
 augmentation part      112.8521947 magnetization 

 Broyden mixing:
  rms(total) = 0.28309E+01    rms(broyden)= 0.28299E+01
  rms(prec ) = 0.37478E+01
  weight for this iteration     100.00

 eigenvalues of (default mixing * dielectric matrix)
  average eigenvalue GAMMA=   0.5052
  0.5052

 Free energy of the ion-electron system (eV)
  ---------------------------------------------------
  alpha Z        PSCENC =       975.10247152
  Ewald energy   TEWEN  =     91794.35899626
  -Hartree energ DENC   =   -120414.79868219
  -exchange      EXHF   =         0.00000000
  -V(xc)+E(xc)   XCENC  =       182.92909446
  PAW double counting   =     26749.37858426   -25789.91968455
  entropy T*S    EENTRO =        -0.18355765
  eigenvalues    EBANDS =     -1002.29638429
  atomic energy  EATOM  =     27259.89416086
  Solvation  Ediel_sol  =         0.00000000
  ---------------------------------------------------
  free energy    TOTEN  =      -245.53500132 eV

  energy without entropy =     -245.35144367  energy(sigma->0) =     -245.47381544


--------------------------------------------------------------------------------------------------------




--------------------------------------- Iteration      1(   7)  ---------------------------------------


    POTLOK:  cpu time    0.1212: real time    0.1221
    SETDIJ:  cpu time    0.0097: real time    0.0098
    EDDIAG:  cpu time    1.3147: real time    1.3243
  RMM-DIIS:  cpu time    4.3917: real time    4.4249
    ORTHCH:  cpu time    0.2156: real time    0.2171
       DOS:  cpu time    0.0010: real time    0.0010
    CHARGE:  cpu time    0.3862: real time    0.3888
    MIXING:  cpu time    0.0042: real time    0.0042
    --------------------------------------------
      LOOP:  cpu time    6.4443: real time    6.4922

 eigenvalue-minimisations  :  1831
 total energy-change (2. order) : 0.6600031E+01  (-0.3202387E+01)
 number of electron     376.0000061 magnetization 
 augmentation part      111.3912329 magnetization 

 Broyden mixing:
  rms(total) = 0.18821E+01    rms(broyden)= 0.18812E+01
  rms(prec ) = 0.26929E+01
  weight for this iteration     100.00

 eigenvalues of (default mixing * dielectric matrix)
  average eigenvalue GAMMA=   0.6476
  1.0300  0.2652

 Free energy of the ion-electron system (eV)
  ---------------------------------------------------
  alpha Z        PSCENC =       975.10247152
  Ewald energy   TEWEN  =     91794.35899626
  -Hartree energ DENC   =   -120614.14702759
  -exchange      EXHF   =         0.00000000
  -V(xc)+E(xc)   XCENC  =       180.53969132
  PAW double counting   =     27428.80727461   -26477.11799300
  entropy T*S    EENTRO =        -0.09226767
  eigenvalues    EBANDS =      -786.28027652
  atomic energy  EATOM  =     27259.89416086
  Solvation  Ediel_sol  =         0.00000000
  ---------------------------------------------------
  free energy    TOTEN  =      -238.93497020 eV

  energy without entropy =     -238.84270253  energy(sigma->0) =     -238.90421431


--------------------------------------------------------------------------------------------------------




--------------------------------------- Iteration      1(   8)  ---------------------------------------


    POTLOK:  cpu time    0.1276: real time    0.1286
    SETDIJ:  cpu time    0.0097: real time    0.0098
    EDDIAG:  cpu time    1.2541: real time    1.2627
  RMM-DIIS:  cpu time    4.1876: real time    4.2178
    ORTHCH:  cpu time    0.2147: real time    0.2161
       DOS:  cpu time    0.0011: real time    0.0011
    CHARGE:  cpu time    0.3829: real time    0.3856
    MIXING:  cpu time    0.0042: real time    0.0042
    --------------------------------------------
      LOOP:  cpu time    6.1818: real time    6.2258

 eigenvalue-minimisations  :  1829
 total energy-change (2. order) :-0.2385214E+01  (-0.8295872E+00)
 number of electron     376.0000055 magnetization 
 augmentation part      112.4388568 magnetization 

 Broyden mixing:
  rms(total) = 0.23117E+01    rms(broyden)= 0.23116E+01
  rms(prec ) = 0.43427E+01
  weight for this iteration     100.00

 eigenvalues of (default mixing * dielectric matrix)
  average eigenvalue GAMMA=   0.5475
  1.1866  0.2934  0.1625

 Free energy of the ion-electron system (eV)
  ---------------------------------------------------
  alpha Z        PSCENC =       975.10247152
  Ewald energy   TEWEN  =     91794.35899626
  -Hartree energ DENC   =   -120509.78348830
  -exchange      EXHF   =         0.00000000
  -V(xc)+E(xc)   XCENC  =       179.27643062
  PAW double counting   =     28317.99394553   -27380.26298147
  entropy T*S    EENTRO =        -0.00804137
  eigenvalues    EBANDS =      -877.89167832
  atomic energy  EATOM  =     27259.89416086
  Solvation  Ediel_sol  =         0.00000000
  ---------------------------------------------------
  free energy    TOTEN  =      -241.32018467 eV

  energy without entropy =     -241.31214331  energy(sigma->0) =     -241.31750422


--------------------------------------------------------------------------------------------------------




--------------------------------------- Iteration      1(   9)  ---------------------------------------


    POTLOK:  cpu time    0.1280: real time    0.1288
    SETDIJ:  cpu time    0.0095: real time    0.0096
    EDDIAG:  cpu time    1.2413: real time    1.2499
  RMM-DIIS:  cpu time    4.4694: real time    4.5023
    ORTHCH:  cpu time    0.2206: real time    0.2220
       DOS:  cpu time    0.0011: real time    0.0011
    CHARGE:  cpu time    0.4217: real time    0.4248
    MIXING:  cpu time    0.0050: real time    0.0050
    --------------------------------------------
      LOOP:  cpu time    6.4966: real time    6.5435

 eigenvalue-minimisations  :  1829
 total energy-change (2. order) : 0.8871933E+01  (-0.3112811E+00)
 number of electron     376.0000061 magnetization 
 augmentation part      112.7388624 magnetization 

 Broyden mixing:
  rms(total) = 0.10837E+01    rms(broyden)= 0.10834E+01
  rms(prec ) = 0.17736E+01
  weight for this iteration     100.00

 eigenvalues of (default mixing * dielectric matrix)
  average eigenvalue GAMMA=   0.5180
  1.3069  0.3804  0.2798  0.1048

 Free energy of the ion-electron system (eV)
  ---------------------------------------------------
  alpha Z        PSCENC =       975.10247152
  Ewald energy   TEWEN  =     91794.35899626
  -Hartree energ DENC   =   -120500.49760757
  -exchange      EXHF   =         0.00000000
  -V(xc)+E(xc)   XCENC  =       178.98913339
  PAW double counting   =     28716.73981764   -27785.00373348
  entropy T*S    EENTRO =        -0.05933927
  eigenvalues    EBANDS =      -871.97215141
  atomic energy  EATOM  =     27259.89416086
  Solvation  Ediel_sol  =         0.00000000
  ---------------------------------------------------
  free energy    TOTEN  =      -232.44825205 eV

  energy without entropy =     -232.38891278  energy(sigma->0) =     -232.42847230


--------------------------------------------------------------------------------------------------------




--------------------------------------- Iteration      1(  10)  ---------------------------------------


    POTLOK:  cpu time    0.1393: real time    0.1401
    SETDIJ:  cpu time    0.0093: real time    0.0094
    EDDIAG:  cpu time    1.4085: real time    1.4193
  RMM-DIIS:  cpu time    4.9144: real time    4.9544
    ORTHCH:  cpu time    0.2260: real time    0.2277
       DOS:  cpu time    0.0011: real time    0.0011
    CHARGE:  cpu time    0.4274: real time    0.4305
    MIXING:  cpu time    0.0046: real time    0.0047
    --------------------------------------------
      LOOP:  cpu time    7.1306: real time    7.1871

 eigenvalue-minimisations  :  1831
 total energy-change (2. order) : 0.1759888E+01  (-0.1555149E+00)
 number of electron     376.0000060 magnetization 
 augmentation part      112.7734283 magnetization 

 Broyden mixing:
  rms(total) = 0.47702E+00    rms(broyden)= 0.47687E+00
  rms(prec ) = 0.63089E+00
  weight for this iteration     100.00

 eigenvalues of (default mixing * dielectric matrix)
  average eigenvalue GAMMA=   0.5341
  1.3958  0.5314  0.4076  0.2289  0.1070

 Free energy of the ion-electron system (eV)
  ---------------------------------------------------
  alpha Z        PSCENC =       975.10247152
  Ewald energy   TEWEN  =     91794.35899626
  -Hartree energ DENC   =   -120510.26937059
  -exchange      EXHF   =         0.00000000
  -V(xc)+E(xc)   XCENC  =       178.85112582
  PAW double counting   =     29071.71414532   -28144.95534116
  entropy T*S    EENTRO =        -0.04031617
  eigenvalues    EBANDS =      -855.34423563
  atomic energy  EATOM  =     27259.89416086
  Solvation  Ediel_sol  =         0.00000000
  ---------------------------------------------------
  free energy    TOTEN  =      -230.68836376 eV

  energy without entropy =     -230.64804759  energy(sigma->0) =     -230.67492503


--------------------------------------------------------------------------------------------------------




--------------------------------------- Iteration      1(  11)  ---------------------------------------


    POTLOK:  cpu time    0.1279: real time    0.1288
    SETDIJ:  cpu time    0.0103: real time    0.0104
    EDDIAG:  cpu time    1.4446: real time    1.4548
  RMM-DIIS:  cpu time    5.1758: real time    5.2148
    ORTHCH:  cpu time    0.2200: real time    0.2215
       DOS:  cpu time    0.0012: real time    0.0012
    CHARGE:  cpu time    0.4813: real time    0.4851
    MIXING:  cpu time    0.0052: real time    0.0053
    --------------------------------------------
      LOOP:  cpu time    7.4664: real time    7.5217

 eigenvalue-minimisations  :  1831
 total energy-change (2. order) : 0.3707656E+00  (-0.4070655E-01)
 number of electron     376.0000059 magnetization 
 augmentation part      112.8644468 magnetization 

 Broyden mixing:
  rms(total) = 0.32542E+00    rms(broyden)= 0.32540E+00
  rms(prec ) = 0.45600E+00
  weight for this iteration     100.00

 eigenvalues of (default mixing * dielectric matrix)
  average eigenvalue GAMMA=   0.5827
  1.5475  0.7978  0.4045  0.4045  0.2362  0.1057

 Free energy of the ion-electron system (eV)
  ---------------------------------------------------
  alpha Z        PSCENC =       975.10247152
  Ewald energy   TEWEN  =     91794.35899626
  -Hartree energ DENC   =   -120496.29194387
  -exchange      EXHF   =         0.00000000
  -V(xc)+E(xc)   XCENC  =       178.79639138
  PAW double counting   =     29359.74911376   -28436.67942551
  entropy T*S    EENTRO =        -0.04074270
  eigenvalues    EBANDS =      -865.20661990
  atomic energy  EATOM  =     27259.89416086
  Solvation  Ediel_sol  =         0.00000000
  ---------------------------------------------------
  free energy    TOTEN  =      -230.31759819 eV

  energy without entropy =     -230.27685550  energy(sigma->0) =     -230.30401729


--------------------------------------------------------------------------------------------------------




--------------------------------------- Iteration      1(  12)  ---------------------------------------


    POTLOK:  cpu time    0.1400: real time    0.1410
    SETDIJ:  cpu time    0.0094: real time    0.0094
    EDDIAG:  cpu time    1.4902: real time    1.5009
  RMM-DIIS:  cpu time    4.9330: real time    4.9732
    ORTHCH:  cpu time    0.2247: real time    0.2265
       DOS:  cpu time    0.0011: real time    0.0011
    CHARGE:  cpu time    0.4185: real time    0.4218
    MIXING:  cpu time    0.0051: real time    0.0051
    --------------------------------------------
      LOOP:  cpu time    7.2219: real time    7.2791

 eigenvalue-minimisations  :  1831
 total energy-change (2. order) : 0.1188362E+00  (-0.2016045E-01)
 number of electron     376.0000059 magnetization 
 augmentation part      112.9406159 magnetization 

 Broyden mixing:
  rms(total) = 0.24742E+00    rms(broyden)= 0.24737E+00
  rms(prec ) = 0.30970E+00
  weight for this iteration     100.00

 eigenvalues of (default mixing * dielectric matrix)
  average eigenvalue GAMMA=   0.6588
  1.8835  1.0590  0.6024  0.4739  0.1058  0.2434  0.2434

 Free energy of the ion-electron system (eV)
  ---------------------------------------------------
  alpha Z        PSCENC =       975.10247152
  Ewald energy   TEWEN  =     91794.35899626
  -Hartree energ DENC   =   -120490.51848721
  -exchange      EXHF   =         0.00000000
  -V(xc)+E(xc)   XCENC  =       178.74342115
  PAW double counting   =     29650.57536350   -28731.12476602
  entropy T*S    EENTRO =        -0.04356443
  eigenvalues    EBANDS =      -867.18635762
  atomic energy  EATOM  =     27259.89416086
  Solvation  Ediel_sol  =         0.00000000
  ---------------------------------------------------
  free energy    TOTEN  =      -230.19876198 eV

  energy without entropy =     -230.15519756  energy(sigma->0) =     -230.18424051


--------------------------------------------------------------------------------------------------------




--------------------------------------- Iteration      1(  13)  ---------------------------------------


    POTLOK:  cpu time    0.1327: real time    0.1337
    SETDIJ:  cpu time    0.0098: real time    0.0099
    EDDIAG:  cpu time    1.3853: real time    1.3958
  RMM-DIIS:  cpu time    5.0500: real time    5.0851
    ORTHCH:  cpu time    0.2186: real time    0.2200
       DOS:  cpu time    0.0011: real time    0.0011
    CHARGE:  cpu time    0.4107: real time    0.4137
    MIXING:  cpu time    0.0051: real time    0.0052
    --------------------------------------------
      LOOP:  cpu time    7.2132: real time    7.2646

 eigenvalue-minimisations  :  1831
 total energy-change (2. order) : 0.5298583E-01  (-0.1537301E-01)
 number of electron     376.0000059 magnetization 
 augmentation part      112.9567663 magnetization 

 Broyden mixing:
  rms(total) = 0.17535E+00    rms(broyden)= 0.17534E+00
  rms(prec ) = 0.20876E+00
  weight for this iteration     100.00

 eigenvalues of (default mixing * dielectric matrix)
  average eigenvalue GAMMA=   0.7067
  2.2554  1.2060  0.8112  0.4586  0.1058  0.3413  0.2484  0.2269

 Free energy of the ion-electron system (eV)
  ---------------------------------------------------
  alpha Z        PSCENC =       975.10247152
  Ewald energy   TEWEN  =     91794.35899626
  -Hartree energ DENC   =   -120488.19345356
  -exchange      EXHF   =         0.00000000
  -V(xc)+E(xc)   XCENC  =       178.66418941
  PAW double counting   =     29915.14876844   -28998.87026274
  entropy T*S    EENTRO =        -0.02426200
  eigenvalues    EBANDS =      -866.22638434
  atomic energy  EATOM  =     27259.89416086
  Solvation  Ediel_sol  =         0.00000000
  ---------------------------------------------------
  free energy    TOTEN  =      -230.14577615 eV

  energy without entropy =     -230.12151415  energy(sigma->0) =     -230.13768881


--------------------------------------------------------------------------------------------------------




--------------------------------------- Iteration      1(  14)  ---------------------------------------


    POTLOK:  cpu time    0.1290: real time    0.1299
    SETDIJ:  cpu time    0.0098: real time    0.0099
    EDDIAG:  cpu time    1.5423: real time    1.5528
  RMM-DIIS:  cpu time    5.3039: real time    5.3403
    ORTHCH:  cpu time    0.2125: real time    0.2138
       DOS:  cpu time    0.0010: real time    0.0010
    CHARGE:  cpu time    0.3914: real time    0.3941
    MIXING:  cpu time    0.0050: real time    0.0050
    --------------------------------------------
      LOOP:  cpu time    7.5949: real time    7.6468

 eigenvalue-minimisations  :  1830
 total energy-change (2. order) : 0.3852179E-01  (-0.8183980E-02)
 number of electron     376.0000058 magnetization 
 augmentation part      112.9423815 magnetization 

 Broyden mixing:
  rms(total) = 0.88681E-01    rms(broyden)= 0.88646E-01
  rms(prec ) = 0.11059E+00
  weight for this iteration     100.00

 eigenvalues of (default mixing * dielectric matrix)
  average eigenvalue GAMMA=   0.7050
  2.3387  1.2279  0.9367  0.4797  0.4797  0.1058  0.3090  0.2408  0.2268

 Free energy of the ion-electron system (eV)
  ---------------------------------------------------
  alpha Z        PSCENC =       975.10247152
  Ewald energy   TEWEN  =     91794.35899626
  -Hartree energ DENC   =   -120489.46359618
  -exchange      EXHF   =         0.00000000
  -V(xc)+E(xc)   XCENC  =       178.59091818
  PAW double counting   =     30110.71619386   -29196.69242863
  entropy T*S    EENTRO =        -0.01790385
  eigenvalues    EBANDS =      -862.59606638
  atomic energy  EATOM  =     27259.89416086
  Solvation  Ediel_sol  =         0.00000000
  ---------------------------------------------------
  free energy    TOTEN  =      -230.10725436 eV

  energy without entropy =     -230.08935051  energy(sigma->0) =     -230.10128641


--------------------------------------------------------------------------------------------------------




--------------------------------------- Iteration      1(  15)  ---------------------------------------


    POTLOK:  cpu time    0.1250: real time    0.1258
    SETDIJ:  cpu time    0.0099: real time    0.0100
    EDDIAG:  cpu time    1.1462: real time    1.1541
  RMM-DIIS:  cpu time    4.5893: real time    4.6242
    ORTHCH:  cpu time    0.2223: real time    0.2238
       DOS:  cpu time    0.0010: real time    0.0010
    CHARGE:  cpu time    0.3870: real time    0.3896
    MIXING:  cpu time    0.0055: real time    0.0055
    --------------------------------------------
      LOOP:  cpu time    6.4862: real time    6.5340

 eigenvalue-minimisations  :  1832
 total energy-change (2. order) : 0.1023946E-01  (-0.2651055E-02)
 number of electron     376.0000058 magnetization 
 augmentation part      112.9400347 magnetization 

 Broyden mixing:
  rms(total) = 0.46753E-01    rms(broyden)= 0.46745E-01
  rms(prec ) = 0.60834E-01
  weight for this iteration     100.00

 eigenvalues of (default mixing * dielectric matrix)
  average eigenvalue GAMMA=   0.7228
  2.4631  1.2658  1.0753  0.7298  0.4585  0.1058  0.3795  0.2859  0.2401  0.2244

 Free energy of the ion-electron system (eV)
  ---------------------------------------------------
  alpha Z        PSCENC =       975.10247152
  Ewald energy   TEWEN  =     91794.35899626
  -Hartree energ DENC   =   -120491.50379774
  -exchange      EXHF   =         0.00000000
  -V(xc)+E(xc)   XCENC  =       178.58747384
  PAW double counting   =     30152.93483105   -29239.35898964
  entropy T*S    EENTRO =        -0.01893817
  eigenvalues    EBANDS =      -860.09322289
  atomic energy  EATOM  =     27259.89416086
  Solvation  Ediel_sol  =         0.00000000
  ---------------------------------------------------
  free energy    TOTEN  =      -230.09701490 eV

  energy without entropy =     -230.07807673  energy(sigma->0) =     -230.09070217


--------------------------------------------------------------------------------------------------------




--------------------------------------- Iteration      1(  16)  ---------------------------------------


    POTLOK:  cpu time    0.1264: real time    0.1272
    SETDIJ:  cpu time    0.0099: real time    0.0100
    EDDIAG:  cpu time    1.3564: real time    1.3657
  RMM-DIIS:  cpu time    4.9630: real time    4.9994
    ORTHCH:  cpu time    0.2214: real time    0.2229
       DOS:  cpu time    0.0009: real time    0.0009
    CHARGE:  cpu time    0.3970: real time    0.3998
    MIXING:  cpu time    0.0056: real time    0.0056
    --------------------------------------------
      LOOP:  cpu time    7.0807: real time    7.1316

 eigenvalue-minimisations  :  1829
 total energy-change (2. order) : 0.1494139E-02  (-0.7008074E-03)
 number of electron     376.0000059 magnetization 
 augmentation part      112.9382228 magnetization 

 Broyden mixing:
  rms(total) = 0.32764E-01    rms(broyden)= 0.32762E-01
  rms(prec ) = 0.40187E-01
  weight for this iteration     100.00

 eigenvalues of (default mixing * dielectric matrix)
  average eigenvalue GAMMA=   0.7069
  2.4986  1.2503  1.1032  0.8229  0.4643  0.4643  0.1058  0.3367  0.2641  0.2425
  0.2233

 Free energy of the ion-electron system (eV)
  ---------------------------------------------------
  alpha Z        PSCENC =       975.10247152
  Ewald energy   TEWEN  =     91794.35899626
  -Hartree energ DENC   =   -120492.59272807
  -exchange      EXHF   =         0.00000000
  -V(xc)+E(xc)   XCENC  =       178.59399215
  PAW double counting   =     30178.77053929   -29265.43296804
  entropy T*S    EENTRO =        -0.01795263
  eigenvalues    EBANDS =      -858.77203210
  atomic energy  EATOM  =     27259.89416086
  Solvation  Ediel_sol  =         0.00000000
  ---------------------------------------------------
  free energy    TOTEN  =      -230.09552076 eV

  energy without entropy =     -230.07756812  energy(sigma->0) =     -230.08953655


--------------------------------------------------------------------------------------------------------




--------------------------------------- Iteration      1(  17)  ---------------------------------------


    POTLOK:  cpu time    0.1260: real time    0.1269
    SETDIJ:  cpu time    0.0097: real time    0.0098
    EDDIAG:  cpu time    1.3125: real time    1.3215
  RMM-DIIS:  cpu time    4.4601: real time    4.4939
    ORTHCH:  cpu time    0.2182: real time    0.2197
       DOS:  cpu time    0.0010: real time    0.0010
    CHARGE:  cpu time    0.3896: real time    0.3923
    MIXING:  cpu time    0.0058: real time    0.0058
    --------------------------------------------
      LOOP:  cpu time    6.5230: real time    6.5709

 eigenvalue-minimisations  :  1821
 total energy-change (2. order) : 0.1330609E-02  (-0.2657660E-03)
 number of electron     376.0000059 magnetization 
 augmentation part      112.9390110 magnetization 

 Broyden mixing:
  rms(total) = 0.16056E-01    rms(broyden)= 0.16053E-01
  rms(prec ) = 0.19510E-01
  weight for this iteration     100.00

 eigenvalues of (default mixing * dielectric matrix)
  average eigenvalue GAMMA=   0.7285
  2.5173  1.2167  1.2167  1.0699  0.7491  0.4656  0.1058  0.3856  0.3014  0.2231
  0.2435  0.2470

 Free energy of the ion-electron system (eV)
  ---------------------------------------------------
  alpha Z        PSCENC =       975.10247152
  Ewald energy   TEWEN  =     91794.35899626
  -Hartree energ DENC   =   -120493.40552503
  -exchange      EXHF   =         0.00000000
  -V(xc)+E(xc)   XCENC  =       178.60011955
  PAW double counting   =     30182.74937221   -29269.43121140
  entropy T*S    EENTRO =        -0.01982600
  eigenvalues    EBANDS =      -857.94274812
  atomic energy  EATOM  =     27259.89416086
  Solvation  Ediel_sol  =         0.00000000
  ---------------------------------------------------
  free energy    TOTEN  =      -230.09419015 eV

  energy without entropy =     -230.07436415  energy(sigma->0) =     -230.08758148


--------------------------------------------------------------------------------------------------------




--------------------------------------- Iteration      1(  18)  ---------------------------------------


    POTLOK:  cpu time    0.1299: real time    0.1308
    SETDIJ:  cpu time    0.0096: real time    0.0096
    EDDIAG:  cpu time    1.2939: real time    1.3032
  RMM-DIIS:  cpu time    3.9927: real time    4.0213
    ORTHCH:  cpu time    0.2194: real time    0.2209
       DOS:  cpu time    0.0011: real time    0.0011
    CHARGE:  cpu time    0.3859: real time    0.3884
    MIXING:  cpu time    0.0063: real time    0.0064
    --------------------------------------------
      LOOP:  cpu time    6.0388: real time    6.0816

 eigenvalue-minimisations  :  1777
 total energy-change (2. order) :-0.1327384E-03  (-0.1031659E-03)
 number of electron     376.0000059 magnetization 
 augmentation part      112.9375070 magnetization 

 Broyden mixing:
  rms(total) = 0.13906E-01    rms(broyden)= 0.13905E-01
  rms(prec ) = 0.17003E-01
  weight for this iteration     100.00

 eigenvalues of (default mixing * dielectric matrix)
  average eigenvalue GAMMA=   0.7316
  2.5389  1.3789  1.3789  1.1046  0.8005  0.1058  0.4497  0.4215  0.3455  0.2838
  0.2225  0.2402  0.2402

 Free energy of the ion-electron system (eV)
  ---------------------------------------------------
  alpha Z        PSCENC =       975.10247152
  Ewald energy   TEWEN  =     91794.35899626
  -Hartree energ DENC   =   -120494.45901489
  -exchange      EXHF   =         0.00000000
  -V(xc)+E(xc)   XCENC  =       178.60580543
  PAW double counting   =     30181.03970143   -29267.66198556
  entropy T*S    EENTRO =        -0.01941424
  eigenvalues    EBANDS =      -856.95504369
  atomic energy  EATOM  =     27259.89416086
  Solvation  Ediel_sol  =         0.00000000
  ---------------------------------------------------
  free energy    TOTEN  =      -230.09432289 eV

  energy without entropy =     -230.07490864  energy(sigma->0) =     -230.08785147


--------------------------------------------------------------------------------------------------------




--------------------------------------- Iteration      1(  19)  ---------------------------------------


    POTLOK:  cpu time    0.1288: real time    0.1297
    SETDIJ:  cpu time    0.0099: real time    0.0099
    EDDIAG:  cpu time    1.2736: real time    1.2819
  RMM-DIIS:  cpu time    3.4211: real time    3.4465
    ORTHCH:  cpu time    0.2227: real time    0.2241
       DOS:  cpu time    0.0011: real time    0.0011
    CHARGE:  cpu time    0.3991: real time    0.4019
    MIXING:  cpu time    0.0064: real time    0.0064
    --------------------------------------------
      LOOP:  cpu time    5.4626: real time    5.5015

 eigenvalue-minimisations  :  1337
 total energy-change (2. order) : 0.1396097E-03  (-0.4051299E-04)
 number of electron     376.0000059 magnetization 
 augmentation part      112.9363909 magnetization 

 Broyden mixing:
  rms(total) = 0.58028E-02    rms(broyden)= 0.58010E-02
  rms(prec ) = 0.72453E-02
  weight for this iteration     100.00

 eigenvalues of (default mixing * dielectric matrix)
  average eigenvalue GAMMA=   0.7487
  2.5546  1.7704  1.2882  1.1095  0.8708  0.5933  0.4963  0.1058  0.3920  0.3222
  0.2793  0.2224  0.2382  0.2382

 Free energy of the ion-electron system (eV)
  ---------------------------------------------------
  alpha Z        PSCENC =       975.10247152
  Ewald energy   TEWEN  =     91794.35899626
  -Hartree energ DENC   =   -120495.25740836
  -exchange      EXHF   =         0.00000000
  -V(xc)+E(xc)   XCENC  =       178.60980989
  PAW double counting   =     30179.59929292   -29266.17582832
  entropy T*S    EENTRO =        -0.01957024
  eigenvalues    EBANDS =      -856.20610780
  atomic energy  EATOM  =     27259.89416086
  Solvation  Ediel_sol  =         0.00000000
  ---------------------------------------------------
  free energy    TOTEN  =      -230.09418328 eV

  energy without entropy =     -230.07461303  energy(sigma->0) =     -230.08765986


--------------------------------------------------------------------------------------------------------




--------------------------------------- Iteration      1(  20)  ---------------------------------------


    POTLOK:  cpu time    0.1315: real time    0.1325
    SETDIJ:  cpu time    0.0092: real time    0.0093
    EDDIAG:  cpu time    1.3317: real time    1.3412
  RMM-DIIS:  cpu time    2.7996: real time    2.8203
    ORTHCH:  cpu time    0.2203: real time    0.2219
       DOS:  cpu time    0.0011: real time    0.0011
    CHARGE:  cpu time    0.4013: real time    0.4041
    MIXING:  cpu time    0.0075: real time    0.0075
    --------------------------------------------
      LOOP:  cpu time    4.9022: real time    4.9380

 eigenvalue-minimisations  :  1008
 total energy-change (2. order) :-0.1216441E-03  (-0.1411567E-04)
 number of electron     376.0000059 magnetization 
 augmentation part      112.9365679 magnetization 

 Broyden mixing:
  rms(total) = 0.43349E-02    rms(broyden)= 0.43342E-02
  rms(prec ) = 0.55645E-02
  weight for this iteration     100.00

 eigenvalues of (default mixing * dielectric matrix)
  average eigenvalue GAMMA=   0.7692
  2.6293  2.1862  1.1549  1.1109  1.1109  0.7255  0.4783  0.1058  0.4056  0.3548
  0.3082  0.2703  0.2223  0.2398  0.2356

 Free energy of the ion-electron system (eV)
  ---------------------------------------------------
  alpha Z        PSCENC =       975.10247152
  Ewald energy   TEWEN  =     91794.35899626
  -Hartree energ DENC   =   -120495.98311541
  -exchange      EXHF   =         0.00000000
  -V(xc)+E(xc)   XCENC  =       178.61545610
  PAW double counting   =     30178.27003327   -29264.81214868
  entropy T*S    EENTRO =        -0.01971529
  eigenvalues    EBANDS =      -855.52044355
  atomic energy  EATOM  =     27259.89416086
  Solvation  Ediel_sol  =         0.00000000
  ---------------------------------------------------
  free energy    TOTEN  =      -230.09430492 eV

  energy without entropy =     -230.07458963  energy(sigma->0) =     -230.08773316


--------------------------------------------------------------------------------------------------------




--------------------------------------- Iteration      1(  21)  ---------------------------------------


    POTLOK:  cpu time    0.1338: real time    0.1347
    SETDIJ:  cpu time    0.0097: real time    0.0098
    EDDIAG:  cpu time    1.3701: real time    1.3796
  RMM-DIIS:  cpu time    2.7894: real time    2.8099
    ORTHCH:  cpu time    0.2172: real time    0.2186
       DOS:  cpu time    0.0011: real time    0.0011
    CHARGE:  cpu time    0.3967: real time    0.3995
    MIXING:  cpu time    0.0066: real time    0.0067
    --------------------------------------------
      LOOP:  cpu time    4.9247: real time    4.9599

 eigenvalue-minimisations  :   996
 total energy-change (2. order) :-0.1268553E-03  (-0.6083439E-05)
 number of electron     376.0000059 magnetization 
 augmentation part      112.9363937 magnetization 

 Broyden mixing:
  rms(total) = 0.21427E-02    rms(broyden)= 0.21425E-02
  rms(prec ) = 0.32162E-02
  weight for this iteration     100.00

 eigenvalues of (default mixing * dielectric matrix)
  average eigenvalue GAMMA=   0.7548
  2.6435  2.2653  1.2221  1.0928  1.0928  0.7192  0.1058  0.4912  0.4193  0.4193
  0.3393  0.2986  0.2691  0.2223  0.2394  0.2360

 Free energy of the ion-electron system (eV)
  ---------------------------------------------------
  alpha Z        PSCENC =       975.10247152
  Ewald energy   TEWEN  =     91794.35899626
  -Hartree energ DENC   =   -120496.76544626
  -exchange      EXHF   =         0.00000000
  -V(xc)+E(xc)   XCENC  =       178.62074900
  PAW double counting   =     30177.16590566   -29263.67876587
  entropy T*S    EENTRO =        -0.01964138
  eigenvalues    EBANDS =      -854.77286156
  atomic energy  EATOM  =     27259.89416086
  Solvation  Ediel_sol  =         0.00000000
  ---------------------------------------------------
  free energy    TOTEN  =      -230.09443178 eV

  energy without entropy =     -230.07479039  energy(sigma->0) =     -230.08788465


--------------------------------------------------------------------------------------------------------




--------------------------------------- Iteration      1(  22)  ---------------------------------------


    POTLOK:  cpu time    0.1235: real time    0.1244
    SETDIJ:  cpu time    0.0092: real time    0.0093
    EDDIAG:  cpu time    1.3018: real time    1.3108
  RMM-DIIS:  cpu time    2.6523: real time    2.6719
    ORTHCH:  cpu time    0.2223: real time    0.2237
       DOS:  cpu time    0.0011: real time    0.0011
    --------------------------------------------
      LOOP:  cpu time    4.3102: real time    4.3412

 eigenvalue-minimisations  :   937
 total energy-change (2. order) :-0.6685310E-04  (-0.2135514E-05)
 number of electron     376.0000059 magnetization 
 augmentation part      112.9363937 magnetization 

 Free energy of the ion-electron system (eV)
  ---------------------------------------------------
  alpha Z        PSCENC =       975.10247152
  Ewald energy   TEWEN  =     91794.35899626
  -Hartree energ DENC   =   -120497.07579993
  -exchange      EXHF   =         0.00000000
  -V(xc)+E(xc)   XCENC  =       178.62222611
  PAW double counting   =     30176.55199404   -29263.05597303
  entropy T*S    EENTRO =        -0.01965123
  eigenvalues    EBANDS =      -854.47292323
  atomic energy  EATOM  =     27259.89416086
  Solvation  Ediel_sol  =         0.00000000
  ---------------------------------------------------
  free energy    TOTEN  =      -230.09449863 eV

  energy without entropy =     -230.07484740  energy(sigma->0) =     -230.08794822


--------------------------------------------------------------------------------------------------------




 average (electrostatic) potential at core
  the test charge radii are     0.6991  0.7215  1.2059
  (the norm of the test charge is              1.0000)
       1 -56.3109       2 -74.8361       3 -76.2245       4 -72.3399       5 -72.3312
       6 -72.3126       7 -72.2989       8 -72.3411       9 -72.3088      10 -72.3022
      11 -72.3251      12 -72.3132      13 -72.8815      14 -72.9558      15 -72.9830
      16 -73.0350      17 -73.0251      18 -72.9872      19 -72.9989      20 -73.0095
      21 -73.0229      22 -72.9505      23 -73.0625      24 -72.8896      25 -72.9881
      26 -73.0267      27 -73.0322      28 -72.9688      29 -72.9202      30 -72.8726
      31 -72.3010      32 -72.5427      33 -72.5529      34 -72.2737      35 -72.5481
      36 -73.2653      37 -72.4663      38 -73.2324      39 -72.1686
 
 
 
 E-fermi :   1.1059     XC(G=0):  -6.6091     alpha+bet : -6.8913


 k-point     1 :       0.0000    0.0000    0.0000
  band No.  band energies     occupation 
      1     -22.1151      2.00000
      2     -17.0999      2.00000
      3      -8.8168      2.00000
      4      -8.1521      2.00000
      5      -6.8005      2.00000
      6      -6.0098      2.00000
      7      -5.9574      2.00000
      8      -5.7751      2.00000
      9      -5.7341      2.00000
     10      -5.7045      2.00000
     11      -5.6897      2.00000
     12      -5.6711      2.00000
     13      -5.6104      2.00000
     14      -5.5908      2.00000
     15      -5.5230      2.00000
     16      -5.3086      2.00000
     17      -5.1348      2.00000
     18      -5.0993      2.00000
     19      -5.0639      2.00000
     20      -5.0517      2.00000
     21      -5.0395      2.00000
     22      -4.9994      2.00000
     23      -4.7589      2.00000
     24      -4.6207      2.00000
     25      -4.5872      2.00000
     26      -4.5605      2.00000
     27      -4.5273      2.00000
     28      -4.5173      2.00000
     29      -4.4264      2.00000
     30      -4.4028      2.00000
     31      -4.3720      2.00000
     32      -4.3563      2.00000
     33      -4.3242      2.00000
     34      -4.2581      2.00000
     35      -4.1972      2.00000
     36      -4.1786      2.00000
     37      -4.1452      2.00000
     38      -4.1248      2.00000
     39      -4.1196      2.00000
     40      -4.0861      2.00000
     41      -4.0678      2.00000
     42      -4.0518      2.00000
     43      -4.0345      2.00000
     44      -4.0212      2.00000
     45      -3.9825      2.00000
     46      -3.9466      2.00000
     47      -3.6291      2.00000
     48      -3.5121      2.00000
     49      -3.4836      2.00000
     50      -3.4553      2.00000
     51      -3.4446      2.00000
     52      -3.3990      2.00000
     53      -3.3836      2.00000
     54      -3.3562      2.00000
     55      -3.3058      2.00000
     56      -3.2846      2.00000
     57      -3.2634      2.00000
     58      -3.2213      2.00000
     59      -3.1707      2.00000
     60      -3.0494      2.00000
     61      -3.0129      2.00000
     62      -3.0119      2.00000
     63      -2.9275      2.00000
     64      -2.6446      2.00000
     65      -2.6323      2.00000
     66      -2.5796      2.00000
     67      -2.5545      2.00000
     68      -2.5184      2.00000
     69      -2.4899      2.00000
     70      -2.4805      2.00000
     71      -2.4639      2.00000
     72      -2.4455      2.00000
     73      -2.4123      2.00000
     74      -2.4100      2.00000
     75      -2.3980      2.00000
     76      -2.3727      2.00000
     77      -2.3625      2.00000
     78      -2.3449      2.00000
     79      -2.3276      2.00000
     80      -2.3211      2.00000
     81      -2.3124      2.00000
     82      -2.3009      2.00000
     83      -2.2794      2.00000
     84      -2.2742      2.00000
     85      -2.2247      2.00000
     86      -2.1576      2.00000
     87      -2.1407      2.00000
     88      -2.1325      2.00000
     89      -2.0932      2.00000
     90      -2.0555      2.00000
     91      -2.0435      2.00000
     92      -2.0289      2.00000
     93      -2.0210      2.00000
     94      -1.9911      2.00000
     95      -1.9631      2.00000
     96      -1.9527      2.00000
     97      -1.9455      2.00000
     98      -1.8772      2.00000
     99      -1.7923      2.00000
    100      -1.7562      2.00000
    101      -1.6873      2.00000
    102      -1.6438      2.00000
    103      -1.6194      2.00000
    104      -1.6056      2.00000
    105      -1.5861      2.00000
    106      -1.5472      2.00000
    107      -1.5410      2.00000
    108      -1.5174      2.00000
    109      -1.4932      2.00000
    110      -1.4894      2.00000
    111      -1.4839      2.00000
    112      -1.4669      2.00000
    113      -1.4576      2.00000
    114      -1.3424      2.00000
    115      -1.2766      2.00000
    116      -1.1520      2.00000
    117      -1.1454      2.00000
    118      -1.0831      2.00000
    119      -1.0245      2.00000
[...]
     89      -2.1573      2.00000
     90      -2.1454      2.00000
     91      -2.1218      2.00000
     92      -2.0910      2.00000
     93      -2.0627      2.00000
     94      -1.9971      2.00000
     95      -1.9643      2.00000
     96      -1.9408      2.00000
     97      -1.9031      2.00000
     98      -1.8820      2.00000
     99      -1.8651      2.00000
    100      -1.8373      2.00000
    101      -1.7696      2.00000
    102      -1.7452      2.00000
    103      -1.7318      2.00000
    104      -1.7188      2.00000
    105      -1.7050      2.00000
    106      -1.6607      2.00000
    107      -1.6536      2.00000
    108      -1.6200      2.00000
    109      -1.6115      2.00000
    110      -1.5473      2.00000
    111      -1.5251      2.00000
    112      -1.4659      2.00000
    113      -1.4434      2.00000
    114      -1.3793      2.00000
    115      -1.3084      2.00000
    116      -1.2620      2.00000
    117      -1.2059      2.00000
    118      -1.1859      2.00000
    119      -1.1549      2.00000
    120      -1.0940      2.00000
    121      -1.0788      2.00000
    122      -1.0533      2.00000
    123      -1.0174      2.00000
    124      -0.9946      2.00000
    125      -0.9760      2.00000
    126      -0.9577      2.00000
    127      -0.9424      2.00000
    128      -0.9184      2.00000
    129      -0.9079      2.00000
    130      -0.8967      2.00000
    131      -0.8430      2.00000
    132      -0.8003      2.00000
    133      -0.7593      2.00000
    134      -0.7323      2.00000
    135      -0.7120      2.00000
    136      -0.6814      2.00000
    137      -0.6653      2.00000
    138      -0.6406      2.00000
    139      -0.6045      2.00000
    140      -0.5464      2.00000
    141      -0.4802      2.00000
    142      -0.4726      2.00000
    143      -0.3859      2.00000
    144      -0.2897      2.00000
    145      -0.2623      2.00000
    146      -0.1980      2.00000
    147      -0.1739      2.00000
    148      -0.1161      2.00000
    149      -0.0919      2.00000
    150      -0.0506      2.00000
    151      -0.0417      2.00000
    152       0.0530      2.00000
    153       0.0608      2.00000
    154       0.0862      2.00000
    155       0.0989      2.00000
    156       0.1093      2.00000
    157       0.1270      2.00000
    158       0.1714      2.00000
    159       0.2022      2.00000
    160       0.2154      2.00000
    161       0.2547      2.00000
    162       0.3113      2.00000
    163       0.3267      2.00000
    164       0.3597      2.00000
    165       0.3805      2.00000
    166       0.4068      2.00001
    167       0.5262      2.00028
    168       0.5855      2.00126
    169       0.6100      2.00221
    170       0.6260      2.00315
    171       0.6451      2.00469
    172       0.6851      2.01010
    173       0.7124      2.01608
    174       0.7967      2.04831
    175       0.8028      2.05111
    176       0.8265      2.06143
    177       0.8655      2.07090
    178       0.8850      2.06811
    179       0.9227      2.03737
    180       0.9477      1.99060
    181       0.9547      1.97293
    182       1.0338      1.60900
    183       1.0643      1.39150
    184       1.0998      1.10340
    185       1.1097      1.01977
    186       1.1152      0.97315
    187       1.1373      0.78804
    188       1.1536      0.65602
    189       1.1814      0.45007
    190       1.1987      0.33732
    191       1.3104     -0.04857
    192       1.3476     -0.07019
    193       1.3765     -0.06836
    194       1.4028     -0.05930
    195       1.4336     -0.04540
    196       1.4995     -0.01946
    197       1.5921     -0.00357
    198       1.7519     -0.00006
    199       1.8329     -0.00000
    200       2.0055     -0.00000
    201       2.2376     -0.00000
    202       2.3486     -0.00000
    203       2.7983     -0.00000
    204       2.9415     -0.00000
    205       2.9640     -0.00000
    206       2.9978     -0.00000
    207       3.0143     -0.00000
    208       3.2328     -0.00000
    209       3.3798     -0.00000
    210       3.5209     -0.00000
    211       3.5784     -0.00000
    212       3.6139     -0.00000
    213       3.7274     -0.00000
    214       3.8248     -0.00000
    215       3.9711     -0.00000
    216       4.1777     -0.00000
    217       4.2527     -0.00000
    218       4.4064     -0.00000
    219       4.4302     -0.00000
    220       4.6163     -0.00000
    221       4.6510     -0.00000
    222       4.8332     -0.00000
    223       5.1598     -0.00000
    224       5.5609     -0.00000
    225       5.8520     -0.00000
    226       6.5505     -0.00000
    227       6.5795      0.00000
    228       6.6212      0.00000


--------------------------------------------------------------------------------------------------------


 soft charge-density along one line, spin component           1
         0         1         2         3         4         5         6         7         8         9
 total charge-density along one line
 
 pseudopotential strength for first ion, spin component:           1
 10.097   0.015   0.004   0.010   0.001  -0.003  -0.009  -0.000
  0.015  -0.002  -0.000  -0.000  -0.000  -0.000  -0.000   0.000
  0.004  -0.000  -4.247  -0.006   0.001  -0.010  -0.002  -0.000
  0.010  -0.000  -0.006  -4.262   0.002  -0.002  -0.016   0.000
  0.001  -0.000   0.001   0.002  -4.245  -0.000   0.000  -0.009
 -0.003  -0.000  -0.010  -0.002  -0.000  -0.770  -0.000   0.000
 -0.009  -0.000  -0.002  -0.016   0.000  -0.000  -0.770   0.000
 -0.000   0.000  -0.000   0.000  -0.009   0.000   0.000  -0.770
 total augmentation occupancy for first ion, spin component:           1
  1.640  -0.857  -0.001  -0.003  -0.047   0.031   0.082  -0.018
 -0.857   1.191  -0.203  -0.535   0.062  -0.081  -0.225   0.021
 -0.001  -0.203   0.849   0.194   0.013   0.114   0.053  -0.002
 -0.003  -0.535   0.194   1.320   0.006   0.053   0.247  -0.004
 -0.047   0.062   0.013   0.006   0.780  -0.002  -0.005   0.096
  0.031  -0.081   0.114   0.053  -0.002   0.019   0.021  -0.002
  0.082  -0.225   0.053   0.247  -0.005   0.021   0.070  -0.004
 -0.018   0.021  -0.002  -0.004   0.096  -0.002  -0.004   0.013


------------------------ aborting loop because EDIFF is reached ----------------------------------------


    CHARGE:  cpu time    0.3399: real time    0.3418
    FORLOC:  cpu time    0.0435: real time    0.0437
    FORNL :  cpu time    2.2029: real time    2.2185
    STRESS:  cpu time    6.5878: real time    6.6356
    FORCOR:  cpu time    0.1576: real time    0.1587
    FORHAR:  cpu time    0.0725: real time    0.0730
    MIXING:  cpu time    0.0050: real time    0.0050
    OFIELD:  cpu time    0.0000: real time    0.0000

  FORCE on cell =-STRESS in cart. coord.  units (eV):
  Direction    XX          YY          ZZ          XY          YZ          ZX
  --------------------------------------------------------------------------------------
  Alpha Z   975.10247   975.10247   975.10247
  Ewald  111576.88506111610.41385************  -198.25179   241.75516   -85.64117
  Hartree118335.78230118325.94739************  -132.45012    97.49628   -51.95672
  E(xc)   -1666.26553 -1665.92652 -1673.53506    -0.45260     0.69682    -0.20374
  Local  ************************240637.66166   320.04123  -314.63465   132.10095
  n-local   125.41551   124.62785    93.36733    -1.75270     1.62552    -0.46050
  augment  1895.63434  1893.21302  1931.89858     3.17485    -4.66862     1.21007
  Kinetic  5526.15354  5514.52943  5598.79000    10.01662   -22.14520     5.74607
  Fock        0.00000     0.00000     0.00000     0.00000     0.00000     0.00000
  -------------------------------------------------------------------------------------
  Total     -34.33339   -37.29607    -2.57277     0.32549     0.12532     0.79497
  in kB     -40.89163   -44.42023    -3.06421     0.38766     0.14926     0.94683
  external pressure =      -29.46 kB  Pullay stress =        0.00 kB


 VOLUME and BASIS-vectors are now :
 -----------------------------------------------------------------------------
  energy-cutoff  :      450.00
  volume of cell :     1345.22
      direct lattice vectors                 reciprocal lattice vectors
     7.296955120 -4.212899000  0.000000000     0.137043463  0.000000000  0.000000000
     0.000000000  8.425798000  0.000000000     0.068521732  0.118683121  0.000000000
     0.000000000  0.000000000 21.879635000     0.000000000  0.000000000  0.045704602

  length of vectors
     8.425798004  8.425798000 21.879635000     0.137043463  0.137043463  0.045704602


 FORCES acting on ions
    electron-ion (+dipol)            ewald-force                    non-local-force                 convergence-correction
 -----------------------------------------------------------------------------------------------
   0.218E+02 0.190E+02 -.888E+03   -.229E+02 -.235E+02 0.877E+03   0.742E+00 0.411E+01 0.112E+02   -.102E-01 0.618E-02 -.130E-02
   -.731E+02 0.400E+02 -.160E+04   0.726E+02 -.347E+02 0.162E+04   0.114E+01 -.506E+01 -.239E+02   0.154E-01 0.720E-02 -.538E-02
   0.491E+02 -.990E+02 -.156E+04   -.540E+02 0.119E+03 0.162E+04   0.503E+01 -.204E+02 -.578E+02   0.562E-02 0.112E-03 -.185E-01
   0.661E-03 0.474E+00 0.234E+04   -.456E-01 -.469E+00 -.234E+04   0.223E-01 -.475E-01 -.120E+01   0.399E-01 0.204E-02 0.337E-01
   0.436E+00 0.624E-01 0.234E+04   -.426E+00 -.895E-01 -.234E+04   -.266E-01 -.439E-01 -.112E+01   -.266E-01 0.498E-01 0.304E-01
   -.642E-01 0.245E+00 0.234E+04   -.891E-02 -.263E+00 -.234E+04   0.236E-01 -.118E-01 -.114E+01   0.258E-01 0.158E-01 0.226E-01
   0.251E-01 0.142E+00 0.234E+04   -.207E-01 -.590E-01 -.234E+04   0.493E-02 0.667E-02 -.120E+01   0.150E-02 -.363E-01 0.276E-01
   0.735E-01 0.329E+00 0.234E+04   -.523E-01 -.281E+00 -.234E+04   0.261E-02 0.202E-01 -.128E+01   -.294E-01 -.502E-01 0.313E-01
   0.104E+00 -.733E-01 0.234E+04   -.867E-01 0.601E-01 -.234E+04   0.185E-01 0.147E-01 -.122E+01   -.236E-01 -.275E-02 0.293E-01
   0.867E-01 -.506E+00 0.234E+04   -.570E-03 0.368E+00 -.234E+04   -.656E-01 0.982E-01 -.108E+01   -.157E-01 0.215E-03 0.202E-01
   -.415E+00 -.119E+00 0.234E+04   0.417E+00 0.202E+00 -.234E+04   -.951E-02 -.305E-01 -.127E+01   0.249E-01 -.131E-01 0.245E-01
   -.182E+00 -.551E+00 0.234E+04   0.224E+00 0.528E+00 -.234E+04   -.149E-01 0.130E-01 -.103E+01   0.348E-02 0.343E-01 0.284E-01
   0.147E+01 -.392E+01 0.859E+03   -.157E+01 0.386E+01 -.858E+03   0.394E-01 0.479E-01 -.473E+00   -.154E-01 0.385E-01 0.595E-01
   -.338E+01 0.629E+00 0.864E+03   0.324E+01 -.601E+00 -.864E+03   0.179E+00 -.137E-01 -.317E+00   0.160E-01 0.249E-03 0.734E-01
   -.354E+00 -.189E+01 0.860E+03   0.468E+00 0.180E+01 -.860E+03   -.769E-01 0.435E-01 -.317E+00   0.300E-01 0.140E-01 0.527E-01
   0.416E-01 0.494E+01 0.862E+03   -.829E-01 -.498E+01 -.862E+03   0.486E-01 -.514E-01 -.342E+00   -.920E-02 0.330E-02 0.305E-01
   0.216E+01 -.291E+00 0.865E+03   -.221E+01 0.275E+00 -.865E+03   0.407E-01 0.154E-01 -.396E+00   -.134E-01 0.266E-01 0.569E-01
   0.978E+00 0.281E+01 0.864E+03   -.101E+01 -.286E+01 -.863E+03   -.219E-01 0.437E-01 -.324E+00   0.319E-01 -.141E-01 0.487E-01
   0.450E+00 -.507E+00 0.866E+03   -.380E+00 0.671E+00 -.866E+03   -.835E-01 -.857E-01 -.444E+00   -.176E-01 -.413E-01 0.637E-01
   -.932E+00 0.392E+00 0.865E+03   0.932E+00 -.333E+00 -.865E+03   0.546E-01 -.627E-01 -.464E+00   -.142E-01 -.273E-01 0.601E-01
   -.525E+00 -.233E+00 0.867E+03   0.596E+00 0.414E+00 -.867E+03   0.125E-03 -.141E+00 -.472E+00   -.844E-02 0.354E-03 0.678E-01
   -.105E+00 0.454E+01 -.632E+03   0.149E-01 -.460E+01 0.632E+03   -.476E-02 0.758E-02 0.641E+00   0.205E-01 -.436E-02 -.307E-01
   -.729E+00 -.226E+01 -.631E+03   0.748E+00 0.229E+01 0.630E+03   -.796E-02 0.232E-01 0.489E+00   -.305E-02 -.582E-02 0.548E-01
   -.219E+01 0.467E+01 -.657E+03   0.193E+01 -.429E+01 0.657E+03   0.180E+00 -.410E+00 0.151E+00   0.183E-01 -.112E-01 0.336E-02
   -.230E+01 0.106E+02 -.645E+03   0.180E+01 -.983E+01 0.646E+03   0.535E+00 -.691E+00 -.482E+00   -.255E-02 0.132E-01 -.472E-02
   0.117E+02 0.392E+01 -.623E+03   -.110E+02 -.401E+01 0.623E+03   -.671E+00 0.371E-01 0.153E+00   -.144E-01 0.249E-02 0.344E-01
   -.873E+01 -.127E+02 -.631E+03   0.854E+01 0.125E+02 0.631E+03   0.256E+00 0.218E+00 0.306E+00   0.390E-02 -.156E-01 0.207E-01
   -.171E+01 -.679E+01 -.636E+03   0.175E+01 0.675E+01 0.635E+03   -.950E-01 0.166E+00 0.549E+00   -.378E-02 -.699E-02 -.228E-01
   0.197E+01 -.173E+01 -.640E+03   -.194E+01 0.172E+01 0.640E+03   -.253E-01 -.254E-01 0.279E+00   -.792E-02 0.793E-02 -.151E-01
   -.117E+00 0.334E+00 -.634E+03   0.671E-01 -.539E+00 0.634E+03   0.132E+00 0.192E+00 0.359E+00   -.787E-02 0.120E-01 -.159E-01
   -.247E+02 -.145E+02 -.217E+04   0.252E+02 0.148E+02 0.217E+04   -.456E+00 -.258E+00 0.132E+01   0.528E-02 0.138E-01 0.117E-01
   0.212E+02 0.129E+02 -.213E+04   -.215E+02 -.137E+02 0.213E+04   0.230E+00 0.103E+01 0.155E+01   -.210E-01 -.230E-01 -.485E-01
   0.269E+02 -.170E+01 -.212E+04   -.275E+02 0.180E+01 0.212E+04   0.485E+00 -.113E+00 0.133E+01   -.480E-02 -.801E-02 -.269E-01
   -.116E+02 0.426E+01 -.220E+04   0.114E+02 -.451E+01 0.219E+04   0.256E+00 0.247E+00 0.852E+00   0.139E-01 0.998E-03 0.267E-01
   0.103E+02 0.161E+02 -.216E+04   -.104E+02 -.165E+02 0.216E+04   0.982E-01 0.216E+00 0.107E+01   0.226E-02 0.763E-02 -.424E-01
   0.648E+02 0.732E+02 -.197E+04   -.677E+02 -.715E+02 0.198E+04   0.270E+01 -.164E+01 -.317E+01   -.323E-02 -.694E-02 0.354E-02
   -.532E+02 -.491E+02 -.206E+04   0.547E+02 0.515E+02 0.206E+04   -.148E+01 -.242E+01 0.251E+01   0.166E-01 0.151E-01 -.328E-01
   -.528E+02 0.899E+02 -.205E+04   0.532E+02 -.906E+02 0.206E+04   -.584E+00 0.720E+00 -.118E+01   0.267E-01 -.141E-01 -.309E-01
   0.151E+02 -.679E+02 -.214E+04   -.150E+02 0.693E+02 0.214E+04   -.162E+00 -.132E+01 0.978E+00   -.113E-01 -.443E-03 0.647E-01
 -----------------------------------------------------------------------------------------------
   -.838E+01 0.257E+02 0.763E+02   0.906E-13 0.171E-12 -.109E-10   0.844E+01 -.256E+02 -.769E+02   0.383E-01 -.960E-02 0.686E+00
 
 
 POSITION                                       TOTAL-FORCE (eV/Angst)
 -----------------------------------------------------------------------------------
      5.03746      0.68361     10.32530        -0.420804     -0.397798      0.204684
      6.68009     -0.52230     10.13249         0.626575      0.275391     -0.061592
      4.94773      1.07216     11.41812         0.171519     -0.020992     -0.113766
      7.20031     -1.38846      1.62732         0.014718     -0.044598      0.135799
      2.33567      1.42014      1.62732        -0.045537     -0.024373      0.147656
      4.76799      0.01584      1.62732        -0.026275     -0.017445      0.140390
      7.20031      1.42015      1.62732         0.008331      0.049822      0.119253
      2.33567      4.22875      1.62732        -0.008234      0.014406      0.130555
      4.76799      2.82445      1.62732         0.009089     -0.004452      0.168580
      2.33567      7.03734      1.62732         0.002302     -0.042182      0.059566
      4.76799      5.63304      1.62732         0.014789      0.036443      0.113895
      7.20031      4.22874      1.62732         0.027488      0.020221      0.053653
      1.52490      0.01584      3.92052        -0.082630      0.021826     -0.110501
      3.95722     -1.38846      3.92052         0.055346      0.011586     -0.166767
      6.38953     -2.79276      3.92052         0.065315     -0.029452     -0.107985
      1.52490      2.82445      3.92052        -0.004354     -0.090464     -0.129596
      3.95722      1.42015      3.92052        -0.029496      0.022394     -0.115309
      6.38953      0.01585      3.92052        -0.025704     -0.022431     -0.049177
      1.52490      5.63305      3.92052        -0.034212      0.033975     -0.274266
      3.95722      4.22874      3.92052         0.038436     -0.034393     -0.173559
      6.38953      2.82445      3.92052         0.060109      0.036765     -0.274168
      0.72188      4.20316      6.17825        -0.077150     -0.059844      0.130112
      3.15108      5.61648      6.16815         0.004748      0.047041      0.036049
      5.58117     -1.38101      6.21743        -0.066334     -0.038319      0.095854
      0.68166      1.42854      6.21451         0.027322      0.044662      0.020237
      3.15905     -0.00028      6.17697        -0.030080     -0.052193      0.072726
      0.70269      7.01913      6.18091         0.069073      0.033750      0.019638
      5.58862      4.19614      6.18096        -0.056439      0.122647      0.056905
      3.15564      2.81404      6.19580        -0.005869     -0.031200     -0.032312
      5.57017      1.40487      6.19345         0.071860     -0.003297      0.012065
      2.36532      4.21294      8.47237         0.082418      0.006290     -0.155528
      4.77655      5.57211      8.42385        -0.081923      0.224410      0.169613
      2.33204      1.38697      8.42836        -0.048730     -0.020996      0.143285
      7.20692      4.17677      8.52698         0.027006     -0.003953     -0.168619
      2.34178      7.00833      8.45497        -0.009364     -0.124036      0.052309
      4.67868      0.04548      8.57432        -0.170343      0.028371     -0.066339
      7.26581      1.41883      8.42664        -0.025101     -0.055353      0.258413
      7.28321     -1.51995      8.60245        -0.135690      0.007928      0.092115
      4.79042      2.83839      8.53871         0.007827      0.079844     -0.433869
 -----------------------------------------------------------------------------------
    total drift:                                0.099037      0.126436      0.014243
  FORCES: max atom, RMS     0.687190    0.196013
  Number: max atom                 2
  FORCE total and by dimension    1.224104    0.626575


--------------------------------------------------------------------------------------------------------



  FREE ENERGIE OF THE ION-ELECTRON SYSTEM (eV)
  ---------------------------------------------------
  free  energy   TOTEN  =      -230.68144072 eV

  energy  without entropy=     -230.65539153  energy(sigma->0) =     -230.67275766
 
 d Force = 0.5342102E-01[ 0.473E-01, 0.595E-01]  d Energy = 0.5366663E-01-0.246E-03
 d Force =-0.4338277E+01[-0.419E+01,-0.449E+01]  d Ewald  =-0.4338695E+01 0.418E-03


--------------------------------------------------------------------------------------------------------


    POTLOK:  cpu time    0.1455: real time    0.2495


--------------------------------------------------------------------------------------------------------


 stress matrix after NEB project (eV)
    -34.33339      0.32549      0.79497
      0.32549    -37.29607      0.12532
      0.79497      0.12532     -2.57277
  FORCES: max atom, RMS     0.687190    0.196013
  FORCE total and by dimension    1.224104    0.626575
  Stress total and by dimension   50.773069   37.296067
 Quasi-Newton relaxation of ions (Broydens 2nd method)
  g(Force)  = 0.289E-01   g(Stress)= 0.000E+00

 retain information from N=  3 steps
 eigenvalues of (default step * inverse Hessian matrix)
  average eigenvalue of G=   4.8679
 eigenvalue spectrum of G is  0.9358  6.8340  6.8340
  RESET_HESSIAN           0


--------------------------------------------------------------------------------------------------------


    WAVPRE:  cpu time    0.0680: real time    0.3712
    FEWALD:  cpu time    0.0009: real time    0.0009

 real space projection operators:
  total allocation   :      13547.31 KBytes
  max/ min on nodes  :       6782.09       6765.22

    ORTHCH:  cpu time    0.8852: real time    0.8914
     LOOP+:  cpu time   67.0345: real time   68.1375


--------------------------------------- Iteration      6(   1)  ---------------------------------------


    POTLOK:  cpu time    0.1284: real time    0.4135
    SETDIJ:  cpu time    0.0093: real time    0.0093
