 running on    8 total cores
 distrk:  each k-point on    8 cores,    1 groups
 distr:  one band on    2 cores,    4 groups
 using from now: INCAR     
 vasp.5.4.4 16052018 (build Apr 24 2014 20:13:14) complex standard
 Contain Constrained Minimization Technique (TS), Periodic NBO, VASPsol, libbeef, VASP2WANNIER90, Constrained Cell Relaxation
 POSCAR found type information on POSCAR  C  O  Pt
 POSCAR found :  3 types and      39 ions
 scaLAPACK will be used
 LDA part: xc-table for Pade appr. of Perdew
 POSCAR found type information on POSCAR  C  O  Pt
 POSCAR found :  3 types and      39 ions
 POSCAR, INCAR and KPOINTS ok, starting setup
 FFT: planning ...
 WAVECAR not read
 entering main loop
       N       E                     dE             d eps       ncg     rms          rms(c)
DAV:   1     0.242484242512E+04    0.24248E+04   -0.15953E+05  1824   0.129E+03
DAV:   2    -0.626288998435E+02   -0.24875E+04   -0.23077E+04  2112   0.286E+02
DAV:   3    -0.240203070424E+03   -0.17757E+03   -0.16076E+03  2136   0.692E+01
DAV:   4    -0.248135799094E+03   -0.79327E+01   -0.76406E+01  2352   0.139E+01
DAV:   5    -0.248369630525E+03   -0.23383E+00   -0.23149E+00  2368   0.244E+00    0.274E+01
RMM:   6    -0.245535001322E+03    0.28346E+01   -0.55559E+01  1831   0.149E+01    0.283E+01
RMM:   7    -0.238934970197E+03    0.66000E+01   -0.32024E+01  1831   0.896E+00    0.188E+01
RMM:   8    -0.241320184675E+03   -0.23852E+01   -0.82959E+00  1829   0.477E+00    0.231E+01
RMM:   9    -0.232448252053E+03    0.88719E+01   -0.31128E+00  1829   0.277E+00    0.108E+01
RMM:  10    -0.230688363760E+03    0.17599E+01   -0.15551E+00  1831   0.202E+00    0.477E+00
RMM:  11    -0.230317598190E+03    0.37077E+00   -0.40707E-01  1831   0.102E+00    0.325E+00
RMM:  12    -0.230198761982E+03    0.11884E+00   -0.20160E-01  1831   0.713E-01    0.247E+00
RMM:  13    -0.230145776148E+03    0.52986E-01   -0.15373E-01  1831   0.643E-01    0.175E+00
RMM:  14    -0.230107254356E+03    0.38522E-01   -0.81840E-02  1830   0.491E-01    0.887E-01
RMM:  15    -0.230097014895E+03    0.10239E-01   -0.26511E-02  1832   0.276E-01    0.468E-01
RMM:  16    -0.230095520756E+03    0.14941E-02   -0.70081E-03  1829   0.143E-01    0.328E-01
RMM:  17    -0.230094190147E+03    0.13306E-02   -0.26577E-03  1821   0.885E-02    0.161E-01
RMM:  18    -0.230094322886E+03   -0.13274E-03   -0.10317E-03  1777   0.536E-02    0.139E-01
RMM:  19    -0.230094183276E+03    0.13961E-03   -0.40513E-04  1337   0.360E-02    0.580E-02
RMM:  20    -0.230094304920E+03   -0.12164E-03   -0.14116E-04  1008   0.215E-02    0.433E-02
RMM:  21    -0.230094431775E+03   -0.12686E-03   -0.60834E-05   996   0.146E-02    0.214E-02
RMM:  22    -0.230094498628E+03   -0.66853E-04   -0.21355E-05   937   0.798E-03
   1 F= -.23009450E+03 E0= -.23008795E+03  d E =-.230094E+03
 BRION: g(F)=  0.289E+00 g(S)=  0.000E+00
 bond charge predicted
       N       E                     dE             d eps       ncg     rms          rms(c)
DAV:   1    -0.230296917101E+03   -0.20249E+00   -0.29637E+01  1856   0.980E+00    0.601E-01
RMM:   2    -0.230349132932E+03   -0.52216E-01   -0.46568E-01  1831   0.151E+00    0.943E-01
RMM:   3    -0.230349037047E+03    0.95885E-04   -0.34773E-02  1851   0.333E-01    0.935E-01
RMM:   4    -0.230336885896E+03    0.12151E-01   -0.70664E-03  1855   0.140E-01    0.417E-01
RMM:   5    -0.230334225852E+03    0.26600E-02   -0.23932E-03  1825   0.805E-02    0.275E-01
RMM:   6    -0.230334090458E+03    0.13539E-03   -0.37626E-03  1829   0.101E-01    0.280E-01
RMM:   7    -0.230333483263E+03    0.60720E-03   -0.39992E-03  1828   0.107E-01    0.180E-01
RMM:   8    -0.230333051609E+03    0.43165E-03   -0.95021E-04  1816   0.533E-02    0.691E-02
RMM:   9    -0.230333020345E+03    0.31264E-04   -0.15939E-04   999   0.230E-02
   2 F= -.23033302E+03 E0= -.23032561E+03  d E =-.238522E+00
 BRION: g(F)=  0.182E+00 g(S)=  0.000E+00 retain N=  1 mean eig= 1.73
 eig:   1.735
 bond charge predicted
       N       E                     dE             d eps       ncg     rms          rms(c)
DAV:   1    -0.230396068031E+03   -0.63016E-01   -0.20548E+01  1832   0.855E+00    0.620E-01
RMM:   2    -0.230448383527E+03   -0.52315E-01   -0.53320E-01  1852   0.140E+00    0.725E-01
RMM:   3    -0.230443713869E+03    0.46697E-02   -0.25631E-02  1848   0.285E-01    0.685E-01
RMM:   4    -0.230439236211E+03    0.44777E-02   -0.43604E-03  1887   0.109E-01    0.487E-01
RMM:   5    -0.230436412604E+03    0.28236E-02   -0.41487E-03  1832   0.104E-01    0.346E-01
RMM:   6    -0.230436837749E+03   -0.42514E-03   -0.78335E-03  1830   0.146E-01    0.425E-01
RMM:   7    -0.230434205599E+03    0.26322E-02   -0.35117E-03  1829   0.101E-01    0.140E-01
RMM:   8    -0.230433970065E+03    0.23553E-03   -0.70571E-04  1718   0.460E-02    0.813E-02
RMM:   9    -0.230433875527E+03    0.94538E-04   -0.16664E-04  1017   0.240E-02
   3 F= -.23043388E+03 E0= -.23042609E+03  d E =-.100855E+00
 BRION: g(F)=  0.449E+00 g(S)=  0.000E+00 retain N=  2 mean eig= 1.00
 eig:   1.000  1.000
 bond charge predicted
       N       E                     dE             d eps       ncg     rms          rms(c)
DAV:   1    -0.230557102800E+03   -0.12313E+00   -0.53006E+01  1824   0.135E+01    0.914E-01
RMM:   2    -0.230663562995E+03   -0.10646E+00   -0.94278E-01  1834   0.208E+00    0.126E+00
RMM:   3    -0.230666288551E+03   -0.27256E-02   -0.62740E-02  1869   0.444E-01    0.148E+00
RMM:   4    -0.230635521595E+03    0.30767E-01   -0.17496E-02  1843   0.222E-01    0.597E-01
RMM:   5    -0.230630897206E+03    0.46244E-02   -0.77457E-03  1833   0.146E-01    0.436E-01
RMM:   6    -0.230631097007E+03   -0.19980E-03   -0.97265E-03  1831   0.164E-01    0.465E-01
RMM:   7    -0.230628761776E+03    0.23352E-02   -0.58388E-03  1832   0.130E-01    0.241E-01
RMM:   8    -0.230627946590E+03    0.81519E-03   -0.16636E-03  1824   0.706E-02    0.104E-01
RMM:   9    -0.230627826663E+03    0.11993E-03   -0.30796E-04  1149   0.316E-02    0.680E-02
RMM:  10    -0.230627774097E+03    0.52566E-04   -0.14154E-04   978   0.230E-02
   4 F= -.23062777E+03 E0= -.23061920E+03  d E =-.193899E+00
 BRION: g(F)=  0.451E-01 g(S)=  0.000E+00 retain N=  2 mean eig= 1.17
 eig:   1.174  1.174
 bond charge predicted
       N       E                     dE             d eps       ncg     rms          rms(c)
DAV:   1    -0.230666791518E+03   -0.38965E-01   -0.92482E+00  1832   0.595E+00    0.440E-01
RMM:   2    -0.230695229646E+03   -0.28438E-01   -0.18234E-01  1833   0.861E-01    0.881E-01
RMM:   3    -0.230687369463E+03    0.78602E-02   -0.12581E-02  1853   0.197E-01    0.586E-01
RMM:   4    -0.230682806185E+03    0.45633E-02   -0.48430E-03  1834   0.116E-01    0.284E-01
RMM:   5    -0.230681785390E+03    0.10208E-02   -0.13594E-03  1825   0.632E-02    0.171E-01
RMM:   6    -0.230681729176E+03    0.56214E-04   -0.11879E-03  1817   0.576E-02    0.158E-01
RMM:   7    -0.230681611788E+03    0.11739E-03   -0.95713E-04  1800   0.530E-02    0.105E-01
RMM:   8    -0.230681455497E+03    0.15629E-03   -0.21753E-04  1034   0.270E-02    0.421E-02
RMM:   9    -0.230681440723E+03    0.14775E-04   -0.54318E-05   960   0.139E-02
   5 F= -.23068144E+03 E0= -.23067276E+03  d E =-.536666E-01
 BRION: g(F)=  0.289E-01 g(S)=  0.000E+00 retain N=  3 mean eig= 4.87
 eig:   0.936  6.834  6.834
 bond charge predicted
       N       E                     dE             d eps       ncg     rms          rms(c)
[mpiexec@node06] Sending Ctrl-C to processes as requested
[mpiexec@node06] Press Ctrl-C again to force abort
Ctrl-C caught... cleaning up processes
APPLICATION TERMINATED WITH THE EXIT STRING: Hangup (signal 1)
