metal                                   
           1
     7.296955   -4.212899    0.000000
     0.000000    8.425798    0.000000
     0.000000    0.000000   21.879635
   C    O    Pt
   1   2  36
Direct configuration=     1
   0.70060728  0.43667009  0.47220526
   0.90731349  0.38787327  0.46229182
   0.67247074  0.46352597  0.52209379
   0.98675500  0.32859100  0.07437600
   0.32008800  0.32859100  0.07437600
   0.65342200  0.32859100  0.07437600
   0.98675500  0.66192500  0.07437600
   0.32008800  0.66192500  0.07437600
   0.65342200  0.66192500  0.07437600
   0.32008800  0.99525800  0.07437600
   0.65342200  0.99525800  0.07437600
   0.98675500  0.99525800  0.07437600
   0.20897700  0.10636900  0.17918600
   0.54231100  0.10636900  0.17918600
   0.87564400  0.10636900  0.17918600
   0.20897700  0.43970300  0.17918600
   0.54231100  0.43970300  0.17918600
   0.87564400  0.43970300  0.17918600
   0.20897700  0.77303600  0.17918600
   0.54231100  0.77303600  0.17918600
   0.87564400  0.77303600  0.17918600
   0.10154973  0.54804256  0.27924354
   0.43554630  0.88666997  0.28562959
   0.76721541  0.21619760  0.28409539
   0.09132062  0.21740020  0.28313183
   0.42970220  0.21317863  0.28359688
   0.09829488  0.87944858  0.28196202
   0.76415631  0.87979839  0.27915953
   0.43261690  0.55131990  0.28077376
   0.76064159  0.54907622  0.28040097
   0.32375230  0.66612403  0.38880663
   0.65004209  0.98590680  0.38219969
   0.31785999  0.32013118  0.38459017
   0.99073288  0.99390574  0.39221422
   0.32562972  0.99669797  0.38391936
   0.64277610  0.32206334  0.39259152
   0.99815367  0.66709867  0.38473940
   0.99834402  0.31811067  0.39342632
   0.65470571  0.66391914  0.39412229
Direct configuration=     2
   0.69840630  0.43451665  0.47173538
   0.90860022  0.38936034  0.46267439
   0.67363594  0.46420272  0.52228111
   0.98675500  0.32859100  0.07437600
   0.32008800  0.32859100  0.07437600
   0.65342200  0.32859100  0.07437600
   0.98675500  0.66192500  0.07437600
   0.32008800  0.66192500  0.07437600
   0.65342200  0.66192500  0.07437600
   0.32008800  0.99525800  0.07437600
   0.65342200  0.99525800  0.07437600
   0.98675500  0.99525800  0.07437600
   0.20897700  0.10636900  0.17918600
   0.54231100  0.10636900  0.17918600
   0.87564400  0.10636900  0.17918600
   0.20897700  0.43970300  0.17918600
   0.54231100  0.43970300  0.17918600
   0.87564400  0.43970300  0.17918600
   0.20897700  0.77303600  0.17918600
   0.54231100  0.77303600  0.17918600
   0.87564400  0.77303600  0.17918600
   0.10095861  0.54838628  0.28008559
   0.43428591  0.88512360  0.28437172
   0.76673783  0.21713632  0.28402837
   0.09189917  0.21694169  0.28339945
   0.43077780  0.21444009  0.28312072
   0.09746567  0.87972188  0.28211003
   0.76482338  0.87999781  0.28006586
   0.43252843  0.55100135  0.28147785
   0.76129969  0.54878740  0.28116010
   0.32365540  0.66478385  0.38847255
   0.65178979  0.98648075  0.38301875
   0.31834766  0.32149211  0.38469178
   0.98980247  0.99262586  0.39160934
   0.32400586  0.99549403  0.38471100
   0.64273235  0.32352801  0.39251700
   0.99747502  0.66695817  0.38468940
   0.99875088  0.31827028  0.39318823
   0.65522007  0.66412718  0.39327423
Direct configuration=     3
   0.69606227  0.43306926  0.47251869
   0.91008188  0.39085612  0.46286563
   0.67516083  0.46427400  0.52141211
   0.98675500  0.32859100  0.07437600
   0.32008800  0.32859100  0.07437600
   0.65342200  0.32859100  0.07437600
   0.98675500  0.66192500  0.07437600
   0.32008800  0.66192500  0.07437600
   0.65342200  0.66192500  0.07437600
   0.32008800  0.99525800  0.07437600
   0.65342200  0.99525800  0.07437600
   0.98675500  0.99525800  0.07437600
   0.20897700  0.10636900  0.17918600
   0.54231100  0.10636900  0.17918600
   0.87564400  0.10636900  0.17918600
   0.20897700  0.43970300  0.17918600
   0.54231100  0.43970300  0.17918600
   0.87564400  0.43970300  0.17918600
   0.20897700  0.77303600  0.17918600
   0.54231100  0.77303600  0.17918600
   0.87564400  0.77303600  0.17918600
   0.10041206  0.54848772  0.28075923
   0.43346915  0.88419720  0.28355540
   0.76623798  0.21768045  0.28403097
   0.09235778  0.21666406  0.28359624
   0.43150530  0.21516824  0.28282576
   0.09699080  0.88007974  0.28222664
   0.76523532  0.88022192  0.28080575
   0.43250332  0.55076979  0.28202203
   0.76186372  0.54861998  0.28174865
   0.32371128  0.66385922  0.38814138
   0.65281376  0.98700056  0.38359951
   0.31876068  0.32246479  0.38480441
   0.98909729  0.99164480  0.39108219
   0.32299634  0.99457831  0.38524942
   0.64239350  0.32432755  0.39231582
   0.99695010  0.66679848  0.38473690
   0.99873954  0.31842980  0.39312127
   0.65561476  0.66435799  0.39249036
Direct configuration=     4
   0.69244223  0.42875881  0.47172582
   0.91305003  0.39366106  0.46312928
   0.67703087  0.46578015  0.52198840
   0.98675500  0.32859100  0.07437600
   0.32008800  0.32859100  0.07437600
   0.65342200  0.32859100  0.07437600
   0.98675500  0.66192500  0.07437600
   0.32008800  0.66192500  0.07437600
   0.65342200  0.66192500  0.07437600
   0.32008800  0.99525800  0.07437600
   0.65342200  0.99525800  0.07437600
   0.98675500  0.99525800  0.07437600
   0.20897700  0.10636900  0.17918600
   0.54231100  0.10636900  0.17918600
   0.87564400  0.10636900  0.17918600
   0.20897700  0.43970300  0.17918600
   0.54231100  0.43970300  0.17918600
   0.87564400  0.43970300  0.17918600
   0.20897700  0.77303600  0.17918600
   0.54231100  0.77303600  0.17918600
   0.87564400  0.77303600  0.17918600
   0.09942069  0.54858348  0.28193498
   0.43211601  0.88268905  0.28219312
   0.76533066  0.21854608  0.28405960
   0.09314737  0.21622518  0.28393345
   0.43271399  0.21634617  0.28235233
   0.09624055  0.88075765  0.28243073
   0.76589431  0.88063544  0.28208141
   0.43246909  0.55037139  0.28294903
   0.76287280  0.54836817  0.28276794
   0.32386627  0.66232362  0.38753950
   0.65445967  0.98796495  0.38461088
   0.31946648  0.32409875  0.38502375
   0.98789930  0.98997158  0.39013987
   0.32130586  0.99295032  0.38616525
   0.64183801  0.32583716  0.39206536
   0.99603978  0.66648795  0.38486501
   0.99861530  0.31869686  0.39305553
   0.65629531  0.66480777  0.39104138
Direct configuration=     5
   0.69035108  0.42630908  0.47191365
   0.91546204  0.39574292  0.46310137
   0.67805431  0.46627476  0.52186040
   0.98675500  0.32859100  0.07437600
   0.32008800  0.32859100  0.07437600
   0.65342200  0.32859100  0.07437600
   0.98675500  0.66192500  0.07437600
   0.32008800  0.66192500  0.07437600
   0.65342200  0.66192500  0.07437600
   0.32008800  0.99525800  0.07437600
   0.65342200  0.99525800  0.07437600
   0.98675500  0.99525800  0.07437600
   0.20897700  0.10636900  0.17918600
   0.54231100  0.10636900  0.17918600
   0.87564400  0.10636900  0.17918600
   0.20897700  0.43970300  0.17918600
   0.54231100  0.43970300  0.17918600
   0.87564400  0.43970300  0.17918600
   0.20897700  0.77303600  0.17918600
   0.54231100  0.77303600  0.17918600
   0.87564400  0.77303600  0.17918600
   0.09892910  0.54830839  0.28237441
   0.43183444  0.88249899  0.28191264
   0.76486295  0.21852866  0.28416501
   0.09341700  0.21625253  0.28403151
   0.43292729  0.21643048  0.28231592
   0.09629878  0.88120157  0.28249585
   0.76588402  0.88095255  0.28249842
   0.43246012  0.55020870  0.28317635
   0.76335604  0.54841218  0.28306917
   0.32415178  0.66208023  0.38722648
   0.65459473  0.98861290  0.38500891
   0.31959030  0.32440525  0.38521470
   0.98766117  0.98954308  0.38972237
   0.32092547  0.99223346  0.38643119
   0.64118310  0.32598927  0.39188582
   0.99573165  0.66625757  0.38513626
   0.99811598  0.31866593  0.39317172
   0.65649529  0.66511621  0.39025856
