       N       E                     dE             d eps       ncg     rms          rms(c)
DAV:   1     0.242320103808E+04    0.24232E+04   -0.15952E+05  1824   0.129E+03
DAV:   2    -0.649360283718E+02   -0.24881E+04   -0.23129E+04  2136   0.286E+02
DAV:   3    -0.241249812311E+03   -0.17631E+03   -0.16013E+03  2168   0.690E+01
DAV:   4    -0.248682386456E+03   -0.74326E+01   -0.71749E+01  2296   0.136E+01
DAV:   5    -0.248917847967E+03   -0.23546E+00   -0.23348E+00  2432   0.247E+00    0.277E+01
RMM:   6    -0.247124629454E+03    0.17932E+01   -0.55909E+01  1827   0.150E+01    0.301E+01
RMM:   7    -0.239269660851E+03    0.78550E+01   -0.33518E+01  1831   0.911E+00    0.186E+01
RMM:   8    -0.244968424086E+03   -0.56988E+01   -0.86375E+00  1829   0.471E+00    0.245E+01
RMM:   9    -0.231961509814E+03    0.13007E+02   -0.37459E+00  1831   0.308E+00    0.913E+00
RMM:  10    -0.230697280816E+03    0.12642E+01   -0.13906E+00  1831   0.190E+00    0.500E+00
RMM:  11    -0.230271027975E+03    0.42625E+00   -0.41501E-01  1831   0.103E+00    0.300E+00
RMM:  12    -0.230165877000E+03    0.10515E+00   -0.19544E-01  1835   0.692E-01    0.233E+00
RMM:  13    -0.230124158044E+03    0.41719E-01   -0.13389E-01  1831   0.618E-01    0.170E+00
RMM:  14    -0.230092782542E+03    0.31376E-01   -0.91326E-02  1831   0.522E-01    0.998E-01
RMM:  15    -0.230080758159E+03    0.12024E-01   -0.25588E-02  1832   0.272E-01    0.489E-01
RMM:  16    -0.230078606651E+03    0.21515E-02   -0.70395E-03  1831   0.142E-01    0.326E-01
RMM:  17    -0.230077949568E+03    0.65708E-03   -0.25745E-03  1823   0.862E-02    0.219E-01
RMM:  18    -0.230077999048E+03   -0.49480E-04   -0.13690E-03  1815   0.634E-02    0.147E-01
RMM:  19    -0.230077987374E+03    0.11674E-04   -0.50957E-04  1525   0.399E-02
   1 F= -.23007799E+03 E0= -.23007153E+03  d E =-.230078E+03
       N       E                     dE             d eps       ncg     rms          rms(c)
DAV:   1    -0.230293072870E+03   -0.21507E+00   -0.30946E+01  1852   0.102E+01    0.691E-01
RMM:   2    -0.230369062368E+03   -0.75989E-01   -0.56196E-01  1834   0.159E+00    0.153E+00
RMM:   3    -0.230350839429E+03    0.18223E-01   -0.40765E-02  1870   0.354E-01    0.908E-01
RMM:   4    -0.230341977433E+03    0.88620E-02   -0.10025E-02  1850   0.168E-01    0.584E-01
RMM:   5    -0.230337572763E+03    0.44047E-02   -0.38340E-03  1839   0.102E-01    0.363E-01
RMM:   6    -0.230336516071E+03    0.10567E-02   -0.32885E-03  1830   0.969E-02    0.224E-01
RMM:   7    -0.230336818893E+03   -0.30282E-03   -0.45907E-03  1828   0.116E-01    0.204E-01
RMM:   8    -0.230336254075E+03    0.56482E-03   -0.12015E-03  1815   0.594E-02    0.846E-02
RMM:   9    -0.230336193322E+03    0.60752E-04   -0.19010E-04  1024   0.256E-02
   2 F= -.23033619E+03 E0= -.23032920E+03  d E =-.258206E+00
       N       E                     dE             d eps       ncg     rms          rms(c)
DAV:   1    -0.230424337654E+03   -0.88084E-01   -0.57424E+01  1824   0.141E+01    0.102E+00
RMM:   2    -0.230607597318E+03   -0.18326E+00   -0.11858E+00  1836   0.225E+00    0.250E+00
RMM:   3    -0.230542129514E+03    0.65468E-01   -0.76896E-02  1865   0.485E-01    0.127E+00
RMM:   4    -0.230521446058E+03    0.20683E-01   -0.22294E-02  1849   0.252E-01    0.739E-01
RMM:   5    -0.230514674942E+03    0.67711E-02   -0.88876E-03  1840   0.158E-01    0.527E-01
RMM:   6    -0.230512964292E+03    0.17107E-02   -0.10495E-02  1834   0.173E-01    0.377E-01
RMM:   7    -0.230511999817E+03    0.96447E-03   -0.78994E-03  1835   0.153E-01    0.292E-01
RMM:   8    -0.230510692067E+03    0.13078E-02   -0.20396E-03  1832   0.774E-02    0.103E-01
RMM:   9    -0.230510592432E+03    0.99636E-04   -0.32938E-04  1176   0.330E-02
   3 F= -.23051059E+03 E0= -.23050270E+03  d E =-.174399E+00
       N       E                     dE             d eps       ncg     rms          rms(c)
DAV:   1    -0.230587171098E+03   -0.76479E-01   -0.11059E+01  1832   0.629E+00    0.499E-01
RMM:   2    -0.230627049845E+03   -0.39879E-01   -0.29361E-01  1848   0.104E+00    0.111E+00
RMM:   3    -0.230615170834E+03    0.11879E-01   -0.15626E-02  1857   0.219E-01    0.632E-01
RMM:   4    -0.230610447365E+03    0.47235E-02   -0.46248E-03  1847   0.116E-01    0.397E-01
RMM:   5    -0.230608852597E+03    0.15948E-02   -0.21312E-03  1827   0.757E-02    0.301E-01
RMM:   6    -0.230608319007E+03    0.53359E-03   -0.43837E-03  1830   0.111E-01    0.235E-01
RMM:   7    -0.230607577981E+03    0.74103E-03   -0.21897E-03  1822   0.797E-02    0.137E-01
RMM:   8    -0.230607317575E+03    0.26041E-03   -0.56742E-04  1595   0.410E-02    0.720E-02
RMM:   9    -0.230607242638E+03    0.74937E-04   -0.13012E-04   984   0.213E-02
   4 F= -.23060724E+03 E0= -.23059914E+03  d E =-.966502E-01
       N       E                     dE             d eps       ncg     rms          rms(c)
