 vasp.5.4.4 16052018 (build Apr 24 2014 20:13:14) complex standard
 Contain Constrained Minimization Technique (TS), Periodic NBO, VASPsol, libbeef, VASP2WANNIER90, Constrained Cell Relaxation
 executed on Center for Computational Chemistry by phu@node13 date 2025.09.27 23:38:53
 running on    8 total cores
 distrk:  each k-point on    8 cores,    1 groups
 distr:  one band on NCORES_PER_BAND=   2 cores,    4 groups


--------------------------------------------------------------------------------------------------------


 INCAR:
 POTCAR:   PAW_PBE C 08Apr2002                    
 POTCAR:   PAW_PBE O 08Apr2002                    
 POTCAR:    PAW_PBE Pt 04Feb2005                  
 POTCAR:   PAW_PBE C 08Apr2002                    
   VRHFIN =C: s2p2                                                              
   LEXCH  = PE                                                                  
   EATOM  =   147.1560 eV,   10.8157 Ry                                         
                                                                                
   TITEL  = PAW_PBE C 08Apr2002                                                 
   LULTRA =        F    use ultrasoft PP ?                                      
   IUNSCR =        0    unscreen: 0-lin 1-nonlin 2-no                           
   RPACOR =     .000    partial core radius                                     
   POMASS =   12.011; ZVAL   =    4.000    mass and valenz                      
   RCORE  =    1.500    outmost cutoff radius                                   
   RWIGS  =    1.630; RWIGS  =     .863    wigner-seitz radius (au A)           
   ENMAX  =  400.000; ENMIN  =  300.000 eV                                      
   ICORE  =        2    local potential                                         
   LCOR   =        T    correct aug charges                                     
   LPAW   =        T    paw PP                                                  
   EAUG   =  644.873                                                            
   DEXC   =     .000                                                            
   RMAX   =    2.266    core radius for proj-oper                               
   RAUG   =    1.300    factor for augmentation sphere                          
   RDEP   =    1.501    radius for radial grids                                 
   RDEPT  =    1.300    core radius for aug-charge                              
   QCUT   =   -5.516; QGAM   =   11.032    optimization parameters              
                                                                                
   Description                                                                  
     l     E      TYP  RCUT    TYP  RCUT                                        
     0   .000     23  1.200                                                     
     0   .000     23  1.200                                                     
     1   .000     23  1.500                                                     
     1  2.500     23  1.500                                                     
     2   .000      7  1.500                                                     
  local pseudopotential read in
  atomic valenz-charges read in
  non local Contribution for L=           0  read in
    real space projection operators read in
  non local Contribution for L=           0  read in
    real space projection operators read in
  non local Contribution for L=           1  read in
    real space projection operators read in
  non local Contribution for L=           1  read in
    real space projection operators read in
    PAW grid and wavefunctions read in
 
   number of l-projection  operators is LMAX  =           4
   number of lm-projection operators is LMMAX =           8
 
 POTCAR:   PAW_PBE O 08Apr2002                    
   VRHFIN =O: s2p4                                                              
   LEXCH  = PE                                                                  
   EATOM  =   432.3788 eV,   31.7789 Ry                                         
                                                                                
   TITEL  = PAW_PBE O 08Apr2002                                                 
   LULTRA =        F    use ultrasoft PP ?                                      
   IUNSCR =        0    unscreen: 0-lin 1-nonlin 2-no                           
   RPACOR =     .000    partial core radius                                     
   POMASS =   16.000; ZVAL   =    6.000    mass and valenz                      
   RCORE  =    1.520    outmost cutoff radius                                   
   RWIGS  =    1.550; RWIGS  =     .820    wigner-seitz radius (au A)           
   ENMAX  =  400.000; ENMIN  =  300.000 eV                                      
   ICORE  =        2    local potential                                         
   LCOR   =        T    correct aug charges                                     
   LPAW   =        T    paw PP                                                  
   EAUG   =  605.392                                                            
   DEXC   =     .000                                                            
   RMAX   =    2.264    core radius for proj-oper                               
   RAUG   =    1.300    factor for augmentation sphere                          
   RDEP   =    1.550    radius for radial grids                                 
   QCUT   =   -5.520; QGAM   =   11.041    optimization parameters              
                                                                                
   Description                                                                  
     l     E      TYP  RCUT    TYP  RCUT                                        
     0   .000     23  1.200                                                     
     0  -.700     23  1.200                                                     
     1   .000     23  1.520                                                     
     1   .600     23  1.520                                                     
     2   .000      7  1.500                                                     
  local pseudopotential read in
  atomic valenz-charges read in
  non local Contribution for L=           0  read in
    real space projection operators read in
  non local Contribution for L=           0  read in
    real space projection operators read in
  non local Contribution for L=           1  read in
    real space projection operators read in
  non local Contribution for L=           1  read in
    real space projection operators read in
    PAW grid and wavefunctions read in
 
   number of l-projection  operators is LMAX  =           4
   number of lm-projection operators is LMMAX =           8
 
 POTCAR:    PAW_PBE Pt 04Feb2005                  
   VRHFIN =Pt: s1d9                                                             
   LEXCH  = PE                                                                  
   EATOM  =   729.1182 eV,   53.5887 Ry                                         
                                                                                
   TITEL  = PAW_PBE Pt 04Feb2005                                                
   LULTRA =        F    use ultrasoft PP ?                                      
   IUNSCR =        1    unscreen: 0-lin 1-nonlin 2-no                           
   RPACOR =    2.330    partial core radius                                     
   POMASS =  195.080; ZVAL   =   10.000    mass and valenz                      
   RCORE  =    2.600    outmost cutoff radius                                   
   RWIGS  =    2.750; RWIGS  =    1.455    wigner-seitz radius (au A)           
   ENMAX  =  230.283; ENMIN  =  172.712 eV                                      
   ICORE  =        3    local potential                                         
   LCOR   =        T    correct aug charges                                     
   LPAW   =        T    paw PP                                                  
   EAUG   =  358.966                                                            
   DEXC   =     .000                                                            
   RMAX   =    3.038    core radius for proj-oper                               
   RAUG   =    1.300    factor for augmentation sphere                          
   RDEP   =    2.761    radius for radial grids                                 
   QCUT   =   -4.114; QGAM   =    8.228    optimization parameters              
                                                                                
   Description                                                                  
     l     E      TYP  RCUT    TYP  RCUT                                        
     2   .000     23  2.500                                                     
     2   .000     23  2.500                                                     
     0   .000     23  2.500                                                     
     0   .000     23  2.500                                                     
     1  -.200     23  2.600                                                     
     1  1.500     23  2.600                                                     
     3   .000     23  2.500                                                     
  local pseudopotential read in
  partial core-charges read in
  atomic valenz-charges read in
  non local Contribution for L=           2  read in
    real space projection operators read in
  non local Contribution for L=           2  read in
    real space projection operators read in
  non local Contribution for L=           0  read in
    real space projection operators read in
  non local Contribution for L=           0  read in
    real space projection operators read in
  non local Contribution for L=           1  read in
    real space projection operators read in
  non local Contribution for L=           1  read in
    real space projection operators read in
    PAW grid and wavefunctions read in
 
   number of l-projection  operators is LMAX  =           6
   number of lm-projection operators is LMMAX =          18
 
 Optimization of the real space projectors (new method)

 maximal supplied QI-value         = 25.13
 optimisation between [QCUT,QGAM] = [ 10.81, 21.61] = [ 32.71,130.83] Ry 
 Optimized for a Real-space Cutoff    1.23 Angstroem

   l    n(q)    QCUT    max X(q) W(low)/X(q) W(high)/X(q)  e(spline) 
   0      8    10.807     5.582    0.53E-04    0.84E-04    0.44E-07
   0      8    10.807    69.432    0.35E-03    0.71E-03    0.24E-06
   1      7    10.807     2.780    0.44E-04    0.88E-04    0.89E-07
   1      7    10.807     4.549    0.14E-03    0.28E-03    0.13E-06
 Optimization of the real space projectors (new method)

 maximal supplied QI-value         = 24.76
 optimisation between [QCUT,QGAM] = [ 10.64, 21.54] = [ 31.73,129.89] Ry 
 Optimized for a Real-space Cutoff    1.23 Angstroem

   l    n(q)    QCUT    max X(q) W(low)/X(q) W(high)/X(q)  e(spline) 
   0      8    10.645     4.192    0.69E-04    0.93E-04    0.58E-07
   0      8    10.645     8.473    0.40E-03    0.65E-03    0.17E-06
   1      7    10.645     2.474    0.80E-04    0.12E-03    0.30E-07
   1      7    10.645     3.912    0.24E-03    0.53E-03    0.16E-06
 Optimization of the real space projectors (new method)

 maximal supplied QI-value         = 14.36
 optimisation between [QCUT,QGAM] = [ 10.77, 21.69] = [ 32.49,131.70] Ry 
 Optimized for a Real-space Cutoff    1.46 Angstroem

   l    n(q)    QCUT    max X(q) W(low)/X(q) W(high)/X(q)  e(spline) 
   2      9    10.771     3.903    0.38E-04    0.12E-03    0.82E-07
   2      9    10.771    18.372    0.13E-03    0.32E-03    0.28E-06
   0     10    10.771    13.697    0.11E-04    0.86E-05    0.85E-08
   0     10    10.771    65.529    0.40E-04    0.12E-03    0.14E-06
   1      9    10.771     7.604    0.48E-04    0.31E-04    0.38E-07
   1      9    10.771    12.136    0.35E-03    0.16E-03    0.23E-06
 PAW_PBE C 08Apr2002                    :
 energy of atom  1       EATOM= -147.1560
 kinetic energy error for atom=    0.0116 (will be added to EATOM!!)
 PAW_PBE O 08Apr2002                    :
 energy of atom  2       EATOM= -432.3788
 kinetic energy error for atom=    0.0389 (will be added to EATOM!!)
  PAW_PBE Pt 04Feb2005                  :
 energy of atom  3       EATOM= -729.1182
 kinetic energy error for atom=    0.0051 (will be added to EATOM!!)
 
 
 POSCAR: C    O    Pt                            
  positions in direct lattice
  No initial velocities read in
 exchange correlation table for  LEXCH =        8
   RHO(1)=    0.500       N(1)  =     2000
   RHO(2)=  100.500       N(2)  =     4000

 VTST: version 3.2, (02/03/18)

 CHAIN: initializing optimizer
 
 OPT: Using VASP QUASI-newton optimizer
 CHAIN: Read ICHAIN            0
 
 POSCAR: C    O    Pt                            
  positions in direct lattice
  No initial velocities read in
 


--------------------------------------------------------------------------------------------------------


 ion  position               nearest neighbor table
   1  0.700  0.440  0.471-   3 1.16  36 1.86   2 2.01
   2  0.906  0.384  0.468-   1 2.01  38 2.01  36 2.55
   3  0.672  0.467  0.521-   1 1.16
   4  0.987  0.329  0.074-  15 2.81  16 2.81  12 2.81   5 2.81  11 2.81   6 2.81  18 2.81   8 2.81
                             7 2.81
   5  0.320  0.329  0.074-  13 2.81  10 2.81   4 2.81  12 2.81  16 2.81  17 2.81   8 2.81   9 2.81
                             6 2.81
   6  0.653  0.329  0.074-  14 2.81  18 2.81  11 2.81   4 2.81  17 2.81   7 2.81  10 2.81   9 2.81
                             5 2.81
   7  0.987  0.662  0.074-  18 2.81  21 2.81  19 2.81  12 2.81   8 2.81  10 2.81   9 2.81   6 2.81
                             4 2.81
   8  0.320  0.662  0.074-  16 2.81  19 2.81  10 2.81   7 2.81  20 2.81   4 2.81  11 2.81   5 2.81
                             9 2.81
   9  0.653  0.662  0.074-  17 2.81  20 2.81  21 2.81  11 2.81  12 2.81   7 2.81   6 2.81   5 2.81
                             8 2.81
  10  0.320  0.995  0.074-  13 2.81  19 2.81   5 2.81   8 2.81  12 2.81   7 2.81  14 2.81   6 2.81
                            11 2.81
  11  0.653  0.995  0.074-  14 2.81  20 2.81  15 2.81   9 2.81   6 2.81  12 2.81   4 2.81   8 2.81
                            10 2.81
  12  0.987  0.995  0.074-  15 2.81  21 2.81  13 2.81   7 2.81   4 2.81  10 2.81   5 2.81  11 2.81
                             9 2.81
  13  0.209  0.106  0.179-  27 2.72  26 2.78   5 2.81  10 2.81  12 2.81  19 2.81  15 2.81  21 2.81
                            16 2.81  14 2.81  17 2.81  25 2.87
  14  0.542  0.106  0.179-  26 2.71  23 2.77  24 2.78  11 2.81   6 2.81  20 2.81  15 2.81  10 2.81
                            18 2.81  19 2.81  17 2.81  13 2.81
  15  0.876  0.106  0.179-   4 2.81  12 2.81  11 2.81  21 2.81  13 2.81  20 2.81  14 2.81  16 2.81
                            18 2.81  24 2.82  28 2.83  25 2.85
  16  0.209  0.440  0.179-  22 2.79   8 2.81   4 2.81  19 2.81  18 2.81   5 2.81  15 2.81  20 2.81
                            13 2.81  17 2.81  25 2.83  29 2.88
  17  0.542  0.440  0.179-  26 2.77   9 2.81  20 2.81  21 2.81  18 2.81   6 2.81   5 2.81  14 2.81
                            13 2.81  16 2.81  30 2.83  29 2.88
  18  0.876  0.440  0.179-  22 2.75  24 2.80   7 2.81   6 2.81  21 2.81  19 2.81  16 2.81  17 2.81
                             4 2.81  14 2.81  15 2.81  30 2.83
  19  0.209  0.773  0.179-  27 2.68  22 2.77  23 2.78  10 2.81   8 2.81   7 2.81  16 2.81  13 2.81
                            21 2.81  18 2.81  14 2.81  20 2.81
  20  0.542  0.773  0.179-  23 2.72  28 2.81   9 2.81  11 2.81  17 2.81  14 2.81  15 2.81  21 2.81
                             8 2.81  16 2.81  19 2.81  29 2.87
  21  0.876  0.773  0.179-  27 2.70  28 2.81   7 2.81  12 2.81   9 2.81  18 2.81  15 2.81  19 2.81
                            13 2.81  17 2.81  20 2.81  30 2.85
  22  0.094  0.552  0.282-  37 2.70  27 2.74  18 2.75  19 2.77  30 2.78  16 2.79  25 2.80  24 2.81
                            23 2.83  29 2.85  31 2.89  38 2.96
  23  0.436  0.881  0.281-  20 2.72  29 2.75  28 2.75  14 2.77  19 2.78  24 2.79  32 2.79  26 2.80
                            22 2.83  27 2.84  31 2.85  35 2.88
  24  0.760  0.218  0.284-  26 2.70  30 2.76  32 2.78  14 2.78  23 2.79  18 2.80  22 2.81  15 2.82
                            25 2.83  28 2.85  36 2.93  38 2.95
  25  0.097  0.222  0.286-  38 2.73  22 2.80  29 2.81  33 2.82  34 2.82  24 2.83  16 2.83  28 2.85
                            15 2.85  13 2.87  27 2.90  26 2.91
  26  0.438  0.214  0.281-  24 2.70  14 2.71  17 2.77  30 2.77  13 2.78  23 2.80  35 2.81  27 2.84
                            29 2.89  25 2.91  36 2.92  33 2.95
  27  0.098  0.879  0.278-  19 2.68  21 2.70  13 2.72  22 2.74  37 2.78  30 2.82  23 2.84  28 2.84
                            26 2.84  35 2.86  25 2.90  34 2.91
  28  0.763  0.881  0.284-  39 2.74  32 2.75  23 2.75  29 2.77  20 2.81  21 2.81  30 2.81  15 2.83
                            27 2.84  34 2.84  25 2.85  24 2.85
  29  0.432  0.553  0.288-  39 2.68  31 2.74  23 2.75  28 2.77  30 2.81  25 2.81  33 2.82  22 2.85
                            20 2.87  17 2.88  16 2.88  26 2.89
  30  0.762  0.547  0.286-  39 2.71  37 2.71  24 2.76  26 2.77  22 2.78  29 2.81  28 2.81  27 2.82
                            17 2.83  18 2.83  21 2.85  36 2.90
  31  0.324  0.665  0.389-  29 2.74  32 2.78  37 2.79  39 2.81  35 2.82  38 2.83  33 2.84  23 2.85
                            22 2.89
  32  0.654  0.994  0.386-  28 2.75  24 2.78  31 2.78  23 2.79  39 2.83  38 2.83  36 2.83  35 2.85
                            34 2.87
  33  0.319  0.325  0.392-  38 2.67  36 2.75  35 2.77  34 2.79  25 2.82  29 2.82  39 2.83  31 2.84
                            26 2.95
  34  0.992  0.990  0.389-  35 2.71  37 2.75  38 2.75  33 2.79  39 2.82  25 2.82  28 2.84  32 2.87
                            27 2.91
  35  0.316  0.996  0.387-  34 2.71  37 2.76  33 2.77  36 2.77  26 2.81  31 2.82  32 2.85  27 2.86
                            23 2.88
  36  0.644  0.325  0.395-   1 1.86   2 2.55  33 2.75  35 2.77  39 2.78  32 2.83  30 2.90  37 2.92
                            26 2.92  24 2.93  38 3.01
  37  0.993  0.665  0.383-  22 2.70  30 2.71  34 2.75  35 2.76  27 2.78  31 2.79  39 2.83  36 2.92
                            38 2.94
  38  0.999  0.320  0.392-   2 2.01  33 2.67  25 2.73  34 2.75  31 2.83  32 2.83  37 2.94  24 2.95
                            22 2.96  36 3.01
  39  0.655  0.659  0.385-  29 2.68  30 2.71  28 2.74  36 2.78  31 2.81  34 2.82  32 2.83  33 2.83
                            37 2.83
 

IMPORTANT INFORMATION: All symmetrisations will be switched off!
NOSYMM: (Re-)initialisation of all symmetry stuff for point group C_1.

 
 
 KPOINTS: mesh auto                               

Automatic generation of k-mesh.
Space group operators:
 irot       det(A)        alpha          n_x          n_y          n_z        tau_x        tau_y        tau_z
    1     1.000000     0.000000     1.000000     0.000000     0.000000     0.000000     0.000000     0.000000
 
 Subroutine IBZKPT returns following result:
 ===========================================
 
 Found      4 irreducible k-points:
 
 Following reciprocal coordinates:
            Coordinates               Weight
  0.000000  0.000000  0.000000      1.000000
  0.500000  0.000000  0.000000      1.000000
 -0.000000  0.500000  0.000000      1.000000
  0.500000  0.500000  0.000000      1.000000
 
 Following cartesian coordinates:
            Coordinates               Weight
  0.000000  0.000000  0.000000      1.000000
  0.068522  0.000000  0.000000      1.000000
  0.034261  0.059342  0.000000      1.000000
  0.102783  0.059342  0.000000      1.000000
 


--------------------------------------------------------------------------------------------------------




 Dimension of arrays:
   k-points           NKPTS =      4   k-points in BZ     NKDIM =      4   number of bands    NBANDS=    228
   number of dos      NEDOS =    301   number of ions     NIONS =     39
   non local maximal  LDIM  =      6   non local SUM 2l+1 LMDIM =     18
   total plane-waves  NPLWV = 276480
   max r-space proj   IRMAX =   2756   max aug-charges    IRDMAX=  12646
   dimension x,y,z NGX =    48 NGY =   48 NGZ =  120
   dimension x,y,z NGXF=    96 NGYF=   96 NGZF=  240
   support grid    NGXF=    96 NGYF=   96 NGZF=  240
   ions per type =               1   2  36
   NGX,Y,Z   is equivalent  to a cutoff of   9.47,  9.47,  9.12 a.u.
   NGXF,Y,Z  is equivalent  to a cutoff of  18.94, 18.94, 18.24 a.u.

 SYSTEM =  metal                                   
 POSCAR =  C    O    Pt                            

 Startparameter for this run:
   NWRITE =      2    write-flag & timer
   PREC   = normal    normal or accurate (medium, high low for compatibility)
   ISTART =      0    job   : 0-new  1-cont  2-samecut
   ICHARG =      2    charge: 1-file 2-atom 10-const
   ISPIN  =      1    spin polarized calculation?
   LNONCOLLINEAR =      F non collinear calculations
   LSORBIT =      F    spin-orbit coupling
   INIWAV =      1    electr: 0-lowe 1-rand  2-diag
   LASPH  =      F    aspherical Exc in radial PAW
   METAGGA=      F    non-selfconsistent MetaGGA calc.

 Electronic Relaxation 1
   ENCUT  =  450.0 eV  33.07 Ry    5.75 a.u.  14.57 14.57 37.84*2*pi/ulx,y,z
   ENINI  =  450.0     initial cutoff
   ENAUG  =  644.9 eV  augmentation charge cutoff
   NELM   =     60;   NELMIN=  8; NELMDL= -5     # of ELM steps 
   EDIFF  = 0.1E-03   stopping-criterion for ELM
   LREAL  =      T    real-space projection
   NLSPLINE    = F    spline interpolate recip. space projectors
   LCOMPAT=      F    compatible to vasp.4.4
   GGA_COMPAT  = T    GGA compatible to vasp.4.4-vasp.4.6
   LMAXPAW     = -100 max onsite density
   LMAXMIX     =    2 max onsite mixed and CHGCAR
   VOSKOWN=      0    Vosko Wilk Nusair interpolation
   ROPT   =   -0.00050  -0.00050  -0.00050
 Ionic relaxation
   EDIFFG = -.5E-01   stopping-criterion for IOM
   NSW    =   5000    number of steps for IOM
   NBLOCK =      1;   KBLOCK =   5000    inner block; outer block 
   IBRION =      1    ionic relax: 0-MD 1-quasi-New 2-CG
   NFREE  =      0    steps in history (QN), initial steepest desc. (CG)
   ISIF   =      2    stress and relaxation
   IWAVPR =     11    prediction:  0-non 1-charg 2-wave 3-comb
   ISYM   =      0    0-nonsym 1-usesym 2-fastsym
   LCORR  =      T    Harris-Foulkes like correction to forces

   POTIM  = 0.2000    time-step for ionic-motion
   TEIN   =    0.0    initial temperature
   TEBEG  =    0.0;   TEEND  =   0.0 temperature during run
   SMASS  =  -3.00    Nose mass-parameter (am)
   estimated Nose-frequenzy (Omega)   =  0.10E-29 period in steps =****** mass=  -0.162E-26a.u.
   SCALEE = 1.0000    scale energy and forces
   NPACO  =    256;   APACO  = 16.0  distance and # of slots for P.C.
   PSTRESS=    0.0 pullay stress

  Mass of Ions in am
   POMASS =  12.01 16.00195.08
  Ionic Valenz
   ZVAL   =   4.00  6.00 10.00
  Atomic Wigner-Seitz radii
   RWIGS  =  -1.00 -1.00 -1.00
  virtual crystal weights 
   VCA    =   1.00  1.00  1.00
   NELECT =     376.0000    total number of electrons
   NUPDOWN=      -1.0000    fix difference up-down

 DOS related values:
   EMIN   =  10.00;   EMAX   =-10.00  energy-range for DOS
   EFERMI =   0.00
   ISMEAR =     1;   SIGMA  =   0.20  broadening in eV -4-tet -1-fermi 0-gaus

 Electronic relaxation 2 (details)
   IALGO  =     68    algorithm
   LDIAG  =      T    sub-space diagonalisation (order eigenvalues)
   LSUBROT=      F    optimize rotation matrix (better conditioning)
   TURBO    =      0    0=normal 1=particle mesh
   IRESTART =      0    0=no restart 2=restart with 2 vectors
   NREBOOT  =      0    no. of reboots
   NMIN     =      0    reboot dimension
   EREF     =   0.00    reference energy to select bands
   IMIX   =      4    mixing-type and parameters
     AMIX     =   0.40;   BMIX     =  1.00
     AMIX_MAG =   1.60;   BMIX_MAG =  1.00
     AMIN     =   0.10
     WC   =   100.;   INIMIX=   1;  MIXPRE=   1;  MAXMIX= -45

 Intra band minimization:
   WEIMIN = 0.0010     energy-eigenvalue tresh-hold
   EBREAK =  0.11E-06  absolut break condition
   DEPER  =   0.30     relativ break condition  

   TIME   =   0.40     timestep for ELM

  volume/ion in A,a.u.               =      34.49       232.77
  Fermi-wavevector in a.u.,A,eV,Ry     =   1.070385  2.022734 15.588510  1.145723
  Thomas-Fermi vector in A             =   2.206093
 
 Write flags
   LWAVE        =      F    write WAVECAR
   LDOWNSAMPLE  =      F    k-point downsampling of WAVECAR
   LCHARG       =      F    write CHGCAR
   LVTOT        =      F    write LOCPOT, total local potential
   LVHAR        =      F    write LOCPOT, Hartree potential only
   LELF         =      F    write electronic localiz. function (ELF)
   LORBIT       =      0    0 simple, 1 ext, 2 COOP (PROOUT), +10 PAW based schemes


 Dipole corrections
   LMONO  =      F    monopole corrections only (constant potential shift)
   LDIPOL =      F    correct potential (dipole corrections)
   IDIPOL =      0    1-x, 2-y, 3-z, 4-all directions 
   EPSILON=  1.0000000 bulk dielectric constant

 Exchange correlation treatment:
   GGA     =    --    GGA type
   LEXCH   =     8    internal setting for exchange type
   VOSKOWN=      0    Vosko Wilk Nusair interpolation
   LHFCALC =     F    Hartree Fock is set to
   LHFONE  =     F    Hartree Fock one center treatment
   AEXX    =    0.0000 exact exchange contribution

 Linear response parameters
   LEPSILON=     F    determine dielectric tensor
   LRPA    =     F    only Hartree local field effects (RPA)
   LNABLA  =     F    use nabla operator in PAW spheres
   LVEL    =     F    velocity operator in full k-point grid
   LINTERFAST=   F  fast interpolation
   KINTER  =     0    interpolate to denser k-point grid
   CSHIFT  =0.1000    complex shift for real part using Kramers Kronig
   OMEGAMAX=  -1.0    maximum frequency
   DEG_THRESHOLD= 0.2000000E-02 threshold for treating states as degnerate
   RTIME   =   -0.100 relaxation time in fs
  (WPLASMAI=    0.000 imaginary part of plasma frequency in eV, 0.658/RTIME)
   DFIELD  = 0.0000000 0.0000000 0.0000000 field for delta impulse in time
 
 Orbital magnetization related:
   ORBITALMAG=     F  switch on orbital magnetization
   LCHIMAG   =     F  perturbation theory with respect to B field
   DQ        =  0.001000  dq finite difference perturbation B field
   LLRAUG    =     F  two centre corrections for induced B field



--------------------------------------------------------------------------------------------------------


 quasi-Newton-method for relaxation of ions
   using selective dynamics as specified on POSCAR
 charge density and potential will be updated during run
 non-spin polarized calculation
 RMM-DIIS sequential band-by-band and
  variant of blocked Davidson during initial phase
 perform sub-space diagonalisation
    before iterative eigenvector-optimisation
 modified Broyden-mixing scheme, WC =      100.0
 initial mixing is a Kerker type mixing with AMIX =  0.4000 and BMIX =      1.0000
 Hartree-type preconditioning will be used
 using additional bands           40
 real space projection scheme for non local part
 use partial core corrections
 calculate Harris-corrections to forces 
   (improved forces if not selfconsistent)
 use gradient corrections 
 use of overlap-Matrix (Vanderbilt PP)
 Methfessel and Paxton  Order N= 1 SIGMA  =   0.20


--------------------------------------------------------------------------------------------------------


  energy-cutoff  :      450.00
  volume of cell :     1345.22
      direct lattice vectors                 reciprocal lattice vectors
     7.296955120 -4.212899000  0.000000000     0.137043463  0.000000000  0.000000000
     0.000000000  8.425798000  0.000000000     0.068521732  0.118683121  0.000000000
     0.000000000  0.000000000 21.879635000     0.000000000  0.000000000  0.045704602

  length of vectors
     8.425798004  8.425798000 21.879635000     0.137043463  0.137043463  0.045704602


 
 k-points in units of 2pi/SCALE and weight: mesh auto                               
   0.00000000  0.00000000  0.00000000       0.250
   0.06852173  0.00000000  0.00000000       0.250
   0.03426087  0.05934156  0.00000000       0.250
   0.10278260  0.05934156  0.00000000       0.250
 
 k-points in reciprocal lattice and weights: mesh auto                               
   0.00000000  0.00000000  0.00000000       0.250
   0.50000000  0.00000000  0.00000000       0.250
  -0.00000000  0.50000000  0.00000000       0.250
   0.50000000  0.50000000  0.00000000       0.250
 
 position of ions in fractional coordinates (direct lattice) 
   0.69997379  0.43985667  0.47120620
   0.90581808  0.38448279  0.46769060
   0.67183725  0.46671255  0.52109473
   0.98675500  0.32859100  0.07437600
   0.32008800  0.32859100  0.07437600
   0.65342200  0.32859100  0.07437600
   0.98675500  0.66192500  0.07437600
   0.32008800  0.66192500  0.07437600
   0.65342200  0.66192500  0.07437600
   0.32008800  0.99525800  0.07437600
   0.65342200  0.99525800  0.07437600
   0.98675500  0.99525800  0.07437600
   0.20897700  0.10636900  0.17918600
   0.54231100  0.10636900  0.17918600
   0.87564400  0.10636900  0.17918600
   0.20897700  0.43970300  0.17918600
   0.54231100  0.43970300  0.17918600
   0.87564400  0.43970300  0.17918600
   0.20897700  0.77303600  0.17918600
   0.54231100  0.77303600  0.17918600
   0.87564400  0.77303600  0.17918600
   0.09378531  0.55160712  0.28183078
   0.43600875  0.88082492  0.28095043
   0.76027792  0.21843937  0.28350622
   0.09736554  0.22174265  0.28635750
   0.43792827  0.21365603  0.28092383
   0.09847814  0.87911013  0.27795607
   0.76283016  0.88099556  0.28428394
   0.43248877  0.55336345  0.28787630
   0.76207473  0.54687359  0.28557262
   0.32435139  0.66478414  0.38922161
   0.65407264  0.99418568  0.38592727
   0.31871005  0.32542673  0.39180169
   0.99209216  0.99029834  0.38940872
   0.31614673  0.99569895  0.38679979
   0.64403191  0.32457843  0.39517928
   0.99309498  0.66483547  0.38274094
   0.99879713  0.32004747  0.39238763
   0.65495033  0.65923787  0.38549059
 
 position of ions in cartesian coordinates  (Angst):
   5.10767734  0.75722455 10.30981973
   6.60971390 -0.57654581 10.23289968
   4.90236623  1.10204321 11.40136260
   7.20030695 -1.38845776  1.62731973
   2.33566777  1.42014298  1.62731973
   4.76799101  0.01584050  1.62731973
   7.20030695  1.42014719  1.62731973
   2.33566777  4.22874793  1.62731973
   4.76799101  2.82444545  1.62731973
   2.33566777  7.03734445  1.62731973
   4.76799101  5.63304198  1.62731973
   7.20030695  4.22874371  1.62731973
   1.52489579  0.01584471  3.92052428
   3.95721903 -1.38845776  3.92052428
   6.38953497 -2.79275602  3.92052428
   1.52489579  2.82444966  3.92052428
   3.95721903  1.42014719  3.92052428
   6.38953497  0.01584893  3.92052428
   1.52489579  5.63304619  3.92052428
   3.95721903  4.22874371  3.92052428
   6.38953497  2.82444545  3.92052428
   0.68434721  4.25262212  6.16635455
   3.18153631  5.58479203  6.14709295
   5.54771387 -1.36244808  6.20301254
   0.71047199  1.45816762  6.26539766
   3.19554292 -0.04472503  6.14651096
   0.71859056  6.99232597  6.08157741
   5.56633746  4.20936417  6.22002885
   3.15585112  2.84049718  6.29862848
   5.56082512  1.39730254  6.24822472
   2.36677755  4.23487721  8.51602681
   4.77273868  5.62126575  8.44394778
   2.32561295  1.39928664  8.57247795
   7.23925196  4.16446975  8.52012074
   2.30690849  7.05766399  8.46303814
   4.69947192  0.02159091  8.64637850
   7.24656950  1.41796050  8.37423209
   7.28817785 -1.51117609  8.58529802
   4.77914313  2.79536559  8.43439337
 


--------------------------------------------------------------------------------------------------------


 k-point  1 :   0.0000 0.0000 0.0000  plane waves:   29241
 k-point  2 :   0.5000 0.0000 0.0000  plane waves:   29108
 k-point  3 :  -0.0000 0.5000 0.0000  plane waves:   29108
 k-point  4 :   0.5000 0.5000 0.0000  plane waves:   29108

 maximum and minimum number of plane-waves per node :     14624    14548

 maximum number of plane-waves:     29241
 maximum index in each direction: 
   IXMAX=   14   IYMAX=   14   IZMAX=   37
   IXMIN=  -15   IYMIN=  -15   IZMIN=  -37


 real space projection operators:
  total allocation   :      13556.08 KBytes
  max/ min on nodes  :       6785.56       6770.52


 parallel 3D FFT for wavefunctions:
    minimum data exchange during FFTs selected (reduces bandwidth)
 parallel 3D FFT for charge:
    minimum data exchange during FFTs selected (reduces bandwidth)


 total amount of memory used by VASP MPI-rank0   131951. kBytes
=======================================================================

   base      :      30000. kBytes
   nonlr-proj:      10143. kBytes
   fftplans  :      13556. kBytes
   grid      :      23353. kBytes
   one-center:        311. kBytes
   wavefun   :      54588. kBytes
 
     INWAV:  cpu time    0.0001: real time    0.0001
 Broyden mixing: mesh for mixing (old mesh)
   NGX = 29   NGY = 29   NGZ = 75
  (NGX  = 96   NGY  = 96   NGZ  =240)
  gives a total of  63075 points

 initial charge density was supplied:
 charge density of overlapping atoms calculated
 number of electron     376.0000000 magnetization 
 keeping initial charge density in first step


--------------------------------------------------------------------------------------------------------


 Maximum index for non-local projection operator         1318
 Maximum index for augmentation-charges         1558 (set IRDMAX)


--------------------------------------------------------------------------------------------------------


 First call to EWALD:  gamma=   0.161
 Maximum number of real-space cells 4x 4x 2
 Maximum number of reciprocal cells 2x 2x 5

    FEWALD:  cpu time    0.0030: real time    0.0031


--------------------------------------- Iteration      1(   1)  ---------------------------------------


    POTLOK:  cpu time    0.2133: real time    0.2780
    SETDIJ:  cpu time    0.0118: real time    0.0119
     EDDAV:  cpu time   14.1259: real time   14.4304
       DOS:  cpu time    0.0012: real time    0.0012
    --------------------------------------------
      LOOP:  cpu time   14.3523: real time   14.7216

 eigenvalue-minimisations  :  1824
 total energy-change (2. order) : 0.2423201E+04  (-0.1595231E+05)
 number of electron     376.0000000 magnetization 
 augmentation part      376.0000000 magnetization 

 Free energy of the ion-electron system (eV)
  ---------------------------------------------------
  alpha Z        PSCENC =       975.10247152
  Ewald energy   TEWEN  =     91396.27040744
  -Hartree energ DENC   =   -120484.80223642
  -exchange      EXHF   =         0.00000000
  -V(xc)+E(xc)   XCENC  =       189.72839843
  PAW double counting   =     24789.08602224   -23775.73976456
  entropy T*S    EENTRO =         0.00197890
  eigenvalues    EBANDS =      2073.65959967
  atomic energy  EATOM  =     27259.89416086
  Solvation  Ediel_sol  =         0.00000000
  ---------------------------------------------------
  free energy    TOTEN  =      2423.20103808 eV

  energy without entropy =     2423.19905918  energy(sigma->0) =     2423.20037845


--------------------------------------------------------------------------------------------------------




--------------------------------------- Iteration      1(   2)  ---------------------------------------


     EDDAV:  cpu time   15.0724: real time   15.3201
       DOS:  cpu time    0.0013: real time    0.0013
    --------------------------------------------
      LOOP:  cpu time   15.0737: real time   15.3213

 eigenvalue-minimisations  :  2136
 total energy-change (2. order) :-0.2488137E+04  (-0.2312891E+04)
 number of electron     376.0000000 magnetization 
 augmentation part      376.0000000 magnetization 

 Free energy of the ion-electron system (eV)
  ---------------------------------------------------
  alpha Z        PSCENC =       975.10247152
  Ewald energy   TEWEN  =     91396.27040744
  -Hartree energ DENC   =   -120484.80223642
  -exchange      EXHF   =         0.00000000
  -V(xc)+E(xc)   XCENC  =       189.72839843
  PAW double counting   =     24789.08602224   -23775.73976456
  entropy T*S    EENTRO =         0.00760866
  eigenvalues    EBANDS =      -414.48309654
  atomic energy  EATOM  =     27259.89416086
  Solvation  Ediel_sol  =         0.00000000
  ---------------------------------------------------
  free energy    TOTEN  =       -64.93602837 eV

  energy without entropy =      -64.94363703  energy(sigma->0) =      -64.93856459


--------------------------------------------------------------------------------------------------------




--------------------------------------- Iteration      1(   3)  ---------------------------------------


     EDDAV:  cpu time   12.9415: real time   13.0907
       DOS:  cpu time    0.0010: real time    0.0010
    --------------------------------------------
      LOOP:  cpu time   12.9425: real time   13.0917

 eigenvalue-minimisations  :  2168
 total energy-change (2. order) :-0.1763138E+03  (-0.1601267E+03)
 number of electron     376.0000000 magnetization 
 augmentation part      376.0000000 magnetization 

 Free energy of the ion-electron system (eV)
  ---------------------------------------------------
  alpha Z        PSCENC =       975.10247152
  Ewald energy   TEWEN  =     91396.27040744
  -Hartree energ DENC   =   -120484.80223642
  -exchange      EXHF   =         0.00000000
  -V(xc)+E(xc)   XCENC  =       189.72839843
  PAW double counting   =     24789.08602224   -23775.73976456
  entropy T*S    EENTRO =        -0.00159013
  eigenvalues    EBANDS =      -590.78768169
  atomic energy  EATOM  =     27259.89416086
  Solvation  Ediel_sol  =         0.00000000
  ---------------------------------------------------
  free energy    TOTEN  =      -241.24981231 eV

  energy without entropy =     -241.24822218  energy(sigma->0) =     -241.24928227


--------------------------------------------------------------------------------------------------------




--------------------------------------- Iteration      1(   4)  ---------------------------------------


     EDDAV:  cpu time   13.4638: real time   13.5580
       DOS:  cpu time    0.0013: real time    0.0013
    --------------------------------------------
      LOOP:  cpu time   13.4651: real time   13.5593

 eigenvalue-minimisations  :  2296
 total energy-change (2. order) :-0.7432574E+01  (-0.7174945E+01)
 number of electron     376.0000000 magnetization 
 augmentation part      376.0000000 magnetization 

 Free energy of the ion-electron system (eV)
  ---------------------------------------------------
  alpha Z        PSCENC =       975.10247152
  Ewald energy   TEWEN  =     91396.27040744
  -Hartree energ DENC   =   -120484.80223642
  -exchange      EXHF   =         0.00000000
  -V(xc)+E(xc)   XCENC  =       189.72839843
  PAW double counting   =     24789.08602224   -23775.73976456
  entropy T*S    EENTRO =         0.00522691
  eigenvalues    EBANDS =      -598.22707287
  atomic energy  EATOM  =     27259.89416086
  Solvation  Ediel_sol  =         0.00000000
  ---------------------------------------------------
  free energy    TOTEN  =      -248.68238646 eV

  energy without entropy =     -248.68761337  energy(sigma->0) =     -248.68412876


--------------------------------------------------------------------------------------------------------




--------------------------------------- Iteration      1(   5)  ---------------------------------------


     EDDAV:  cpu time   14.2573: real time   14.3580
       DOS:  cpu time    0.0011: real time    0.0011
    CHARGE:  cpu time    0.5875: real time    0.5914
    MIXING:  cpu time    0.0102: real time    0.0103
    --------------------------------------------
      LOOP:  cpu time   14.8562: real time   14.9609

 eigenvalue-minimisations  :  2432
 total energy-change (2. order) :-0.2354615E+00  (-0.2334841E+00)
 number of electron     376.0000027 magnetization 
 augmentation part      105.7517061 magnetization 

 Broyden mixing:
  rms(total) = 0.27665E+01    rms(broyden)= 0.27661E+01
  rms(prec ) = 0.30888E+01
  weight for this iteration     100.00

 Free energy of the ion-electron system (eV)
  ---------------------------------------------------
  alpha Z        PSCENC =       975.10247152
  Ewald energy   TEWEN  =     91396.27040744
  -Hartree energ DENC   =   -120484.80223642
  -exchange      EXHF   =         0.00000000
  -V(xc)+E(xc)   XCENC  =       189.72839843
  PAW double counting   =     24789.08602224   -23775.73976456
  entropy T*S    EENTRO =         0.00479240
  eigenvalues    EBANDS =      -598.46209987
  atomic energy  EATOM  =     27259.89416086
  Solvation  Ediel_sol  =         0.00000000
  ---------------------------------------------------
  free energy    TOTEN  =      -248.91784797 eV

  energy without entropy =     -248.92264036  energy(sigma->0) =     -248.91944543


--------------------------------------------------------------------------------------------------------




--------------------------------------- Iteration      1(   6)  ---------------------------------------


    POTLOK:  cpu time    0.1767: real time    0.1778
    SETDIJ:  cpu time    0.0118: real time    0.0119
    EDDIAG:  cpu time    2.1538: real time    2.1680
  RMM-DIIS:  cpu time    7.5119: real time    7.5606
    ORTHCH:  cpu time    0.3021: real time    0.3041
       DOS:  cpu time    0.0013: real time    0.0013
    CHARGE:  cpu time    0.7095: real time    0.7145
    MIXING:  cpu time    0.0081: real time    0.0081
    --------------------------------------------
      LOOP:  cpu time   10.8751: real time   10.9463

 eigenvalue-minimisations  :  1827
 total energy-change (2. order) : 0.1793219E+01  (-0.5590920E+01)
 number of electron     376.0000025 magnetization 
 augmentation part      113.0040531 magnetization 

 Broyden mixing:
  rms(total) = 0.30055E+01    rms(broyden)= 0.30045E+01
  rms(prec ) = 0.39438E+01
  weight for this iteration     100.00

 eigenvalues of (default mixing * dielectric matrix)
  average eigenvalue GAMMA=   0.4843
  0.4843

 Free energy of the ion-electron system (eV)
  ---------------------------------------------------
  alpha Z        PSCENC =       975.10247152
  Ewald energy   TEWEN  =     91396.27040744
  -Hartree energ DENC   =   -120011.39631815
  -exchange      EXHF   =         0.00000000
  -V(xc)+E(xc)   XCENC  =       182.71540075
  PAW double counting   =     26723.59138510   -25764.13307818
  entropy T*S    EENTRO =        -0.16535456
  eigenvalues    EBANDS =     -1009.00370425
  atomic energy  EATOM  =     27259.89416086
  Solvation  Ediel_sol  =         0.00000000
  ---------------------------------------------------
  free energy    TOTEN  =      -247.12462945 eV

  energy without entropy =     -246.95927490  energy(sigma->0) =     -247.06951127


--------------------------------------------------------------------------------------------------------




--------------------------------------- Iteration      1(   7)  ---------------------------------------


    POTLOK:  cpu time    0.1721: real time    0.1734
    SETDIJ:  cpu time    0.0113: real time    0.0114
    EDDIAG:  cpu time    2.5071: real time    2.5236
  RMM-DIIS:  cpu time    8.3895: real time    8.4469
    ORTHCH:  cpu time    0.2854: real time    0.2873
       DOS:  cpu time    0.0012: real time    0.0012
    CHARGE:  cpu time    0.7185: real time    0.7235
    MIXING:  cpu time    0.0053: real time    0.0054
    --------------------------------------------
      LOOP:  cpu time   12.0904: real time   12.1726

 eigenvalue-minimisations  :  1831
 total energy-change (2. order) : 0.7854969E+01  (-0.3351766E+01)
 number of electron     376.0000039 magnetization 
 augmentation part      111.3865395 magnetization 

 Broyden mixing:
  rms(total) = 0.18591E+01    rms(broyden)= 0.18582E+01
  rms(prec ) = 0.27491E+01
  weight for this iteration     100.00

 eigenvalues of (default mixing * dielectric matrix)
  average eigenvalue GAMMA=   0.6390
  1.0121  0.2658

 Free energy of the ion-electron system (eV)
  ---------------------------------------------------
  alpha Z        PSCENC =       975.10247152
  Ewald energy   TEWEN  =     91396.27040744
  -Hartree energ DENC   =   -120213.98713051
  -exchange      EXHF   =         0.00000000
  -V(xc)+E(xc)   XCENC  =       180.26969517
  PAW double counting   =     27384.78608266   -26432.64351288
  entropy T*S    EENTRO =        -0.09452553
  eigenvalues    EBANDS =      -788.86730959
  atomic energy  EATOM  =     27259.89416086
  Solvation  Ediel_sol  =         0.00000000
  ---------------------------------------------------
  free energy    TOTEN  =      -239.26966085 eV

  energy without entropy =     -239.17513532  energy(sigma->0) =     -239.23815234


--------------------------------------------------------------------------------------------------------




--------------------------------------- Iteration      1(   8)  ---------------------------------------


    POTLOK:  cpu time    0.1798: real time    0.1811
    SETDIJ:  cpu time    0.0114: real time    0.0115
    EDDIAG:  cpu time    2.3438: real time    2.3592
  RMM-DIIS:  cpu time    6.8544: real time    6.9040
    ORTHCH:  cpu time    0.3259: real time    0.3284
       DOS:  cpu time    0.0012: real time    0.0012
    CHARGE:  cpu time    0.7706: real time    0.7760
    MIXING:  cpu time    0.0061: real time    0.0062
    --------------------------------------------
      LOOP:  cpu time   10.4932: real time   10.5675

 eigenvalue-minimisations  :  1829
 total energy-change (2. order) :-0.5698763E+01  (-0.8637498E+00)
 number of electron     376.0000027 magnetization 
 augmentation part      112.2897167 magnetization 

 Broyden mixing:
  rms(total) = 0.24473E+01    rms(broyden)= 0.24472E+01
  rms(prec ) = 0.46179E+01
  weight for this iteration     100.00

 eigenvalues of (default mixing * dielectric matrix)
  average eigenvalue GAMMA=   0.5486
  1.1997  0.2935  0.1526

 Free energy of the ion-electron system (eV)
  ---------------------------------------------------
  alpha Z        PSCENC =       975.10247152
  Ewald energy   TEWEN  =     91396.27040744
  -Hartree energ DENC   =   -120124.84006133
  -exchange      EXHF   =         0.00000000
  -V(xc)+E(xc)   XCENC  =       179.08595946
  PAW double counting   =     28195.27750402   -27255.93307554
  entropy T*S    EENTRO =        -0.00206177
  eigenvalues    EBANDS =      -869.82372876
  atomic energy  EATOM  =     27259.89416086
  Solvation  Ediel_sol  =         0.00000000
  ---------------------------------------------------
  free energy    TOTEN  =      -244.96842409 eV

  energy without entropy =     -244.96636232  energy(sigma->0) =     -244.96773683


--------------------------------------------------------------------------------------------------------




--------------------------------------- Iteration      1(   9)  ---------------------------------------


    POTLOK:  cpu time    0.1892: real time    0.1906
    SETDIJ:  cpu time    0.0105: real time    0.0105
    EDDIAG:  cpu time    2.0407: real time    2.0543
  RMM-DIIS:  cpu time    8.1029: real time    8.1594
    ORTHCH:  cpu time    0.3065: real time    0.3084
       DOS:  cpu time    0.0011: real time    0.0011
    CHARGE:  cpu time    0.7623: real time    0.7677
    MIXING:  cpu time    0.0062: real time    0.0062
    --------------------------------------------
      LOOP:  cpu time   11.4194: real time   11.4983

 eigenvalue-minimisations  :  1831
 total energy-change (2. order) : 0.1300691E+02  (-0.3745938E+00)
 number of electron     376.0000031 magnetization 
 augmentation part      112.6813914 magnetization 

 Broyden mixing:
  rms(total) = 0.91314E+00    rms(broyden)= 0.91276E+00
  rms(prec ) = 0.13530E+01
  weight for this iteration     100.00

 eigenvalues of (default mixing * dielectric matrix)
  average eigenvalue GAMMA=   0.5229
  1.3026  0.3361  0.3361  0.1168

 Free energy of the ion-electron system (eV)
  ---------------------------------------------------
  alpha Z        PSCENC =       975.10247152
  Ewald energy   TEWEN  =     91396.27040744
  -Hartree energ DENC   =   -120108.26083822
  -exchange      EXHF   =         0.00000000
  -V(xc)+E(xc)   XCENC  =       178.66451216
  PAW double counting   =     28709.93414411   -27778.49900182
  entropy T*S    EENTRO =        -0.01943138
  eigenvalues    EBANDS =      -865.04793449
  atomic energy  EATOM  =     27259.89416086
  Solvation  Ediel_sol  =         0.00000000
  ---------------------------------------------------
  free energy    TOTEN  =      -231.96150981 eV

  energy without entropy =     -231.94207843  energy(sigma->0) =     -231.95503269


--------------------------------------------------------------------------------------------------------




--------------------------------------- Iteration      1(  10)  ---------------------------------------


    POTLOK:  cpu time    0.2006: real time    0.2019
    SETDIJ:  cpu time    0.0120: real time    0.0121
    EDDIAG:  cpu time    2.2753: real time    2.2908
  RMM-DIIS:  cpu time    7.3057: real time    7.3581
    ORTHCH:  cpu time    0.2696: real time    0.2715
       DOS:  cpu time    0.0014: real time    0.0015
    CHARGE:  cpu time    0.6261: real time    0.6307
    MIXING:  cpu time    0.0069: real time    0.0069
    --------------------------------------------
      LOOP:  cpu time   10.6977: real time   10.7734

 eigenvalue-minimisations  :  1831
 total energy-change (2. order) : 0.1264229E+01  (-0.1390594E+00)
 number of electron     376.0000032 magnetization 
 augmentation part      112.7540368 magnetization 

 Broyden mixing:
  rms(total) = 0.49958E+00    rms(broyden)= 0.49947E+00
  rms(prec ) = 0.66480E+00
  weight for this iteration     100.00

 eigenvalues of (default mixing * dielectric matrix)
  average eigenvalue GAMMA=   0.5505
  1.4041  0.5701  0.4092  0.2491  0.1197

 Free energy of the ion-electron system (eV)
  ---------------------------------------------------
  alpha Z        PSCENC =       975.10247152
  Ewald energy   TEWEN  =     91396.27040744
  -Hartree energ DENC   =   -120110.17751458
  -exchange      EXHF   =         0.00000000
  -V(xc)+E(xc)   XCENC  =       178.56851482
  PAW double counting   =     29028.16483149   -28101.18711345
  entropy T*S    EENTRO =        -0.01178745
  eigenvalues    EBANDS =      -857.32125147
  atomic energy  EATOM  =     27259.89416086
  Solvation  Ediel_sol  =         0.00000000
  ---------------------------------------------------
  free energy    TOTEN  =      -230.69728082 eV

  energy without entropy =     -230.68549337  energy(sigma->0) =     -230.69335167


--------------------------------------------------------------------------------------------------------




--------------------------------------- Iteration      1(  11)  ---------------------------------------


    POTLOK:  cpu time    0.2037: real time    0.2051
    SETDIJ:  cpu time    0.0120: real time    0.0121
    EDDIAG:  cpu time    2.1688: real time    2.1838
  RMM-DIIS:  cpu time    8.5577: real time    8.6170
    ORTHCH:  cpu time    0.3225: real time    0.3245
       DOS:  cpu time    0.0012: real time    0.0012
    CHARGE:  cpu time    0.8131: real time    0.8189
    MIXING:  cpu time    0.0096: real time    0.0096
    --------------------------------------------
      LOOP:  cpu time   12.0886: real time   12.1722

 eigenvalue-minimisations  :  1831
 total energy-change (2. order) : 0.4262528E+00  (-0.4150134E-01)
 number of electron     376.0000031 magnetization 
 augmentation part      112.8922938 magnetization 

 Broyden mixing:
  rms(total) = 0.30013E+00    rms(broyden)= 0.30002E+00
  rms(prec ) = 0.41075E+00
  weight for this iteration     100.00

 eigenvalues of (default mixing * dielectric matrix)
  average eigenvalue GAMMA=   0.5980
  1.5440  0.8177  0.4309  0.4309  0.2459  0.1185

 Free energy of the ion-electron system (eV)
  ---------------------------------------------------
  alpha Z        PSCENC =       975.10247152
  Ewald energy   TEWEN  =     91396.27040744
  -Hartree energ DENC   =   -120094.73565809
  -exchange      EXHF   =         0.00000000
  -V(xc)+E(xc)   XCENC  =       178.53064944
  PAW double counting   =     29347.07190326   -28424.18601330
  entropy T*S    EENTRO =        -0.03704062
  eigenvalues    EBANDS =      -868.18190849
  atomic energy  EATOM  =     27259.89416086
  Solvation  Ediel_sol  =         0.00000000
  ---------------------------------------------------
  free energy    TOTEN  =      -230.27102798 eV

  energy without entropy =     -230.23398735  energy(sigma->0) =     -230.25868110


--------------------------------------------------------------------------------------------------------




--------------------------------------- Iteration      1(  12)  ---------------------------------------


    POTLOK:  cpu time    0.2107: real time    0.2123
    SETDIJ:  cpu time    0.0109: real time    0.0110
    EDDIAG:  cpu time    2.4279: real time    2.4446
  RMM-DIIS:  cpu time    8.5814: real time    8.6409
    ORTHCH:  cpu time    0.3177: real time    0.3196
       DOS:  cpu time    0.0012: real time    0.0012
    CHARGE:  cpu time    0.9697: real time    0.9762
    MIXING:  cpu time    0.0101: real time    0.0101
    --------------------------------------------
      LOOP:  cpu time   12.5296: real time   12.6158

 eigenvalue-minimisations  :  1835
 total energy-change (2. order) : 0.1051510E+00  (-0.1954393E-01)
 number of electron     376.0000030 magnetization 
 augmentation part      112.9552539 magnetization 

 Broyden mixing:
  rms(total) = 0.23347E+00    rms(broyden)= 0.23343E+00
  rms(prec ) = 0.31037E+00
  weight for this iteration     100.00

 eigenvalues of (default mixing * dielectric matrix)
  average eigenvalue GAMMA=   0.6741
  1.8502  1.0678  0.7008  0.4566  0.1187  0.2511  0.2737

 Free energy of the ion-electron system (eV)
  ---------------------------------------------------
  alpha Z        PSCENC =       975.10247152
  Ewald energy   TEWEN  =     91396.27040744
  -Hartree energ DENC   =   -120086.28541165
  -exchange      EXHF   =         0.00000000
  -V(xc)+E(xc)   XCENC  =       178.47786102
  PAW double counting   =     29603.05040303   -28683.30588343
  entropy T*S    EENTRO =        -0.03148600
  eigenvalues    EBANDS =      -873.33839980
  atomic energy  EATOM  =     27259.89416086
  Solvation  Ediel_sol  =         0.00000000
  ---------------------------------------------------
  free energy    TOTEN  =      -230.16587700 eV

  energy without entropy =     -230.13439100  energy(sigma->0) =     -230.15538167


--------------------------------------------------------------------------------------------------------




--------------------------------------- Iteration      1(  13)  ---------------------------------------


    POTLOK:  cpu time    0.2059: real time    0.2075
    SETDIJ:  cpu time    0.0115: real time    0.0116
    EDDIAG:  cpu time    2.3553: real time    2.3709
  RMM-DIIS:  cpu time    7.3954: real time    7.4462
    ORTHCH:  cpu time    0.2656: real time    0.2671
       DOS:  cpu time    0.0012: real time    0.0012
    CHARGE:  cpu time    0.8221: real time    0.8279
    MIXING:  cpu time    0.0079: real time    0.0079
    --------------------------------------------
      LOOP:  cpu time   11.0648: real time   11.1403

 eigenvalue-minimisations  :  1831
 total energy-change (2. order) : 0.4171896E-01  (-0.1338936E-01)
 number of electron     376.0000030 magnetization 
 augmentation part      112.9619874 magnetization 

 Broyden mixing:
  rms(total) = 0.17004E+00    rms(broyden)= 0.17003E+00
  rms(prec ) = 0.20133E+00
  weight for this iteration     100.00

 eigenvalues of (default mixing * dielectric matrix)
  average eigenvalue GAMMA=   0.7193
  2.1756  1.2216  0.9008  0.4419  0.3937  0.1187  0.2637  0.2385

 Free energy of the ion-electron system (eV)
  ---------------------------------------------------
  alpha Z        PSCENC =       975.10247152
  Ewald energy   TEWEN  =     91396.27040744
  -Hartree energ DENC   =   -120086.39029436
  -exchange      EXHF   =         0.00000000
  -V(xc)+E(xc)   XCENC  =       178.37462080
  PAW double counting   =     29875.41647272   -28958.91458535
  entropy T*S    EENTRO =        -0.02162640
  eigenvalues    EBANDS =      -869.85578528
  atomic energy  EATOM  =     27259.89416086
  Solvation  Ediel_sol  =         0.00000000
  ---------------------------------------------------
  free energy    TOTEN  =      -230.12415804 eV

  energy without entropy =     -230.10253164  energy(sigma->0) =     -230.11694924


--------------------------------------------------------------------------------------------------------




--------------------------------------- Iteration      1(  14)  ---------------------------------------


    POTLOK:  cpu time    0.2127: real time    0.2144
    SETDIJ:  cpu time    0.0100: real time    0.0101
    EDDIAG:  cpu time    2.3505: real time    2.3665
  RMM-DIIS:  cpu time    8.3147: real time    8.3706
    ORTHCH:  cpu time    0.3160: real time    0.3183
       DOS:  cpu time    0.0012: real time    0.0012
    CHARGE:  cpu time    0.7518: real time    0.7569
    MIXING:  cpu time    0.0069: real time    0.0070
    --------------------------------------------
      LOOP:  cpu time   11.9640: real time   12.0450

 eigenvalue-minimisations  :  1831
 total energy-change (2. order) : 0.3137550E-01  (-0.9132628E-02)
 number of electron     376.0000030 magnetization 
 augmentation part      112.9394487 magnetization 

 Broyden mixing:
  rms(total) = 0.99811E-01    rms(broyden)= 0.99750E-01
  rms(prec ) = 0.12580E+00
  weight for this iteration     100.00

 eigenvalues of (default mixing * dielectric matrix)
  average eigenvalue GAMMA=   0.7275
  2.3658  1.2641  0.9663  0.5270  0.4938  0.1187  0.3175  0.2604  0.2338

 Free energy of the ion-electron system (eV)
  ---------------------------------------------------
  alpha Z        PSCENC =       975.10247152
  Ewald energy   TEWEN  =     91396.27040744
  -Hartree energ DENC   =   -120087.51475063
  -exchange      EXHF   =         0.00000000
  -V(xc)+E(xc)   XCENC  =       178.29654368
  PAW double counting   =     30049.76184133   -29135.23540213
  entropy T*S    EENTRO =        -0.01637127
  eigenvalues    EBANDS =      -866.65168335
  atomic energy  EATOM  =     27259.89416086
  Solvation  Ediel_sol  =         0.00000000
  ---------------------------------------------------
  free energy    TOTEN  =      -230.09278254 eV

  energy without entropy =     -230.07641128  energy(sigma->0) =     -230.08732545


--------------------------------------------------------------------------------------------------------




--------------------------------------- Iteration      1(  15)  ---------------------------------------


    POTLOK:  cpu time    0.1797: real time    0.1809
    SETDIJ:  cpu time    0.0116: real time    0.0116
    EDDIAG:  cpu time    2.3807: real time    2.3959
  RMM-DIIS:  cpu time    8.2288: real time    8.2837
    ORTHCH:  cpu time    0.3101: real time    0.3119
       DOS:  cpu time    0.0012: real time    0.0012
    CHARGE:  cpu time    0.7790: real time    0.7841
    MIXING:  cpu time    0.0089: real time    0.0090
    --------------------------------------------
      LOOP:  cpu time   11.9000: real time   11.9784

 eigenvalue-minimisations  :  1832
 total energy-change (2. order) : 0.1202438E-01  (-0.2558782E-02)
 number of electron     376.0000030 magnetization 
 augmentation part      112.9456069 magnetization 

 Broyden mixing:
  rms(total) = 0.48949E-01    rms(broyden)= 0.48939E-01
  rms(prec ) = 0.62432E-01
  weight for this iteration     100.00

 eigenvalues of (default mixing * dielectric matrix)
  average eigenvalue GAMMA=   0.7148
  2.4552  1.2443  0.8704  0.7966  0.4364  0.4364  0.1187  0.3003  0.2578  0.2322

 Free energy of the ion-electron system (eV)
  ---------------------------------------------------
  alpha Z        PSCENC =       975.10247152
  Ewald energy   TEWEN  =     91396.27040744
  -Hartree energ DENC   =   -120088.35056675
  -exchange      EXHF   =         0.00000000
  -V(xc)+E(xc)   XCENC  =       178.29538887
  PAW double counting   =     30106.46936052   -29192.55244982
  entropy T*S    EENTRO =        -0.01948048
  eigenvalues    EBANDS =      -865.19005033
  atomic energy  EATOM  =     27259.89416086
  Solvation  Ediel_sol  =         0.00000000
  ---------------------------------------------------
  free energy    TOTEN  =      -230.08075816 eV

  energy without entropy =     -230.06127768  energy(sigma->0) =     -230.07426467


--------------------------------------------------------------------------------------------------------




--------------------------------------- Iteration      1(  16)  ---------------------------------------


    POTLOK:  cpu time    0.1865: real time    0.1880
    SETDIJ:  cpu time    0.0120: real time    0.0121
    EDDIAG:  cpu time    2.1283: real time    2.1414
  RMM-DIIS:  cpu time    7.2799: real time    7.3943
    ORTHCH:  cpu time    0.3082: real time    0.3125
       DOS:  cpu time    0.0014: real time    0.0014
    CHARGE:  cpu time    0.8499: real time    0.8621
    MIXING:  cpu time    0.0086: real time    0.0087
    --------------------------------------------
      LOOP:  cpu time   10.7749: real time   10.9206

 eigenvalue-minimisations  :  1831
 total energy-change (2. order) : 0.2151508E-02  (-0.7039511E-03)
 number of electron     376.0000030 magnetization 
 augmentation part      112.9512067 magnetization 

 Broyden mixing:
  rms(total) = 0.32623E-01    rms(broyden)= 0.32615E-01
  rms(prec ) = 0.40267E-01
  weight for this iteration     100.00

 eigenvalues of (default mixing * dielectric matrix)
  average eigenvalue GAMMA=   0.7075
  2.4728  1.1983  0.9360  0.9360  0.5121  0.5121  0.1187  0.3319  0.2800  0.2536
  0.2305

 Free energy of the ion-electron system (eV)
  ---------------------------------------------------
  alpha Z        PSCENC =       975.10247152
  Ewald energy   TEWEN  =     91396.27040744
  -Hartree energ DENC   =   -120088.40892540
  -exchange      EXHF   =         0.00000000
  -V(xc)+E(xc)   XCENC  =       178.30313385
  PAW double counting   =     30122.81813162   -29209.05276709
  entropy T*S    EENTRO =        -0.01853091
  eigenvalues    EBANDS =      -864.98668854
  atomic energy  EATOM  =     27259.89416086
  Solvation  Ediel_sol  =         0.00000000
  ---------------------------------------------------
  free energy    TOTEN  =      -230.07860665 eV

  energy without entropy =     -230.06007574  energy(sigma->0) =     -230.07242968


--------------------------------------------------------------------------------------------------------




--------------------------------------- Iteration      1(  17)  ---------------------------------------


    POTLOK:  cpu time    0.1969: real time    0.1999
    SETDIJ:  cpu time    0.0122: real time    0.0125
    EDDIAG:  cpu time    2.4396: real time    2.4697
  RMM-DIIS:  cpu time    8.3052: real time    8.4060
    ORTHCH:  cpu time    0.3167: real time    0.3204
       DOS:  cpu time    0.0014: real time    0.0014
    CHARGE:  cpu time    0.7513: real time    0.7595
    MIXING:  cpu time    0.0095: real time    0.0095
    --------------------------------------------
      LOOP:  cpu time   12.0327: real time   12.1789

 eigenvalue-minimisations  :  1823
 total energy-change (2. order) : 0.6570828E-03  (-0.2574538E-03)
 number of electron     376.0000030 magnetization 
 augmentation part      112.9504121 magnetization 

 Broyden mixing:
  rms(total) = 0.21867E-01    rms(broyden)= 0.21863E-01
  rms(prec ) = 0.26753E-01
  weight for this iteration     100.00

 eigenvalues of (default mixing * dielectric matrix)
  average eigenvalue GAMMA=   0.7355
  2.4588  1.3000  1.3000  1.0062  0.7397  0.4686  0.1187  0.4011  0.3073  0.2597
  0.2386  0.2274

 Free energy of the ion-electron system (eV)
  ---------------------------------------------------
  alpha Z        PSCENC =       975.10247152
  Ewald energy   TEWEN  =     91396.27040744
  -Hartree energ DENC   =   -120089.00014812
  -exchange      EXHF   =         0.00000000
  -V(xc)+E(xc)   XCENC  =       178.30601204
  PAW double counting   =     30125.37339868   -29211.60706874
  entropy T*S    EENTRO =        -0.02081065
  eigenvalues    EBANDS =      -864.39637260
  atomic energy  EATOM  =     27259.89416086
  Solvation  Ediel_sol  =         0.00000000
  ---------------------------------------------------
  free energy    TOTEN  =      -230.07794957 eV

  energy without entropy =     -230.05713892  energy(sigma->0) =     -230.07101268


--------------------------------------------------------------------------------------------------------




--------------------------------------- Iteration      1(  18)  ---------------------------------------


    POTLOK:  cpu time    0.2033: real time    0.2059
    SETDIJ:  cpu time    0.0126: real time    0.0130
    EDDIAG:  cpu time    1.7730: real time    1.7931
  RMM-DIIS:  cpu time    8.0879: real time    8.3105
    ORTHCH:  cpu time    0.2933: real time    0.2952
       DOS:  cpu time    0.0013: real time    0.0013
    CHARGE:  cpu time    0.7836: real time    0.7891
    MIXING:  cpu time    0.0081: real time    0.0084
    --------------------------------------------
      LOOP:  cpu time   11.1631: real time   11.4164

 eigenvalue-minimisations  :  1815
 total energy-change (2. order) :-0.4947992E-04  (-0.1369003E-03)
 number of electron     376.0000030 magnetization 
 augmentation part      112.9456784 magnetization 

 Broyden mixing:
  rms(total) = 0.14673E-01    rms(broyden)= 0.14670E-01
  rms(prec ) = 0.18245E-01
  weight for this iteration     100.00

 eigenvalues of (default mixing * dielectric matrix)
  average eigenvalue GAMMA=   0.7366
  2.4917  1.4279  1.4279  1.0060  0.8255  0.4577  0.4577  0.1187  0.3437  0.3040
  0.2560  0.2356  0.2229

 Free energy of the ion-electron system (eV)
  ---------------------------------------------------
  alpha Z        PSCENC =       975.10247152
  Ewald energy   TEWEN  =     91396.27040744
  -Hartree energ DENC   =   -120090.25612115
  -exchange      EXHF   =         0.00000000
  -V(xc)+E(xc)   XCENC  =       178.30859455
  PAW double counting   =     30123.99168397   -29210.15498508
  entropy T*S    EENTRO =        -0.01912917
  eigenvalues    EBANDS =      -863.21508199
  atomic energy  EATOM  =     27259.89416086
  Solvation  Ediel_sol  =         0.00000000
  ---------------------------------------------------
  free energy    TOTEN  =      -230.07799905 eV

  energy without entropy =     -230.05886987  energy(sigma->0) =     -230.07162266


--------------------------------------------------------------------------------------------------------




--------------------------------------- Iteration      1(  19)  ---------------------------------------


    POTLOK:  cpu time    0.1636: real time    0.1652
    SETDIJ:  cpu time    0.0134: real time    0.0135
    EDDIAG:  cpu time    2.2677: real time    2.2828
  RMM-DIIS:  cpu time    6.8724: real time    7.0566
    ORTHCH:  cpu time    0.3331: real time    0.3405
       DOS:  cpu time    0.0012: real time    0.0012
    --------------------------------------------
      LOOP:  cpu time    9.6513: real time    9.8598

 eigenvalue-minimisations  :  1525
 total energy-change (2. order) : 0.1167352E-04  (-0.5095719E-04)
 number of electron     376.0000030 magnetization 
 augmentation part      112.9456784 magnetization 

 Free energy of the ion-electron system (eV)
  ---------------------------------------------------
  alpha Z        PSCENC =       975.10247152
  Ewald energy   TEWEN  =     91396.27040744
  -Hartree energ DENC   =   -120090.89405972
  -exchange      EXHF   =         0.00000000
  -V(xc)+E(xc)   XCENC  =       178.31173641
  PAW double counting   =     30125.04812994   -29211.19121012
  entropy T*S    EENTRO =        -0.01937776
  eigenvalues    EBANDS =      -862.60024596
  atomic energy  EATOM  =     27259.89416086
  Solvation  Ediel_sol  =         0.00000000
  ---------------------------------------------------
  free energy    TOTEN  =      -230.07798737 eV

  energy without entropy =     -230.05860962  energy(sigma->0) =     -230.07152812


--------------------------------------------------------------------------------------------------------




 average (electrostatic) potential at core
  the test charge radii are     0.6991  0.7215  1.2059
  (the norm of the test charge is              1.0000)
       1 -56.2972       2 -74.4415       3 -76.1101       4 -72.3455       5 -72.3587
       6 -72.3455       7 -72.3495       8 -72.3803       9 -72.3810      10 -72.3367
      11 -72.3656      12 -72.3415      13 -72.9464      14 -73.0735      15 -72.9396
      16 -72.9953      17 -73.0040      18 -73.0236      19 -73.1089      20 -73.0214
      21 -73.0237      22 -73.0161      23 -73.0371      24 -72.9505      25 -72.9499
      26 -72.9920      27 -73.0987      28 -73.0138      29 -72.9713      30 -72.9948
      31 -72.3331      32 -72.3935      33 -72.4474      34 -72.4162      35 -72.4238
      36 -73.4203      37 -72.6229      38 -73.1120      39 -72.5772
 
 
 
 E-fermi :   1.0602     XC(G=0):  -6.6136     alpha+bet : -6.8913


 k-point     1 :       0.0000    0.0000    0.0000
  band No.  band energies     occupation 
      1     -22.0249      2.00000
      2     -16.4699      2.00000
      3      -8.9850      2.00000
      4      -8.1562      2.00000
      5      -6.8358      2.00000
      6      -5.9855      2.00000
      7      -5.9017      2.00000
      8      -5.7998      2.00000
      9      -5.7445      2.00000
     10      -5.7139      2.00000
     11      -5.6855      2.00000
     12      -5.6741      2.00000
     13      -5.6188      2.00000
     14      -5.5908      2.00000
     15      -5.4600      2.00000
     16      -5.3365      2.00000
     17      -5.1554      2.00000
     18      -5.1297      2.00000
     19      -5.1104      2.00000
     20      -5.0708      2.00000
     21      -5.0390      2.00000
     22      -5.0108      2.00000
     23      -4.6835      2.00000
     24      -4.6398      2.00000
     25      -4.6054      2.00000
     26      -4.5866      2.00000
     27      -4.5535      2.00000
     28      -4.5373      2.00000
     29      -4.4307      2.00000
     30      -4.4098      2.00000
     31      -4.3854      2.00000
     32      -4.3706      2.00000
     33      -4.3515      2.00000
     34      -4.2839      2.00000
     35      -4.1875      2.00000
     36      -4.1633      2.00000
     37      -4.1533      2.00000
     38      -4.1355      2.00000
     39      -4.1217      2.00000
     40      -4.0964      2.00000
     41      -4.0917      2.00000
     42      -4.0698      2.00000
     43      -4.0576      2.00000
     44      -4.0358      2.00000
     45      -4.0266      2.00000
     46      -3.9876      2.00000
     47      -3.5721      2.00000
     48      -3.5425      2.00000
     49      -3.5017      2.00000
     50      -3.4617      2.00000
     51      -3.4460      2.00000
     52      -3.4388      2.00000
     53      -3.4312      2.00000
     54      -3.4167      2.00000
     55      -3.3725      2.00000
     56      -3.3395      2.00000
     57      -3.2970      2.00000
     58      -3.2456      2.00000
     59      -3.2051      2.00000
     60      -3.1290      2.00000
     61      -2.9928      2.00000
     62      -2.8679      2.00000
     63      -2.7500      2.00000
     64      -2.6921      2.00000
     65      -2.6445      2.00000
     66      -2.6123      2.00000
     67      -2.5830      2.00000
     68      -2.5704      2.00000
     69      -2.5443      2.00000
     70      -2.5100      2.00000
     71      -2.4708      2.00000
     72      -2.4555      2.00000
     73      -2.4454      2.00000
     74      -2.4327      2.00000
     75      -2.4184      2.00000
     76      -2.4103      2.00000
     77      -2.3895      2.00000
     78      -2.3706      2.00000
     79      -2.3586      2.00000
     80      -2.3398      2.00000
     81      -2.3338      2.00000
     82      -2.3102      2.00000
     83      -2.3000      2.00000
     84      -2.2892      2.00000
     85      -2.2631      2.00000
     86      -2.1856      2.00000
     87      -2.1717      2.00000
     88      -2.1507      2.00000
     89      -2.1329      2.00000
     90      -2.0863      2.00000
     91      -2.0629      2.00000
     92      -2.0427      2.00000
     93      -2.0140      2.00000
     94      -2.0014      2.00000
     95      -1.9799      2.00000
     96      -1.9559      2.00000
     97      -1.8989      2.00000
     98      -1.8654      2.00000
     99      -1.8293      2.00000
    100      -1.7821      2.00000
    101      -1.6778      2.00000
    102      -1.6654      2.00000
    103      -1.6498      2.00000
    104      -1.6126      2.00000
    105      -1.5995      2.00000
    106      -1.5809      2.00000
    107      -1.5756      2.00000
    108      -1.5638      2.00000
    109      -1.5272      2.00000
    110      -1.5233      2.00000
    111      -1.5105      2.00000
    112      -1.4891      2.00000
    113      -1.4762      2.00000
    114      -1.3440      2.00000
    115      -1.3089      2.00000
    116      -1.1904      2.00000
    117      -1.1587      2.00000
    118      -1.0750      2.00000
    119      -1.0704      2.00000
    120      -1.0540      2.00000
    121      -0.9949      2.00000
    122      -0.9625      2.00000
    123      -0.9230      2.00000
    124      -0.8991      2.00000
    125      -0.8817      2.00000
    126      -0.8479      2.00000
    127      -0.8143      2.00000
    128      -0.7778      2.00000
    129      -0.7375      2.00000
    130      -0.7004      2.00000
    131      -0.6870      2.00000
    132      -0.6805      2.00000
    133      -0.6455      2.00000
    134      -0.6238      2.00000
    135      -0.5353      2.00000
    136      -0.4954      2.00000
    137      -0.4763      2.00000
    138      -0.4360      2.00000
    139      -0.4075      2.00000
    140      -0.3986      2.00000
    141      -0.2881      2.00000
    142      -0.2814      2.00000
    143      -0.2623      2.00000
    144      -0.2084      2.00000
    145      -0.1843      2.00000
    146      -0.1666      2.00000
    147      -0.1141      2.00000
    148      -0.0703      2.00000
    149      -0.0147      2.00000
    150      -0.0071      2.00000
    151       0.0473      2.00000
    152       0.0585      2.00000
    153       0.0806      2.00000
    154       0.1028      2.00000
    155       0.1435      2.00000
    156       0.1710      2.00000
    157       0.1841      2.00000
    158       0.2171      2.00000
    159       0.2428      2.00000
    160       0.2588      2.00000
    161       0.2665      2.00000
    162       0.2847      2.00000
    163       0.3033      2.00000
    164       0.3167      2.00000
    165       0.3266      2.00000
    166       0.3458      2.00001
    167       0.3769      2.00002
    168       0.3843      2.00002
    169       0.4104      2.00004
    170       0.4297      2.00008
    171       0.4573      2.00017
    172       0.4929      2.00045
    173       0.5340      2.00126
    174       0.5484      2.00177
    175       0.5909      2.00447
    176       0.6071      2.00619
    177       0.6147      2.00716
    178       0.6352      2.01046
    179       0.6665      2.01768
    180       0.6859      2.02365
    181       0.6926      2.02601
    182       0.7368      2.04457
    183       0.7651      2.05744
    184       0.7696      2.05935
    185       0.7799      2.06341
    186       0.7872      2.06592
    187       0.7921      2.06738
    188       0.8002      2.06934
    189       0.8041      2.07002
    190       0.8228      2.07046
    191       0.8346      2.06766
    192       0.8441      2.06318
    193       0.8482      2.06058
    194       0.8583      2.05222
    195       0.9255      1.90090
    196       1.0518      1.07163
    197       1.0738      0.88560
    198       1.1452      0.34788
    199       1.1584      0.27010
    200       1.1780      0.17022
    201       1.1984      0.08678
    202       1.2174      0.02744
    203       1.2222      0.01489
    204       1.4060     -0.03461
    205       1.4952     -0.00873
    206       1.9118     -0.00000
    207       1.9673     -0.00000
    208       2.0246     -0.00000
    209       2.0302     -0.00000
    210       2.1481     -0.00000
    211       2.5290     -0.00000
    212       3.6012     -0.00000
    213       3.9976     -0.00000
    214       4.2934     -0.00000
    215       4.3350     -0.00000
    216       4.3960     -0.00000
    217       4.5891     -0.00000
    218       4.9229     -0.00000
    219       5.4968     -0.00000
    220       5.6281     -0.00000
    221       5.8391     -0.00000
    222       5.8545     -0.00000
    223       5.8766     -0.00000
    224       5.8989     -0.00000
    225       5.9553     -0.00000
    226       6.0900     -0.00000
    227       6.5435      0.00000
    228       6.8945      0.00000

 k-point     2 :       0.5000    0.0000    0.0000
  band No.  band energies     occupation 
      1     -22.0248      2.00000
      2     -16.4695      2.00000
      3      -8.9719      2.00000
      4      -7.2917      2.00000
      5      -7.2893      2.00000
      6      -6.1199      2.00000
      7      -5.9960      2.00000
      8      -5.9446      2.00000
      9      -5.8778      2.00000
     10      -5.7532      2.00000
     11      -5.5805      2.00000
     12      -5.4909      2.00000
     13      -5.4183      2.00000
     14      -5.2965      2.00000
     15      -5.0050      2.00000
     16      -4.9589      2.00000
     17      -4.9385      2.00000
     18      -4.9247      2.00000
     19      -4.8961      2.00000
     20      -4.8750      2.00000
     21      -4.8466      2.00000
     22      -4.8252      2.00000
     23      -4.8061      2.00000
     24      -4.7934      2.00000
     25      -4.7708      2.00000
     26      -4.7572      2.00000
     27      -4.7297      2.00000
     28      -4.6865      2.00000
     29      -4.6393      2.00000
     30      -4.5593      2.00000
     31      -4.4209      2.00000
     32      -4.4082      2.00000
     33      -4.3722      2.00000
     34      -4.3199      2.00000
     35      -4.2969      2.00000
     36      -4.1252      2.00000
     37      -4.0870      2.00000
     38      -4.0510      2.00000
     39      -4.0298      2.00000
     40      -4.0075      2.00000
     41      -3.9721      2.00000
     42      -3.9536      2.00000
     43      -3.9076      2.00000
     44      -3.8094      2.00000
     45      -3.7988      2.00000
     46      -3.7352      2.00000
     47      -3.7120      2.00000
     48      -3.6485      2.00000
     49      -3.6185      2.00000
     50      -3.6110      2.00000
     51      -3.4859      2.00000
     52      -3.4662      2.00000
     53      -3.4554      2.00000
     54      -3.4000      2.00000
     55      -3.3826      2.00000
     56      -3.3460      2.00000
     57      -3.2360      2.00000
     58      -3.2085      2.00000
     59      -3.1865      2.00000
     60      -3.1666      2.00000
     61      -3.1309      2.00000
     62      -3.1021      2.00000
     63      -3.0484      2.00000
     64      -3.0095      2.00000
     65      -2.9954      2.00000
     66      -2.9634      2.00000
     67      -2.8976      2.00000
     68      -2.8740      2.00000
     69      -2.8536      2.00000
     70      -2.8146      2.00000
[...]
     88      -2.1701      2.00000
     89      -2.1674      2.00000
     90      -2.1464      2.00000
     91      -2.1332      2.00000
     92      -2.1128      2.00000
     93      -2.0580      2.00000
     94      -2.0009      2.00000
     95      -1.9798      2.00000
     96      -1.9415      2.00000
     97      -1.9065      2.00000
     98      -1.8930      2.00000
     99      -1.8548      2.00000
    100      -1.8289      2.00000
    101      -1.7856      2.00000
    102      -1.7588      2.00000
    103      -1.7511      2.00000
    104      -1.7296      2.00000
    105      -1.6970      2.00000
    106      -1.6810      2.00000
    107      -1.6701      2.00000
    108      -1.6460      2.00000
    109      -1.6140      2.00000
    110      -1.5646      2.00000
    111      -1.5260      2.00000
    112      -1.4745      2.00000
    113      -1.4670      2.00000
    114      -1.3816      2.00000
    115      -1.3371      2.00000
    116      -1.2605      2.00000
    117      -1.2211      2.00000
    118      -1.2016      2.00000
    119      -1.1506      2.00000
    120      -1.0956      2.00000
    121      -1.0667      2.00000
    122      -1.0574      2.00000
    123      -1.0334      2.00000
    124      -1.0197      2.00000
    125      -0.9852      2.00000
    126      -0.9748      2.00000
    127      -0.9574      2.00000
    128      -0.9445      2.00000
    129      -0.9151      2.00000
    130      -0.8860      2.00000
    131      -0.8466      2.00000
    132      -0.8258      2.00000
    133      -0.7677      2.00000
    134      -0.7558      2.00000
    135      -0.7294      2.00000
    136      -0.7006      2.00000
    137      -0.6741      2.00000
    138      -0.6457      2.00000
    139      -0.6065      2.00000
    140      -0.5656      2.00000
    141      -0.4962      2.00000
    142      -0.4721      2.00000
    143      -0.3941      2.00000
    144      -0.3044      2.00000
    145      -0.2581      2.00000
    146      -0.2062      2.00000
    147      -0.1837      2.00000
    148      -0.1424      2.00000
    149      -0.1091      2.00000
    150      -0.0701      2.00000
    151      -0.0482      2.00000
    152       0.0222      2.00000
    153       0.0405      2.00000
    154       0.0692      2.00000
    155       0.0865      2.00000
    156       0.1065      2.00000
    157       0.1154      2.00000
    158       0.1679      2.00000
    159       0.1881      2.00000
    160       0.2165      2.00000
    161       0.2554      2.00000
    162       0.2860      2.00000
    163       0.3130      2.00000
    164       0.3375      2.00000
    165       0.3619      2.00000
    166       0.3941      2.00001
    167       0.5012      2.00024
    168       0.5873      2.00205
    169       0.5956      2.00247
    170       0.6214      2.00429
    171       0.6350      2.00565
    172       0.6654      2.01003
    173       0.7137      2.02211
    174       0.7808      2.04985
    175       0.7868      2.05261
    176       0.8050      2.06057
    177       0.8485      2.07091
    178       0.8720      2.06564
    179       0.9072      2.03175
    180       0.9236      2.00157
    181       0.9361      1.97113
    182       1.0175      1.58968
    183       1.0516      1.33968
    184       1.0845      1.06960
    185       1.0957      0.97450
    186       1.1083      0.86899
    187       1.1340      0.65893
    188       1.1452      0.57249
    189       1.1530      0.51452
    190       1.1726      0.38036
    191       1.3103     -0.06402
    192       1.3341     -0.07081
    193       1.3522     -0.06944
    194       1.3885     -0.05718
    195       1.4185     -0.04349
    196       1.4921     -0.01615
    197       1.5774     -0.00324
    198       1.7227     -0.00008
    199       1.8165     -0.00000
    200       1.9798     -0.00000
    201       2.2379     -0.00000
    202       2.3081     -0.00000
    203       2.7939     -0.00000
    204       2.9209     -0.00000
    205       2.9612     -0.00000
    206       2.9731     -0.00000
    207       3.0081     -0.00000
    208       3.2287     -0.00000
    209       3.3813     -0.00000
    210       3.5044     -0.00000
    211       3.5642     -0.00000
    212       3.6069     -0.00000
    213       3.7167     -0.00000
    214       3.8050     -0.00000
    215       3.9303     -0.00000
    216       4.1668     -0.00000
    217       4.2073     -0.00000
    218       4.3869     -0.00000
    219       4.4102     -0.00000
    220       4.6118     -0.00000
    221       4.6294     -0.00000
    222       4.8104     -0.00000
    223       5.1436     -0.00000
    224       5.5143     -0.00000
    225       5.8295     -0.00000
    226       6.5109     -0.00000
    227       6.5335     -0.00000
    228       6.5923      0.00000


--------------------------------------------------------------------------------------------------------


 soft charge-density along one line, spin component           1
         0         1         2         3         4         5         6         7         8         9
 total charge-density along one line
 
 pseudopotential strength for first ion, spin component:           1
 10.095   0.015   0.004   0.009  -0.000  -0.004  -0.008   0.000
  0.015  -0.002  -0.000  -0.000  -0.000  -0.000  -0.000   0.000
  0.004  -0.000  -4.247  -0.006   0.001  -0.010  -0.002   0.000
  0.009  -0.000  -0.006  -4.261   0.003  -0.002  -0.015   0.001
 -0.000  -0.000   0.001   0.003  -4.245   0.000   0.001  -0.009
 -0.004  -0.000  -0.010  -0.002   0.000  -0.770  -0.000   0.000
 -0.008  -0.000  -0.002  -0.015   0.001  -0.000  -0.770   0.000
  0.000   0.000   0.000   0.001  -0.009   0.000   0.000  -0.770
 total augmentation occupancy for first ion, spin component:           1
  1.635  -0.845   0.003  -0.003  -0.051   0.034   0.080  -0.024
 -0.845   1.176  -0.215  -0.523   0.100  -0.086  -0.219   0.034
  0.003  -0.215   0.854   0.203   0.004   0.116   0.056  -0.005
 -0.003  -0.523   0.203   1.298  -0.016   0.056   0.241  -0.010
 -0.051   0.100   0.004  -0.016   0.786  -0.005  -0.011   0.096
  0.034  -0.086   0.116   0.056  -0.005   0.020   0.022  -0.003
  0.080  -0.219   0.056   0.241  -0.011   0.022   0.068  -0.006
 -0.024   0.034  -0.005  -0.010   0.096  -0.003  -0.006   0.013


------------------------ aborting loop because EDIFF is reached ----------------------------------------


    CHARGE:  cpu time    0.8610: real time    0.8669
    FORLOC:  cpu time    0.0567: real time    0.0571
    FORNL :  cpu time    4.2768: real time    4.3062
    STRESS:  cpu time   13.0330: real time   13.1230
    FORCOR:  cpu time    0.2298: real time    0.2313
    FORHAR:  cpu time    0.1020: real time    0.1026
    MIXING:  cpu time    0.0074: real time    0.0075
    OFIELD:  cpu time    0.0001: real time    0.0001

  FORCE on cell =-STRESS in cart. coord.  units (eV):
  Direction    XX          YY          ZZ          XY          YZ          ZX
  --------------------------------------------------------------------------------------
  Alpha Z   975.10247   975.10247   975.10247
  Ewald  111201.71601111207.94012************  -210.45872   264.43315   -81.05162
  Hartree117960.88189117935.61904************  -140.80724   111.26756   -43.46706
  E(xc)   -1665.90178 -1665.63616 -1673.28507    -0.46619     0.75081    -0.21621
  Local  ************************239855.24958   340.51576  -350.25530   118.01543
  n-local   124.07089   123.03987    90.97181    -1.56337     1.48073    -0.09935
  augment  1895.11414  1893.56701  1932.59629     2.94961    -4.74551     1.00518
  Kinetic  5523.29352  5514.27611  5600.10792    10.57751   -23.21079     6.75676
  Fock        0.00000     0.00000     0.00000     0.00000     0.00000     0.00000
  -------------------------------------------------------------------------------------
  Total     -36.05003   -38.70929    -3.39539     0.74735    -0.27935     0.94313
  in kB     -42.93618   -46.10340    -4.04396     0.89011    -0.33270     1.12328
  external pressure =      -31.03 kB  Pullay stress =        0.00 kB


 VOLUME and BASIS-vectors are now :
 -----------------------------------------------------------------------------
  energy-cutoff  :      450.00
  volume of cell :     1345.22
      direct lattice vectors                 reciprocal lattice vectors
     7.296955120 -4.212899000  0.000000000     0.137043463  0.000000000  0.000000000
     0.000000000  8.425798000  0.000000000     0.068521732  0.118683121  0.000000000
     0.000000000  0.000000000 21.879635000     0.000000000  0.000000000  0.045704602

  length of vectors
     8.425798004  8.425798000 21.879635000     0.137043463  0.137043463  0.045704602


 FORCES acting on ions
    electron-ion (+dipol)            ewald-force                    non-local-force                 convergence-correction
 -----------------------------------------------------------------------------------------------
   0.549E+01 0.155E+02 -.887E+03   -.609E+01 -.203E+02 0.876E+03   0.121E+00 0.418E+01 0.109E+02   0.279E-02 0.151E-01 0.614E-01
   -.705E+02 0.414E+02 -.160E+04   0.698E+02 -.365E+02 0.163E+04   0.119E+01 -.463E+01 -.241E+02   0.924E-02 -.678E-02 0.227E-01
   0.551E+02 -.109E+03 -.155E+04   -.632E+02 0.131E+03 0.161E+04   0.842E+01 -.220E+02 -.566E+02   0.193E-01 -.135E-01 -.673E-02
   -.265E+00 0.842E+00 0.234E+04   0.287E+00 -.832E+00 -.234E+04   0.235E-01 -.429E-01 -.121E+01   -.390E-01 -.123E-01 -.318E-01
   0.215E+00 -.488E+00 0.234E+04   -.278E+00 0.434E+00 -.234E+04   -.212E-02 -.314E-01 -.112E+01   0.271E-01 0.403E-01 -.395E-01
   0.154E+00 -.614E-01 0.234E+04   -.191E+00 0.854E-01 -.234E+04   0.191E-01 0.276E-02 -.113E+01   -.168E-02 -.517E-01 -.428E-01
   0.369E+00 0.212E+00 0.234E+04   -.353E+00 -.158E+00 -.234E+04   -.460E-02 0.188E-01 -.116E+01   0.106E-02 -.246E-01 -.668E-01
   -.470E+00 0.102E+01 0.234E+04   0.376E+00 -.101E+01 -.234E+04   0.923E-02 0.144E-01 -.126E+01   0.735E-01 0.166E-01 -.331E-01
   0.651E+00 -.256E+00 0.234E+04   -.600E+00 0.180E+00 -.234E+04   0.116E-01 0.106E-01 -.122E+01   -.396E-01 0.687E-01 -.194E-01
   -.241E+00 -.671E+00 0.234E+04   0.254E+00 0.571E+00 -.234E+04   -.594E-01 0.102E+00 -.112E+01   0.777E-01 -.570E-01 -.660E-01
   -.520E+00 0.367E+00 0.234E+04   0.551E+00 -.263E+00 -.234E+04   -.943E-02 -.363E-01 -.126E+01   -.274E-01 -.169E-01 -.124E-01
   0.158E+00 -.100E+01 0.234E+04   -.474E-01 0.993E+00 -.234E+04   -.138E-01 0.396E-03 -.103E+01   -.717E-01 0.369E-01 -.429E-01
   0.105E+01 -.110E+02 0.857E+03   -.115E+01 0.109E+02 -.857E+03   0.500E-01 0.137E+00 -.496E+00   0.722E-02 0.350E-01 -.902E-02
   -.359E+01 0.382E+00 0.863E+03   0.344E+01 -.326E+00 -.863E+03   0.135E+00 0.156E-01 -.239E+00   0.594E-01 -.645E-01 -.452E-01
   -.332E+01 -.611E+00 0.855E+03   0.348E+01 0.502E+00 -.855E+03   0.593E-01 0.870E-01 -.196E+00   -.865E-01 -.449E-02 -.257E-01
   -.289E+01 0.674E+01 0.857E+03   0.284E+01 -.683E+01 -.857E+03   0.256E-01 -.318E-01 -.236E+00   0.410E-01 0.171E-01 -.153E-01
   0.456E+01 -.484E+01 0.859E+03   -.464E+01 0.480E+01 -.859E+03   -.255E-01 0.508E-01 -.277E+00   0.132E-01 0.546E-01 0.153E-01
   0.149E+01 0.341E+01 0.864E+03   -.149E+01 -.341E+01 -.863E+03   -.172E-01 0.248E-01 -.325E+00   -.369E-01 -.439E-01 -.127E-01
   -.207E+01 0.372E+01 0.867E+03   0.206E+01 -.357E+01 -.867E+03   -.353E-01 -.130E+00 -.511E+00   0.703E-01 -.526E-01 -.363E-01
   -.875E+00 0.582E+01 0.859E+03   0.862E+00 -.579E+01 -.858E+03   0.359E-01 -.145E+00 -.312E+00   0.319E-01 0.105E-01 -.214E-01
   0.561E+01 -.226E+01 0.864E+03   -.547E+01 0.239E+01 -.864E+03   -.690E-01 -.112E+00 -.444E+00   -.998E-01 0.487E-01 0.158E-01
   -.484E+01 0.703E+01 -.629E+03   0.473E+01 -.714E+01 0.629E+03   0.175E+00 0.279E-01 0.656E+00   -.541E-02 -.127E-01 0.704E-01
   -.352E+00 0.259E+01 -.628E+03   0.298E+00 -.253E+01 0.627E+03   -.107E+00 0.131E+00 0.507E+00   0.910E-01 -.855E-01 0.112E-01
   -.569E+01 0.606E+01 -.650E+03   0.550E+01 -.572E+01 0.650E+03   0.236E+00 -.347E+00 0.205E+00   -.134E-01 -.258E-01 0.300E-01
   -.267E+01 0.119E+02 -.661E+03   0.227E+01 -.111E+02 0.661E+03   0.340E+00 -.882E+00 -.682E+00   -.197E-01 0.356E-01 0.823E-01
   0.129E+02 -.610E+01 -.627E+03   -.123E+02 0.597E+01 0.627E+03   -.690E+00 0.254E+00 0.291E+00   0.654E-01 0.255E-01 0.138E-01
   -.258E+01 -.135E+02 -.608E+03   0.256E+01 0.134E+02 0.607E+03   0.189E-01 0.129E+00 0.814E+00   -.570E-01 -.149E-01 0.479E-01
   -.974E+00 -.315E+01 -.634E+03   0.112E+01 0.323E+01 0.634E+03   -.134E+00 -.390E-01 0.258E+00   -.851E-01 -.234E-01 0.574E-01
   0.726E+00 -.259E+00 -.655E+03   -.884E+00 0.174E+00 0.655E+03   0.170E+00 0.113E-01 -.156E+00   0.822E-01 0.419E-01 0.815E-01
   0.217E+01 -.395E+01 -.627E+03   -.221E+01 0.367E+01 0.626E+03   0.191E+00 0.273E+00 0.185E+00   -.488E-01 0.532E-01 0.101E+00
   -.262E+02 -.109E+02 -.217E+04   0.266E+02 0.112E+02 0.217E+04   -.464E+00 -.420E+00 0.128E+01   0.231E-01 -.555E-01 0.656E-01
   0.177E+02 0.367E+02 -.214E+04   -.182E+02 -.371E+02 0.214E+04   0.390E+00 0.403E+00 0.154E+01   0.396E-01 -.479E-01 0.430E-01
   0.299E+02 -.770E+01 -.216E+04   -.304E+02 0.763E+01 0.216E+04   0.434E+00 0.576E-01 0.103E+01   -.102E-01 0.678E-01 0.842E-01
   0.165E+01 0.211E+01 -.217E+04   -.158E+01 -.243E+01 0.217E+04   -.157E+00 0.456E+00 0.102E+01   -.413E-01 0.208E-01 0.753E-01
   0.142E+02 0.203E+02 -.215E+04   -.143E+02 -.205E+02 0.215E+04   0.176E+00 0.130E-02 0.100E+01   -.145E-01 0.428E-02 0.896E-01
   0.655E+02 0.619E+02 -.198E+04   -.682E+02 -.603E+02 0.198E+04   0.259E+01 -.127E+01 -.322E+01   0.486E-01 0.219E-01 0.827E-01
   -.487E+02 -.477E+02 -.205E+04   0.502E+02 0.498E+02 0.205E+04   -.150E+01 -.210E+01 0.244E+01   -.487E-01 -.150E-01 0.478E-01
   -.643E+02 0.935E+02 -.205E+04   0.646E+02 -.939E+02 0.205E+04   -.277E+00 0.272E+00 -.153E+01   0.157E-01 -.157E-01 0.558E-01
   0.103E+02 -.718E+02 -.211E+04   -.102E+02 0.729E+02 0.211E+04   -.474E-01 -.941E+00 0.150E+01   -.120E-01 0.220E-02 -.112E-01
 -----------------------------------------------------------------------------------------------
   -.112E+02 0.266E+02 0.756E+02   0.000E+00 0.171E-12 -.682E-11   0.112E+02 -.265E+02 -.762E+02   0.406E-01 -.281E-01 0.617E+00
 
 
 POSITION                                       TOTAL-FORCE (eV/Angst)
 -----------------------------------------------------------------------------------
      5.07874      0.70094     10.33724        -0.473852     -0.552326      0.168858
      6.65185     -0.57887     10.19761         0.467029      0.289406      0.320953
      4.92898      1.12177     11.41407         0.350533     -0.079356     -0.243105
      7.20031     -1.38846      1.62732         0.004946     -0.049361      0.122950
      2.33567      1.42014      1.62732        -0.038750     -0.048460      0.178903
      4.76799      0.01584      1.62732        -0.021922     -0.028447      0.124251
      7.20031      1.42015      1.62732         0.011426      0.043862      0.112120
      2.33567      4.22875      1.62732        -0.012093      0.031764      0.149210
      4.76799      2.82445      1.62732         0.020934     -0.000171      0.178334
      2.33567      7.03734      1.62732         0.030568     -0.059232      0.023222
      4.76799      5.63304      1.62732        -0.007343      0.046697      0.106300
      7.20031      4.22874      1.62732         0.023742      0.024107      0.049889
      1.52490      0.01584      3.92052        -0.044226      0.134393     -0.154378
      3.95722     -1.38846      3.92052         0.047404      0.003381     -0.167004
      6.38953     -2.79276      3.92052         0.136549     -0.030079     -0.018304
      1.52490      2.82445      3.92052         0.016370     -0.100646      0.065437
      3.95722      1.42015      3.92052        -0.087216      0.063106      0.028326
      6.38953      0.01585      3.92052        -0.060499     -0.024010     -0.034589
      1.52490      5.63305      3.92052         0.024656     -0.033831     -0.335015
      3.95722      4.22874      3.92052         0.052938     -0.113599     -0.056795
      6.38953      2.82445      3.92052        -0.029849      0.067598     -0.274059
      0.70676      4.21040      6.18155         0.061394     -0.104352      0.190011
      3.15542      5.60677      6.17406        -0.071515      0.099574      0.029539
      5.57698     -1.38196      6.21881         0.025347     -0.040367      0.086376
      0.70368      1.45101      6.24997        -0.087888     -0.062624     -0.083905
      3.15855     -0.00707      6.18878        -0.075732      0.147122      0.154194
      0.71724      7.02638      6.14356        -0.058029      0.051904      0.275997
      5.59531      4.21941      6.19519        -0.076244      0.012499     -0.130811
      3.13251      2.80949      6.24011         0.092664     -0.034538     -0.316367
      5.56106      1.39944      6.19784         0.098445      0.045839     -0.112096
      2.36415      4.24021      8.49620         0.038348     -0.100740     -0.196888
      4.76536      5.61731      8.44893        -0.043421     -0.075946      0.047766
      2.32985      1.39066      8.53724        -0.077452      0.056256     -0.309045
      7.22092      4.17527      8.49937        -0.131361      0.153606     -0.053029
      2.32334      7.02756      8.45314         0.065395     -0.196575      0.089686
      4.67423      0.02057      8.59988        -0.122103      0.323914     -0.110834
      7.26173      1.42691      8.41119        -0.052245      0.031332      0.195492
      7.26261     -1.48340      8.63338         0.007008     -0.128350     -0.076847
      4.78853      2.82854      8.47228        -0.003955      0.236651     -0.024744
 -----------------------------------------------------------------------------------
    total drift:                                0.057750      0.137988      0.015284
  FORCES: max atom, RMS     0.747069    0.229255
  Number: max atom                 1
  FORCE total and by dimension    1.431700    0.552326


--------------------------------------------------------------------------------------------------------



  FREE ENERGIE OF THE ION-ELECTRON SYSTEM (eV)
  ---------------------------------------------------
  free  energy   TOTEN  =      -230.60724264 eV

  energy  without entropy=     -230.58294301  energy(sigma->0) =     -230.59914276
 
 d Force = 0.9553081E-01[ 0.479E-01, 0.143E+00]  d Energy = 0.9665021E-01-0.112E-02
 d Force =-0.1704433E+02[-0.173E+02,-0.168E+02]  d Ewald  =-0.1704390E+02-0.422E-03


--------------------------------------------------------------------------------------------------------


    POTLOK:  cpu time    0.2187: real time    0.2440


--------------------------------------------------------------------------------------------------------


 stress matrix after NEB project (eV)
    -36.05003      0.74735      0.94313
      0.74735    -38.70929     -0.27935
      0.94313     -0.27935     -3.39539
  FORCES: max atom, RMS     0.747069    0.229255
  FORCE total and by dimension    1.431700    0.552326
  Stress total and by dimension   53.033898   38.709288
 Quasi-Newton relaxation of ions (Broydens 2nd method)
  g(Force)  = 0.396E-01   g(Stress)= 0.000E+00

 retain information from N=  2 steps
 eigenvalues of (default step * inverse Hessian matrix)
  average eigenvalue of G=   0.3910
 eigenvalue spectrum of G is  0.3910  0.3910
  RESET_HESSIAN           0


--------------------------------------------------------------------------------------------------------


    WAVPRE:  cpu time    0.0785: real time    0.5221
    FEWALD:  cpu time    0.0019: real time    0.0019

 real space projection operators:
  total allocation   :      13553.36 KBytes
  max/ min on nodes  :       6782.16       6771.20

    ORTHCH:  cpu time    1.7622: real time    1.7967
     LOOP+:  cpu time  130.9351: real time  132.9894


--------------------------------------- Iteration      5(   1)  ---------------------------------------


    POTLOK:  cpu time    0.1725: real time    0.3043
