metal                                   
           1
     7.296955   -4.212899    0.000000
     0.000000    8.425798    0.000000
     0.000000    0.000000   21.879635
   C    O    Pt
   1   2  36
Direct configuration=     1
   0.69997379  0.43985667  0.47120620
   0.90581808  0.38448279  0.46769060
   0.67183725  0.46671255  0.52109473
   0.98675500  0.32859100  0.07437600
   0.32008800  0.32859100  0.07437600
   0.65342200  0.32859100  0.07437600
   0.98675500  0.66192500  0.07437600
   0.32008800  0.66192500  0.07437600
   0.65342200  0.66192500  0.07437600
   0.32008800  0.99525800  0.07437600
   0.65342200  0.99525800  0.07437600
   0.98675500  0.99525800  0.07437600
   0.20897700  0.10636900  0.17918600
   0.54231100  0.10636900  0.17918600
   0.87564400  0.10636900  0.17918600
   0.20897700  0.43970300  0.17918600
   0.54231100  0.43970300  0.17918600
   0.87564400  0.43970300  0.17918600
   0.20897700  0.77303600  0.17918600
   0.54231100  0.77303600  0.17918600
   0.87564400  0.77303600  0.17918600
   0.09378531  0.55160712  0.28183078
   0.43600875  0.88082492  0.28095043
   0.76027792  0.21843937  0.28350622
   0.09736554  0.22174265  0.28635750
   0.43792827  0.21365603  0.28092383
   0.09847814  0.87911013  0.27795607
   0.76283016  0.88099556  0.28428394
   0.43248877  0.55336345  0.28787630
   0.76207473  0.54687359  0.28557262
   0.32435139  0.66478414  0.38922161
   0.65407264  0.99418568  0.38592727
   0.31871005  0.32542673  0.39180169
   0.99209216  0.99029834  0.38940872
   0.31614673  0.99569895  0.38679979
   0.64403191  0.32457843  0.39517928
   0.99309498  0.66483547  0.38274094
   0.99879713  0.32004747  0.39238763
   0.65495033  0.65923787  0.38549059
Direct configuration=     2
   0.69914338  0.43773934  0.47185649
   0.90739535  0.38491624  0.46696728
   0.67277521  0.46808213  0.52131523
   0.98675500  0.32859100  0.07437600
   0.32008800  0.32859100  0.07437600
   0.65342200  0.32859100  0.07437600
   0.98675500  0.66192500  0.07437600
   0.32008800  0.66192500  0.07437600
   0.65342200  0.66192500  0.07437600
   0.32008800  0.99525800  0.07437600
   0.65342200  0.99525800  0.07437600
   0.98675500  0.99525800  0.07437600
   0.20897700  0.10636900  0.17918600
   0.54231100  0.10636900  0.17918600
   0.87564400  0.10636900  0.17918600
   0.20897700  0.43970300  0.17918600
   0.54231100  0.43970300  0.17918600
   0.87564400  0.43970300  0.17918600
   0.20897700  0.77303600  0.17918600
   0.54231100  0.77303600  0.17918600
   0.87564400  0.77303600  0.17918600
   0.09483642  0.55034458  0.28198653
   0.43475600  0.88110392  0.28138778
   0.76174609  0.21838659  0.28374596
   0.09714433  0.22137836  0.28610892
   0.43614287  0.21423140  0.28157012
   0.09850175  0.88062305  0.27888803
   0.76447192  0.88227538  0.28390270
   0.43108577  0.55131555  0.28700204
   0.76192537  0.54678656  0.28474951
   0.32415126  0.66502858  0.38898051
   0.65376045  0.99400415  0.38599207
   0.31903762  0.32512124  0.39134808
   0.99134451  0.99019805  0.38909684
   0.31691819  0.99501744  0.38659732
   0.64283333  0.32335551  0.39430136
   0.99394126  0.66561854  0.38330774
   0.99743097  0.32072401  0.39320821
   0.65545653  0.66070336  0.38617343
Direct configuration=     3
   0.69729457  0.43281702  0.47161093
   0.91023822  0.38623750  0.46624569
   0.67430172  0.47052027  0.52223750
   0.98675500  0.32859100  0.07437600
   0.32008800  0.32859100  0.07437600
   0.65342200  0.32859100  0.07437600
   0.98675500  0.66192500  0.07437600
   0.32008800  0.66192500  0.07437600
   0.65342200  0.66192500  0.07437600
   0.32008800  0.99525800  0.07437600
   0.65342200  0.99525800  0.07437600
   0.98675500  0.99525800  0.07437600
   0.20897700  0.10636900  0.17918600
   0.54231100  0.10636900  0.17918600
   0.87564400  0.10636900  0.17918600
   0.20897700  0.43970300  0.17918600
   0.54231100  0.43970300  0.17918600
   0.87564400  0.43970300  0.17918600
   0.20897700  0.77303600  0.17918600
   0.54231100  0.77303600  0.17918600
   0.87564400  0.77303600  0.17918600
   0.09628416  0.54875400  0.28234416
   0.43309266  0.88147271  0.28196342
   0.76359441  0.21821293  0.28408415
   0.09667362  0.22073910  0.28578863
   0.43378347  0.21517586  0.28248297
   0.09838113  0.88239818  0.28022581
   0.76622274  0.88368263  0.28337470
   0.42971671  0.54893723  0.28573870
   0.76199811  0.54699176  0.28368680
   0.32400937  0.66521675  0.38853143
   0.65327374  0.99347795  0.38610255
   0.31927005  0.32480389  0.39055853
   0.99012544  0.99025047  0.38864234
   0.31796390  0.99380188  0.38640003
   0.64129937  0.32284604  0.39345909
   0.99487273  0.66658205  0.38409328
   0.99585422  0.32142358  0.39423579
   0.65603284  0.66287753  0.38694448
Direct configuration=     4
   0.69600856  0.43119356  0.47245940
   0.91159276  0.38709459  0.46607787
   0.67548416  0.47087745  0.52167556
   0.98675500  0.32859100  0.07437600
   0.32008800  0.32859100  0.07437600
   0.65342200  0.32859100  0.07437600
   0.98675500  0.66192500  0.07437600
   0.32008800  0.66192500  0.07437600
   0.65342200  0.66192500  0.07437600
   0.32008800  0.99525800  0.07437600
   0.65342200  0.99525800  0.07437600
   0.98675500  0.99525800  0.07437600
   0.20897700  0.10636900  0.17918600
   0.54231100  0.10636900  0.17918600
   0.87564400  0.10636900  0.17918600
   0.20897700  0.43970300  0.17918600
   0.54231100  0.43970300  0.17918600
   0.87564400  0.43970300  0.17918600
   0.20897700  0.77303600  0.17918600
   0.54231100  0.77303600  0.17918600
   0.87564400  0.77303600  0.17918600
   0.09685665  0.54813174  0.28252541
   0.43242927  0.88164339  0.28218284
   0.76428904  0.21812913  0.28422844
   0.09643472  0.22042821  0.28565251
   0.43285816  0.21559025  0.28285560
   0.09829309  0.88305942  0.28078897
   0.76680078  0.88417293  0.28314883
   0.42928935  0.54808316  0.28520193
   0.76210719  0.54714366  0.28326990
   0.32399152  0.66523731  0.38831555
   0.65306210  0.99321142  0.38615489
   0.31929083  0.32469331  0.39019122
   0.98958053  0.99032427  0.38846047
   0.31839903  0.99325234  0.38634742
   0.64057250  0.32272769  0.39305395
   0.99517320  0.66693648  0.38443016
   0.99529346  0.32159203  0.39458510
   0.65623695  0.66381851  0.38722221
