 vasp.5.4.4 16052018 (build Apr 24 2014 20:13:14) complex standard
 Contain Constrained Minimization Technique (TS), Periodic NBO, VASPsol, libbeef, VASP2WANNIER90, Constrained Cell Relaxation
 executed on Center for Computational Chemistry by phu@node11 date 2025.11.24 22:11:48
 running on    8 total cores
 distrk:  each k-point on    8 cores,    1 groups
 distr:  one band on NCORES_PER_BAND=   2 cores,    4 groups


--------------------------------------------------------------------------------------------------------


 INCAR:
 POTCAR:   PAW_PBE C 08Apr2002                    
 POTCAR:   PAW_PBE O 08Apr2002                    
 POTCAR:    PAW_PBE Pt 04Feb2005                  
 POTCAR:   PAW_PBE C 08Apr2002                    
   VRHFIN =C: s2p2                                                              
   LEXCH  = PE                                                                  
   EATOM  =   147.1560 eV,   10.8157 Ry                                         
                                                                                
   TITEL  = PAW_PBE C 08Apr2002                                                 
   LULTRA =        F    use ultrasoft PP ?                                      
   IUNSCR =        0    unscreen: 0-lin 1-nonlin 2-no                           
   RPACOR =     .000    partial core radius                                     
   POMASS =   12.011; ZVAL   =    4.000    mass and valenz                      
   RCORE  =    1.500    outmost cutoff radius                                   
   RWIGS  =    1.630; RWIGS  =     .863    wigner-seitz radius (au A)           
   ENMAX  =  400.000; ENMIN  =  300.000 eV                                      
   ICORE  =        2    local potential                                         
   LCOR   =        T    correct aug charges                                     
   LPAW   =        T    paw PP                                                  
   EAUG   =  644.873                                                            
   DEXC   =     .000                                                            
   RMAX   =    2.266    core radius for proj-oper                               
   RAUG   =    1.300    factor for augmentation sphere                          
   RDEP   =    1.501    radius for radial grids                                 
   RDEPT  =    1.300    core radius for aug-charge                              
   QCUT   =   -5.516; QGAM   =   11.032    optimization parameters              
                                                                                
   Description                                                                  
     l     E      TYP  RCUT    TYP  RCUT                                        
     0   .000     23  1.200                                                     
     0   .000     23  1.200                                                     
     1   .000     23  1.500                                                     
     1  2.500     23  1.500                                                     
     2   .000      7  1.500                                                     
  local pseudopotential read in
  atomic valenz-charges read in
  non local Contribution for L=           0  read in
    real space projection operators read in
  non local Contribution for L=           0  read in
    real space projection operators read in
  non local Contribution for L=           1  read in
    real space projection operators read in
  non local Contribution for L=           1  read in
    real space projection operators read in
    PAW grid and wavefunctions read in
 
   number of l-projection  operators is LMAX  =           4
   number of lm-projection operators is LMMAX =           8
 
 POTCAR:   PAW_PBE O 08Apr2002                    
   VRHFIN =O: s2p4                                                              
   LEXCH  = PE                                                                  
   EATOM  =   432.3788 eV,   31.7789 Ry                                         
                                                                                
   TITEL  = PAW_PBE O 08Apr2002                                                 
   LULTRA =        F    use ultrasoft PP ?                                      
   IUNSCR =        0    unscreen: 0-lin 1-nonlin 2-no                           
   RPACOR =     .000    partial core radius                                     
   POMASS =   16.000; ZVAL   =    6.000    mass and valenz                      
   RCORE  =    1.520    outmost cutoff radius                                   
   RWIGS  =    1.550; RWIGS  =     .820    wigner-seitz radius (au A)           
   ENMAX  =  400.000; ENMIN  =  300.000 eV                                      
   ICORE  =        2    local potential                                         
   LCOR   =        T    correct aug charges                                     
   LPAW   =        T    paw PP                                                  
   EAUG   =  605.392                                                            
   DEXC   =     .000                                                            
   RMAX   =    2.264    core radius for proj-oper                               
   RAUG   =    1.300    factor for augmentation sphere                          
   RDEP   =    1.550    radius for radial grids                                 
   QCUT   =   -5.520; QGAM   =   11.041    optimization parameters              
                                                                                
   Description                                                                  
     l     E      TYP  RCUT    TYP  RCUT                                        
     0   .000     23  1.200                                                     
     0  -.700     23  1.200                                                     
     1   .000     23  1.520                                                     
     1   .600     23  1.520                                                     
     2   .000      7  1.500                                                     
  local pseudopotential read in
  atomic valenz-charges read in
  non local Contribution for L=           0  read in
    real space projection operators read in
  non local Contribution for L=           0  read in
    real space projection operators read in
  non local Contribution for L=           1  read in
    real space projection operators read in
  non local Contribution for L=           1  read in
    real space projection operators read in
    PAW grid and wavefunctions read in
 
   number of l-projection  operators is LMAX  =           4
   number of lm-projection operators is LMMAX =           8
 
 POTCAR:    PAW_PBE Pt 04Feb2005                  
   VRHFIN =Pt: s1d9                                                             
   LEXCH  = PE                                                                  
   EATOM  =   729.1182 eV,   53.5887 Ry                                         
                                                                                
   TITEL  = PAW_PBE Pt 04Feb2005                                                
   LULTRA =        F    use ultrasoft PP ?                                      
   IUNSCR =        1    unscreen: 0-lin 1-nonlin 2-no                           
   RPACOR =    2.330    partial core radius                                     
   POMASS =  195.080; ZVAL   =   10.000    mass and valenz                      
   RCORE  =    2.600    outmost cutoff radius                                   
   RWIGS  =    2.750; RWIGS  =    1.455    wigner-seitz radius (au A)           
   ENMAX  =  230.283; ENMIN  =  172.712 eV                                      
   ICORE  =        3    local potential                                         
   LCOR   =        T    correct aug charges                                     
   LPAW   =        T    paw PP                                                  
   EAUG   =  358.966                                                            
   DEXC   =     .000                                                            
   RMAX   =    3.038    core radius for proj-oper                               
   RAUG   =    1.300    factor for augmentation sphere                          
   RDEP   =    2.761    radius for radial grids                                 
   QCUT   =   -4.114; QGAM   =    8.228    optimization parameters              
                                                                                
   Description                                                                  
     l     E      TYP  RCUT    TYP  RCUT                                        
     2   .000     23  2.500                                                     
     2   .000     23  2.500                                                     
     0   .000     23  2.500                                                     
     0   .000     23  2.500                                                     
     1  -.200     23  2.600                                                     
     1  1.500     23  2.600                                                     
     3   .000     23  2.500                                                     
  local pseudopotential read in
  partial core-charges read in
  atomic valenz-charges read in
  non local Contribution for L=           2  read in
    real space projection operators read in
  non local Contribution for L=           2  read in
    real space projection operators read in
  non local Contribution for L=           0  read in
    real space projection operators read in
  non local Contribution for L=           0  read in
    real space projection operators read in
  non local Contribution for L=           1  read in
    real space projection operators read in
  non local Contribution for L=           1  read in
    real space projection operators read in
    PAW grid and wavefunctions read in
 
   number of l-projection  operators is LMAX  =           6
   number of lm-projection operators is LMMAX =          18
 
 Optimization of the real space projectors (new method)

 maximal supplied QI-value         = 25.13
 optimisation between [QCUT,QGAM] = [ 10.81, 21.61] = [ 32.71,130.83] Ry 
 Optimized for a Real-space Cutoff    1.23 Angstroem

   l    n(q)    QCUT    max X(q) W(low)/X(q) W(high)/X(q)  e(spline) 
   0      8    10.807     5.582    0.53E-04    0.84E-04    0.44E-07
   0      8    10.807    69.432    0.35E-03    0.71E-03    0.24E-06
   1      7    10.807     2.780    0.44E-04    0.88E-04    0.89E-07
   1      7    10.807     4.549    0.14E-03    0.28E-03    0.13E-06
 Optimization of the real space projectors (new method)

 maximal supplied QI-value         = 24.76
 optimisation between [QCUT,QGAM] = [ 10.64, 21.54] = [ 31.73,129.89] Ry 
 Optimized for a Real-space Cutoff    1.23 Angstroem

   l    n(q)    QCUT    max X(q) W(low)/X(q) W(high)/X(q)  e(spline) 
   0      8    10.645     4.192    0.69E-04    0.93E-04    0.58E-07
   0      8    10.645     8.473    0.40E-03    0.65E-03    0.17E-06
   1      7    10.645     2.474    0.80E-04    0.12E-03    0.30E-07
   1      7    10.645     3.912    0.24E-03    0.53E-03    0.16E-06
 Optimization of the real space projectors (new method)

 maximal supplied QI-value         = 14.36
 optimisation between [QCUT,QGAM] = [ 10.77, 21.69] = [ 32.49,131.70] Ry 
 Optimized for a Real-space Cutoff    1.46 Angstroem

   l    n(q)    QCUT    max X(q) W(low)/X(q) W(high)/X(q)  e(spline) 
   2      9    10.771     3.903    0.38E-04    0.12E-03    0.82E-07
   2      9    10.771    18.372    0.13E-03    0.32E-03    0.28E-06
   0     10    10.771    13.697    0.11E-04    0.86E-05    0.85E-08
   0     10    10.771    65.529    0.40E-04    0.12E-03    0.14E-06
   1      9    10.771     7.604    0.48E-04    0.31E-04    0.38E-07
   1      9    10.771    12.136    0.35E-03    0.16E-03    0.23E-06
 PAW_PBE C 08Apr2002                    :
 energy of atom  1       EATOM= -147.1560
 kinetic energy error for atom=    0.0116 (will be added to EATOM!!)
 PAW_PBE O 08Apr2002                    :
 energy of atom  2       EATOM= -432.3788
 kinetic energy error for atom=    0.0389 (will be added to EATOM!!)
  PAW_PBE Pt 04Feb2005                  :
 energy of atom  3       EATOM= -729.1182
 kinetic energy error for atom=    0.0051 (will be added to EATOM!!)
 
 
 POSCAR: C    O    Pt                            
  positions in direct lattice
  No initial velocities read in
 exchange correlation table for  LEXCH =        8
   RHO(1)=    0.500       N(1)  =     2000
   RHO(2)=  100.500       N(2)  =     4000

 VTST: version 3.2, (02/03/18)

 CHAIN: initializing optimizer
 
 OPT: Using VASP QUASI-newton optimizer
 CHAIN: Read ICHAIN            0
 
 POSCAR: C    O    Pt                            
  positions in direct lattice
  No initial velocities read in
 


--------------------------------------------------------------------------------------------------------


 ion  position               nearest neighbor table
   1  0.702  0.433  0.478-   3 1.16   2 2.00  36 2.09
   2  0.908  0.383  0.469-  38 1.92   1 2.00  36 2.68
   3  0.674  0.460  0.528-   1 1.16
   4  0.987  0.329  0.074-  15 2.81  16 2.81  12 2.81   5 2.81  11 2.81   6 2.81  18 2.81   8 2.81
                             7 2.81
   5  0.320  0.329  0.074-  13 2.81  10 2.81   4 2.81  12 2.81  16 2.81  17 2.81   8 2.81   9 2.81
                             6 2.81
   6  0.653  0.329  0.074-  14 2.81  18 2.81  11 2.81   4 2.81  17 2.81   7 2.81  10 2.81   9 2.81
                             5 2.81
   7  0.987  0.662  0.074-  18 2.81  21 2.81  19 2.81  12 2.81   8 2.81  10 2.81   9 2.81   6 2.81
                             4 2.81
   8  0.320  0.662  0.074-  16 2.81  19 2.81  10 2.81   7 2.81  20 2.81   4 2.81  11 2.81   5 2.81
                             9 2.81
   9  0.653  0.662  0.074-  17 2.81  20 2.81  21 2.81  11 2.81  12 2.81   7 2.81   6 2.81   5 2.81
                             8 2.81
  10  0.320  0.995  0.074-  13 2.81  19 2.81   5 2.81   8 2.81  12 2.81   7 2.81  14 2.81   6 2.81
                            11 2.81
  11  0.653  0.995  0.074-  14 2.81  20 2.81  15 2.81   9 2.81   6 2.81  12 2.81   4 2.81   8 2.81
                            10 2.81
  12  0.987  0.995  0.074-  15 2.81  21 2.81  13 2.81   7 2.81   4 2.81  10 2.81   5 2.81  11 2.81
                             9 2.81
  13  0.209  0.106  0.179-  27 2.75  25 2.76   5 2.81  10 2.81  12 2.81  19 2.81  15 2.81  21 2.81
                            16 2.81  14 2.81  17 2.81  26 2.84
  14  0.542  0.106  0.179-  23 2.80  26 2.81   6 2.81  11 2.81  20 2.81  15 2.81  10 2.81  18 2.81
                            19 2.81  17 2.81  13 2.81  24 2.87
  15  0.876  0.106  0.179-  28 2.73  25 2.74   4 2.81  12 2.81  11 2.81  21 2.81  13 2.81  20 2.81
                            14 2.81  16 2.81  18 2.81  24 2.83
  16  0.209  0.440  0.179-  29 2.70  22 2.72  25 2.76   8 2.81   4 2.81  19 2.81  18 2.81   5 2.81
                            15 2.81  20 2.81  13 2.81  17 2.81
  17  0.542  0.440  0.179-  29 2.72   9 2.81  20 2.81  21 2.81  18 2.81   6 2.81   5 2.81  14 2.81
                            13 2.81  16 2.81  26 2.82  30 2.85
  18  0.876  0.440  0.179-  22 2.76   7 2.81   6 2.81  21 2.81  16 2.81  19 2.81  17 2.81   4 2.81
                            14 2.81  15 2.81  30 2.85  24 2.86
  19  0.209  0.773  0.179-  22 2.75  27 2.78  23 2.80  10 2.81   8 2.81   7 2.81  16 2.81  13 2.81
                            21 2.81  18 2.81  14 2.81  20 2.81
  20  0.542  0.773  0.179-  28 2.71  29 2.71  23 2.78  11 2.81   9 2.81  17 2.81  14 2.81  21 2.81
                            15 2.81   8 2.81  16 2.81  19 2.81
  21  0.876  0.773  0.179-  28 2.72  27 2.76   7 2.81  12 2.81   9 2.81  18 2.81  15 2.81  19 2.81
                            13 2.81  17 2.81  20 2.81  30 2.83
  22  0.101  0.549  0.280-  16 2.72  19 2.75  18 2.76  29 2.76  25 2.78  31 2.80  23 2.80  24 2.81
                            30 2.85  27 2.86  37 2.93  38 3.04
  23  0.432  0.882  0.283-  35 2.70  31 2.72  32 2.75  28 2.78  20 2.78  29 2.79  22 2.80  19 2.80
                            14 2.80  26 2.81  24 2.82  27 2.85
  24  0.768  0.216  0.287-  32 2.71  25 2.76  28 2.79  22 2.81  26 2.82  23 2.82  15 2.83  36 2.84
                            30 2.86  18 2.86  14 2.87  38 2.89
  25  0.096  0.216  0.281-  15 2.74  24 2.76  16 2.76  13 2.76  34 2.78  22 2.78  27 2.78  29 2.81
                            28 2.82  26 2.86  33 2.87  38 2.94
  26  0.435  0.218  0.285-  36 2.75  35 2.75  33 2.77  14 2.81  30 2.81  23 2.81  24 2.82  17 2.82
                            27 2.83  29 2.83  13 2.84  25 2.86
  27  0.096  0.886  0.281-  34 2.72  13 2.75  21 2.76  19 2.78  25 2.78  30 2.79  35 2.80  28 2.80
                            26 2.83  37 2.83  23 2.85  22 2.86
  28  0.761  0.881  0.279-  20 2.71  21 2.72  15 2.73  23 2.78  30 2.79  32 2.79  29 2.79  24 2.79
                            27 2.80  25 2.82  34 2.84  39 2.86
  29  0.429  0.550  0.279-  16 2.70  20 2.71  17 2.72  22 2.76  31 2.79  23 2.79  28 2.79  25 2.81
                            26 2.83  30 2.83  39 2.91  33 2.93
  30  0.766  0.554  0.286-  39 2.78  28 2.79  27 2.79  37 2.79  36 2.80  26 2.81  29 2.83  21 2.83
                            22 2.85  18 2.85  17 2.85  24 2.86
  31  0.326  0.663  0.384-  23 2.72  35 2.74  39 2.75  32 2.76  29 2.79  22 2.80  37 2.86  33 2.86
                            38 2.87
  32  0.655  0.988  0.385-  39 2.71  24 2.71  23 2.75  31 2.76  35 2.78  28 2.79  34 2.81  38 2.82
                            36 2.91
  33  0.321  0.320  0.388-  36 2.69  26 2.77  34 2.77  38 2.78  35 2.83  39 2.86  31 2.86  25 2.87
                            29 2.93
  34  0.991  0.994  0.384-  37 2.71  27 2.72  38 2.75  33 2.77  25 2.78  39 2.81  32 2.81  35 2.84
                            28 2.84
  35  0.324  0.987  0.384-  23 2.70  37 2.73  31 2.74  26 2.75  32 2.78  36 2.79  27 2.80  33 2.83
                            34 2.84
  36  0.644  0.328  0.390-   1 2.09   2 2.68  33 2.69  26 2.75  35 2.79  30 2.80  39 2.81  24 2.84
                            32 2.91  37 2.92  38 2.97
  37  0.992  0.673  0.389-  34 2.71  35 2.73  30 2.79  39 2.82  27 2.83  31 2.86  36 2.92  22 2.93
                            38 2.98
  38  0.990  0.319  0.396-   2 1.92  34 2.75  33 2.78  32 2.82  31 2.87  24 2.89  25 2.94  36 2.97
                            37 2.98  22 3.04
  39  0.653  0.666  0.389-  32 2.71  31 2.75  30 2.78  34 2.81  36 2.81  37 2.82  33 2.86  28 2.86
                            29 2.91
 

IMPORTANT INFORMATION: All symmetrisations will be switched off!
NOSYMM: (Re-)initialisation of all symmetry stuff for point group C_1.

 
 
 KPOINTS: mesh auto                               

Automatic generation of k-mesh.
Space group operators:
 irot       det(A)        alpha          n_x          n_y          n_z        tau_x        tau_y        tau_z
    1     1.000000     0.000000     1.000000     0.000000     0.000000     0.000000     0.000000     0.000000
 
 Subroutine IBZKPT returns following result:
 ===========================================
 
 Found      4 irreducible k-points:
 
 Following reciprocal coordinates:
            Coordinates               Weight
  0.000000  0.000000  0.000000      1.000000
  0.500000  0.000000  0.000000      1.000000
 -0.000000  0.500000  0.000000      1.000000
  0.500000  0.500000  0.000000      1.000000
 
 Following cartesian coordinates:
            Coordinates               Weight
  0.000000  0.000000  0.000000      1.000000
  0.068522  0.000000  0.000000      1.000000
  0.034261  0.059342  0.000000      1.000000
  0.102783  0.059342  0.000000      1.000000
 


--------------------------------------------------------------------------------------------------------




 Dimension of arrays:
   k-points           NKPTS =      4   k-points in BZ     NKDIM =      4   number of bands    NBANDS=    228
   number of dos      NEDOS =    301   number of ions     NIONS =     39
   non local maximal  LDIM  =      6   non local SUM 2l+1 LMDIM =     18
   total plane-waves  NPLWV = 276480
   max r-space proj   IRMAX =   2756   max aug-charges    IRDMAX=  12646
   dimension x,y,z NGX =    48 NGY =   48 NGZ =  120
   dimension x,y,z NGXF=    96 NGYF=   96 NGZF=  240
   support grid    NGXF=    96 NGYF=   96 NGZF=  240
   ions per type =               1   2  36
   NGX,Y,Z   is equivalent  to a cutoff of   9.47,  9.47,  9.12 a.u.
   NGXF,Y,Z  is equivalent  to a cutoff of  18.94, 18.94, 18.24 a.u.

 SYSTEM =  metal                                   
 POSCAR =  C    O    Pt                            

 Startparameter for this run:
   NWRITE =      2    write-flag & timer
   PREC   = normal    normal or accurate (medium, high low for compatibility)
   ISTART =      0    job   : 0-new  1-cont  2-samecut
   ICHARG =      2    charge: 1-file 2-atom 10-const
   ISPIN  =      1    spin polarized calculation?
   LNONCOLLINEAR =      F non collinear calculations
   LSORBIT =      F    spin-orbit coupling
   INIWAV =      1    electr: 0-lowe 1-rand  2-diag
   LASPH  =      F    aspherical Exc in radial PAW
   METAGGA=      F    non-selfconsistent MetaGGA calc.

 Electronic Relaxation 1
   ENCUT  =  450.0 eV  33.07 Ry    5.75 a.u.  14.57 14.57 37.84*2*pi/ulx,y,z
   ENINI  =  450.0     initial cutoff
   ENAUG  =  644.9 eV  augmentation charge cutoff
   NELM   =     60;   NELMIN=  8; NELMDL= -5     # of ELM steps 
   EDIFF  = 0.1E-03   stopping-criterion for ELM
   LREAL  =      T    real-space projection
   NLSPLINE    = F    spline interpolate recip. space projectors
   LCOMPAT=      F    compatible to vasp.4.4
   GGA_COMPAT  = T    GGA compatible to vasp.4.4-vasp.4.6
   LMAXPAW     = -100 max onsite density
   LMAXMIX     =    2 max onsite mixed and CHGCAR
   VOSKOWN=      0    Vosko Wilk Nusair interpolation
   ROPT   =   -0.00050  -0.00050  -0.00050
 Ionic relaxation
   EDIFFG = -.5E-01   stopping-criterion for IOM
   NSW    =   5000    number of steps for IOM
   NBLOCK =      1;   KBLOCK =   5000    inner block; outer block 
   IBRION =      1    ionic relax: 0-MD 1-quasi-New 2-CG
   NFREE  =      0    steps in history (QN), initial steepest desc. (CG)
   ISIF   =      2    stress and relaxation
   IWAVPR =     11    prediction:  0-non 1-charg 2-wave 3-comb
   ISYM   =      0    0-nonsym 1-usesym 2-fastsym
   LCORR  =      T    Harris-Foulkes like correction to forces

   POTIM  = 0.2000    time-step for ionic-motion
   TEIN   =    0.0    initial temperature
   TEBEG  =    0.0;   TEEND  =   0.0 temperature during run
   SMASS  =  -3.00    Nose mass-parameter (am)
   estimated Nose-frequenzy (Omega)   =  0.10E-29 period in steps =****** mass=  -0.162E-26a.u.
   SCALEE = 1.0000    scale energy and forces
   NPACO  =    256;   APACO  = 16.0  distance and # of slots for P.C.
   PSTRESS=    0.0 pullay stress

  Mass of Ions in am
   POMASS =  12.01 16.00195.08
  Ionic Valenz
   ZVAL   =   4.00  6.00 10.00
  Atomic Wigner-Seitz radii
   RWIGS  =  -1.00 -1.00 -1.00
  virtual crystal weights 
   VCA    =   1.00  1.00  1.00
   NELECT =     376.0000    total number of electrons
   NUPDOWN=      -1.0000    fix difference up-down

 DOS related values:
   EMIN   =  10.00;   EMAX   =-10.00  energy-range for DOS
   EFERMI =   0.00
   ISMEAR =     1;   SIGMA  =   0.20  broadening in eV -4-tet -1-fermi 0-gaus

 Electronic relaxation 2 (details)
   IALGO  =     68    algorithm
   LDIAG  =      T    sub-space diagonalisation (order eigenvalues)
   LSUBROT=      F    optimize rotation matrix (better conditioning)
   TURBO    =      0    0=normal 1=particle mesh
   IRESTART =      0    0=no restart 2=restart with 2 vectors
   NREBOOT  =      0    no. of reboots
   NMIN     =      0    reboot dimension
   EREF     =   0.00    reference energy to select bands
   IMIX   =      4    mixing-type and parameters
     AMIX     =   0.40;   BMIX     =  1.00
     AMIX_MAG =   1.60;   BMIX_MAG =  1.00
     AMIN     =   0.10
     WC   =   100.;   INIMIX=   1;  MIXPRE=   1;  MAXMIX= -45

 Intra band minimization:
   WEIMIN = 0.0010     energy-eigenvalue tresh-hold
   EBREAK =  0.11E-06  absolut break condition
   DEPER  =   0.30     relativ break condition  

   TIME   =   0.40     timestep for ELM

  volume/ion in A,a.u.               =      34.49       232.77
  Fermi-wavevector in a.u.,A,eV,Ry     =   1.070385  2.022734 15.588510  1.145723
  Thomas-Fermi vector in A             =   2.206093
 
 Write flags
   LWAVE        =      F    write WAVECAR
   LDOWNSAMPLE  =      F    k-point downsampling of WAVECAR
   LCHARG       =      F    write CHGCAR
   LVTOT        =      F    write LOCPOT, total local potential
   LVHAR        =      F    write LOCPOT, Hartree potential only
   LELF         =      F    write electronic localiz. function (ELF)
   LORBIT       =      0    0 simple, 1 ext, 2 COOP (PROOUT), +10 PAW based schemes


 Dipole corrections
   LMONO  =      F    monopole corrections only (constant potential shift)
   LDIPOL =      F    correct potential (dipole corrections)
   IDIPOL =      0    1-x, 2-y, 3-z, 4-all directions 
   EPSILON=  1.0000000 bulk dielectric constant

 Exchange correlation treatment:
   GGA     =    --    GGA type
   LEXCH   =     8    internal setting for exchange type
   VOSKOWN=      0    Vosko Wilk Nusair interpolation
   LHFCALC =     F    Hartree Fock is set to
   LHFONE  =     F    Hartree Fock one center treatment
   AEXX    =    0.0000 exact exchange contribution

 Linear response parameters
   LEPSILON=     F    determine dielectric tensor
   LRPA    =     F    only Hartree local field effects (RPA)
   LNABLA  =     F    use nabla operator in PAW spheres
   LVEL    =     F    velocity operator in full k-point grid
   LINTERFAST=   F  fast interpolation
   KINTER  =     0    interpolate to denser k-point grid
   CSHIFT  =0.1000    complex shift for real part using Kramers Kronig
   OMEGAMAX=  -1.0    maximum frequency
   DEG_THRESHOLD= 0.2000000E-02 threshold for treating states as degnerate
   RTIME   =   -0.100 relaxation time in fs
  (WPLASMAI=    0.000 imaginary part of plasma frequency in eV, 0.658/RTIME)
   DFIELD  = 0.0000000 0.0000000 0.0000000 field for delta impulse in time
 
 Orbital magnetization related:
   ORBITALMAG=     F  switch on orbital magnetization
   LCHIMAG   =     F  perturbation theory with respect to B field
   DQ        =  0.001000  dq finite difference perturbation B field
   LLRAUG    =     F  two centre corrections for induced B field



--------------------------------------------------------------------------------------------------------


 quasi-Newton-method for relaxation of ions
   using selective dynamics as specified on POSCAR
 charge density and potential will be updated during run
 non-spin polarized calculation
 RMM-DIIS sequential band-by-band and
  variant of blocked Davidson during initial phase
 perform sub-space diagonalisation
    before iterative eigenvector-optimisation
 modified Broyden-mixing scheme, WC =      100.0
 initial mixing is a Kerker type mixing with AMIX =  0.4000 and BMIX =      1.0000
 Hartree-type preconditioning will be used
 using additional bands           40
 real space projection scheme for non local part
 use partial core corrections
 calculate Harris-corrections to forces 
   (improved forces if not selfconsistent)
 use gradient corrections 
 use of overlap-Matrix (Vanderbilt PP)
 Methfessel and Paxton  Order N= 1 SIGMA  =   0.20


--------------------------------------------------------------------------------------------------------


  energy-cutoff  :      450.00
  volume of cell :     1345.22
      direct lattice vectors                 reciprocal lattice vectors
     7.296955120 -4.212899000  0.000000000     0.137043463  0.000000000  0.000000000
     0.000000000  8.425798000  0.000000000     0.068521732  0.118683121  0.000000000
     0.000000000  0.000000000 21.879635000     0.000000000  0.000000000  0.045704602

  length of vectors
     8.425798004  8.425798000 21.879635000     0.137043463  0.137043463  0.045704602


 
 k-points in units of 2pi/SCALE and weight: mesh auto                               
   0.00000000  0.00000000  0.00000000       0.250
   0.06852173  0.00000000  0.00000000       0.250
   0.03426087  0.05934156  0.00000000       0.250
   0.10278260  0.05934156  0.00000000       0.250
 
 k-points in reciprocal lattice and weights: mesh auto                               
   0.00000000  0.00000000  0.00000000       0.250
   0.50000000  0.00000000  0.00000000       0.250
  -0.00000000  0.50000000  0.00000000       0.250
   0.50000000  0.50000000  0.00000000       0.250
 
 position of ions in fractional coordinates (direct lattice) 
   0.70215740  0.43317844  0.47842573
   0.90837758  0.38256416  0.46861937
   0.67402085  0.46003432  0.52831426
   0.98675500  0.32859100  0.07437600
   0.32008800  0.32859100  0.07437600
   0.65342200  0.32859100  0.07437600
   0.98675500  0.66192500  0.07437600
   0.32008800  0.66192500  0.07437600
   0.65342200  0.66192500  0.07437600
   0.32008800  0.99525800  0.07437600
   0.65342200  0.99525800  0.07437600
   0.98675500  0.99525800  0.07437600
   0.20897700  0.10636900  0.17918600
   0.54231100  0.10636900  0.17918600
   0.87564400  0.10636900  0.17918600
   0.20897700  0.43970300  0.17918600
   0.54231100  0.43970300  0.17918600
   0.87564400  0.43970300  0.17918600
   0.20897700  0.77303600  0.17918600
   0.54231100  0.77303600  0.17918600
   0.87564400  0.77303600  0.17918600
   0.10142178  0.54910521  0.28011410
   0.43227824  0.88245401  0.28329696
   0.76843910  0.21584646  0.28653175
   0.09550197  0.21640978  0.28085085
   0.43501234  0.21776717  0.28474696
   0.09615180  0.88639787  0.28143482
   0.76114329  0.88117245  0.27904214
   0.42926473  0.55007557  0.27851742
   0.76630556  0.55373787  0.28600622
   0.32577078  0.66256092  0.38366971
   0.65457809  0.98825886  0.38459833
   0.32059092  0.32038883  0.38845076
   0.99084417  0.99362651  0.38368939
   0.32401636  0.98683573  0.38422555
   0.64353505  0.32794675  0.38957061
   0.99151776  0.67268168  0.38927788
   0.99041590  0.31873934  0.39582112
   0.65324930  0.66609168  0.38853745
 
 position of ions in cartesian coordinates  (Angst):
   5.12361102  0.69175585 10.46778035
   6.62839043 -0.60349465 10.25322085
   4.91829991  1.03657451 11.55932322
   7.20030695 -1.38845776  1.62731973
   2.33566777  1.42014298  1.62731973
   4.76799101  0.01584050  1.62731973
   7.20030695  1.42014719  1.62731973
   2.33566777  4.22874793  1.62731973
   4.76799101  2.82444545  1.62731973
   2.33566777  7.03734445  1.62731973
   4.76799101  5.63304198  1.62731973
   7.20030695  4.22874371  1.62731973
   1.52489579  0.01584471  3.92052428
   3.95721903 -1.38845776  3.92052428
   6.38953497 -2.79275602  3.92052428
   1.52489579  2.82444966  3.92052428
   3.95721903  1.42014719  3.92052428
   6.38953497  0.01584893  3.92052428
   1.52489579  5.63304619  3.92052428
   3.95721903  4.22874371  3.92052428
   6.38953497  2.82444545  3.92052428
   0.74007020  4.19936988  6.12879427
   3.15431494  5.61423468  6.19843418
   5.60726561 -1.41867765  6.26921012
   0.69687358  1.42108495  6.14491404
   3.17426549  0.00219919  6.23015963
   0.70161535  7.06353162  6.15769117
   5.55402843  4.21796129  6.10534007
   3.13232547  2.82637667  6.09385943
   5.59169727  1.43731552  6.25771163
   2.37713473  4.21016513  8.39455329
   4.77642694  5.56919818  8.41487116
   2.33933754  1.34891443  8.49916087
   7.23014543  4.19776983  8.39498390
   2.36433282  6.94983031  8.40671486
   4.69584637  0.05206494  8.52366277
   7.23506060  1.49071578  8.51725796
   7.22702039 -1.48688884  8.66042165
   4.76673085  2.86028057  8.50105760
 


--------------------------------------------------------------------------------------------------------


 k-point  1 :   0.0000 0.0000 0.0000  plane waves:   29241
 k-point  2 :   0.5000 0.0000 0.0000  plane waves:   29108
 k-point  3 :  -0.0000 0.5000 0.0000  plane waves:   29108
 k-point  4 :   0.5000 0.5000 0.0000  plane waves:   29108

 maximum and minimum number of plane-waves per node :     14624    14548

 maximum number of plane-waves:     29241
 maximum index in each direction: 
   IXMAX=   14   IYMAX=   14   IZMAX=   37
   IXMIN=  -15   IYMIN=  -15   IZMIN=  -37


 real space projection operators:
  total allocation   :      13557.12 KBytes
  max/ min on nodes  :       6785.11       6772.02


 parallel 3D FFT for wavefunctions:
    minimum data exchange during FFTs selected (reduces bandwidth)
 parallel 3D FFT for charge:
    minimum data exchange during FFTs selected (reduces bandwidth)


 total amount of memory used by VASP MPI-rank0   131953. kBytes
=======================================================================

   base      :      30000. kBytes
   nonlr-proj:      10145. kBytes
   fftplans  :      13556. kBytes
   grid      :      23353. kBytes
   one-center:        311. kBytes
   wavefun   :      54588. kBytes
 
     INWAV:  cpu time    0.0000: real time    0.0000
 Broyden mixing: mesh for mixing (old mesh)
   NGX = 29   NGY = 29   NGZ = 75
  (NGX  = 96   NGY  = 96   NGZ  =240)
  gives a total of  63075 points

 initial charge density was supplied:
 charge density of overlapping atoms calculated
 number of electron     376.0000000 magnetization 
 keeping initial charge density in first step


--------------------------------------------------------------------------------------------------------


 Maximum index for non-local projection operator         1329
 Maximum index for augmentation-charges         1558 (set IRDMAX)


--------------------------------------------------------------------------------------------------------


 First call to EWALD:  gamma=   0.161
 Maximum number of real-space cells 4x 4x 2
 Maximum number of reciprocal cells 2x 2x 5

    FEWALD:  cpu time    0.0024: real time    0.0025


--------------------------------------- Iteration      1(   1)  ---------------------------------------


    POTLOK:  cpu time    0.1919: real time    0.2785
    SETDIJ:  cpu time    0.0122: real time    0.0123
     EDDAV:  cpu time   12.3284: real time   12.4297
       DOS:  cpu time    0.0011: real time    0.0012
    --------------------------------------------
      LOOP:  cpu time   12.5337: real time   12.7218

 eigenvalue-minimisations  :  1824
 total energy-change (2. order) : 0.2419853E+04  (-0.1595226E+05)
 number of electron     376.0000000 magnetization 
 augmentation part      376.0000000 magnetization 

 Free energy of the ion-electron system (eV)
  ---------------------------------------------------
  alpha Z        PSCENC =       975.10247152
  Ewald energy   TEWEN  =     91627.66578349
  -Hartree energ DENC   =   -120716.46228988
  -exchange      EXHF   =         0.00000000
  -V(xc)+E(xc)   XCENC  =       189.80172531
  PAW double counting   =     24789.08602224   -23775.73976456
  entropy T*S    EENTRO =        -0.00390213
  eigenvalues    EBANDS =      2070.50908617
  atomic energy  EATOM  =     27259.89416086
  Solvation  Ediel_sol  =         0.00000000
  ---------------------------------------------------
  free energy    TOTEN  =      2419.85329302 eV

  energy without entropy =     2419.85719516  energy(sigma->0) =     2419.85459374


--------------------------------------------------------------------------------------------------------




--------------------------------------- Iteration      1(   2)  ---------------------------------------


     EDDAV:  cpu time   13.4890: real time   13.5997
       DOS:  cpu time    0.0012: real time    0.0012
    --------------------------------------------
      LOOP:  cpu time   13.4901: real time   13.6009

 eigenvalue-minimisations  :  2112
 total energy-change (2. order) :-0.2482113E+04  (-0.2307453E+04)
 number of electron     376.0000000 magnetization 
 augmentation part      376.0000000 magnetization 

 Free energy of the ion-electron system (eV)
  ---------------------------------------------------
  alpha Z        PSCENC =       975.10247152
  Ewald energy   TEWEN  =     91627.66578349
  -Hartree energ DENC   =   -120716.46228988
  -exchange      EXHF   =         0.00000000
  -V(xc)+E(xc)   XCENC  =       189.80172531
  PAW double counting   =     24789.08602224   -23775.73976456
  entropy T*S    EENTRO =        -0.00684043
  eigenvalues    EBANDS =      -411.60128732
  atomic energy  EATOM  =     27259.89416086
  Solvation  Ediel_sol  =         0.00000000
  ---------------------------------------------------
  free energy    TOTEN  =       -62.26001877 eV

  energy without entropy =      -62.25317834  energy(sigma->0) =      -62.25773863


--------------------------------------------------------------------------------------------------------




--------------------------------------- Iteration      1(   3)  ---------------------------------------


     EDDAV:  cpu time   13.7619: real time   13.8613
       DOS:  cpu time    0.0012: real time    0.0012
    --------------------------------------------
      LOOP:  cpu time   13.7631: real time   13.8625

 eigenvalue-minimisations  :  2200
 total energy-change (2. order) :-0.1783174E+03  (-0.1619680E+03)
 number of electron     376.0000000 magnetization 
 augmentation part      376.0000000 magnetization 

 Free energy of the ion-electron system (eV)
  ---------------------------------------------------
  alpha Z        PSCENC =       975.10247152
  Ewald energy   TEWEN  =     91627.66578349
  -Hartree energ DENC   =   -120716.46228988
  -exchange      EXHF   =         0.00000000
  -V(xc)+E(xc)   XCENC  =       189.80172531
  PAW double counting   =     24789.08602224   -23775.73976456
  entropy T*S    EENTRO =         0.01003263
  eigenvalues    EBANDS =      -589.93557759
  atomic energy  EATOM  =     27259.89416086
  Solvation  Ediel_sol  =         0.00000000
  ---------------------------------------------------
  free energy    TOTEN  =      -240.57743597 eV

  energy without entropy =     -240.58746860  energy(sigma->0) =     -240.58078018


--------------------------------------------------------------------------------------------------------




--------------------------------------- Iteration      1(   4)  ---------------------------------------


     EDDAV:  cpu time   14.7007: real time   14.8074
       DOS:  cpu time    0.0011: real time    0.0011
    --------------------------------------------
      LOOP:  cpu time   14.7018: real time   14.8085

 eigenvalue-minimisations  :  2312
 total energy-change (2. order) :-0.7548975E+01  (-0.7270345E+01)
 number of electron     376.0000000 magnetization 
 augmentation part      376.0000000 magnetization 

 Free energy of the ion-electron system (eV)
  ---------------------------------------------------
  alpha Z        PSCENC =       975.10247152
  Ewald energy   TEWEN  =     91627.66578349
  -Hartree energ DENC   =   -120716.46228988
  -exchange      EXHF   =         0.00000000
  -V(xc)+E(xc)   XCENC  =       189.80172531
  PAW double counting   =     24789.08602224   -23775.73976456
  entropy T*S    EENTRO =         0.01384259
  eigenvalues    EBANDS =      -597.48836216
  atomic energy  EATOM  =     27259.89416086
  Solvation  Ediel_sol  =         0.00000000
  ---------------------------------------------------
  free energy    TOTEN  =      -248.12641058 eV

  energy without entropy =     -248.14025317  energy(sigma->0) =     -248.13102478


--------------------------------------------------------------------------------------------------------




--------------------------------------- Iteration      1(   5)  ---------------------------------------


     EDDAV:  cpu time   15.1197: real time   15.2292
       DOS:  cpu time    0.0012: real time    0.0012
    CHARGE:  cpu time    0.7898: real time    0.7947
    MIXING:  cpu time    0.0106: real time    0.0106
    --------------------------------------------
      LOOP:  cpu time   15.9213: real time   16.0358

 eigenvalue-minimisations  :  2400
 total energy-change (2. order) :-0.2260667E+00  (-0.2234712E+00)
 number of electron     376.0000067 magnetization 
 augmentation part      105.7979579 magnetization 

 Broyden mixing:
  rms(total) = 0.27237E+01    rms(broyden)= 0.27233E+01
  rms(prec ) = 0.30352E+01
  weight for this iteration     100.00

 Free energy of the ion-electron system (eV)
  ---------------------------------------------------
  alpha Z        PSCENC =       975.10247152
  Ewald energy   TEWEN  =     91627.66578349
  -Hartree energ DENC   =   -120716.46228988
  -exchange      EXHF   =         0.00000000
  -V(xc)+E(xc)   XCENC  =       189.80172531
  PAW double counting   =     24789.08602224   -23775.73976456
  entropy T*S    EENTRO =         0.01384401
  eigenvalues    EBANDS =      -597.71443028
  atomic energy  EATOM  =     27259.89416086
  Solvation  Ediel_sol  =         0.00000000
  ---------------------------------------------------
  free energy    TOTEN  =      -248.35247728 eV

  energy without entropy =     -248.36632129  energy(sigma->0) =     -248.35709195


--------------------------------------------------------------------------------------------------------




--------------------------------------- Iteration      1(   6)  ---------------------------------------


    POTLOK:  cpu time    0.1774: real time    0.1787
    SETDIJ:  cpu time    0.0117: real time    0.0117
    EDDIAG:  cpu time    2.0595: real time    2.0740
  RMM-DIIS:  cpu time    7.1260: real time    7.1794
    ORTHCH:  cpu time    0.2749: real time    0.2768
       DOS:  cpu time    0.0013: real time    0.0013
    CHARGE:  cpu time    0.7829: real time    0.7879
    MIXING:  cpu time    0.0084: real time    0.0085
    --------------------------------------------
      LOOP:  cpu time   10.4421: real time   10.5184

 eigenvalue-minimisations  :  1832
 total energy-change (2. order) : 0.2518816E+01  (-0.5426332E+01)
 number of electron     376.0000059 magnetization 
 augmentation part      112.8599966 magnetization 

 Broyden mixing:
  rms(total) = 0.29007E+01    rms(broyden)= 0.28997E+01
  rms(prec ) = 0.38900E+01
  weight for this iteration     100.00

 eigenvalues of (default mixing * dielectric matrix)
  average eigenvalue GAMMA=   0.4938
  0.4938

 Free energy of the ion-electron system (eV)
  ---------------------------------------------------
  alpha Z        PSCENC =       975.10247152
  Ewald energy   TEWEN  =     91627.66578349
  -Hartree energ DENC   =   -120248.87727765
  -exchange      EXHF   =         0.00000000
  -V(xc)+E(xc)   XCENC  =       182.64261977
  PAW double counting   =     26740.84573203   -25781.32459689
  entropy T*S    EENTRO =        -0.15937962
  eigenvalues    EBANDS =     -1001.62317517
  atomic energy  EATOM  =     27259.89416086
  Solvation  Ediel_sol  =         0.00000000
  ---------------------------------------------------
  free energy    TOTEN  =      -245.83366165 eV

  energy without entropy =     -245.67428203  energy(sigma->0) =     -245.78053511


--------------------------------------------------------------------------------------------------------




--------------------------------------- Iteration      1(   7)  ---------------------------------------


    POTLOK:  cpu time    0.1751: real time    0.1764
    SETDIJ:  cpu time    0.0119: real time    0.0119
    EDDIAG:  cpu time    2.0267: real time    2.0408
  RMM-DIIS:  cpu time    7.1073: real time    7.1611
    ORTHCH:  cpu time    0.2636: real time    0.2653
       DOS:  cpu time    0.0012: real time    0.0012
    CHARGE:  cpu time    0.7805: real time    0.7853
    MIXING:  cpu time    0.0071: real time    0.0072
    --------------------------------------------
      LOOP:  cpu time   10.3734: real time   10.4491

 eigenvalue-minimisations  :  1830
 total energy-change (2. order) : 0.4237271E+01  (-0.3183471E+01)
 number of electron     376.0000078 magnetization 
 augmentation part      111.3236035 magnetization 

 Broyden mixing:
  rms(total) = 0.19766E+01    rms(broyden)= 0.19757E+01
  rms(prec ) = 0.31578E+01
  weight for this iteration     100.00

 eigenvalues of (default mixing * dielectric matrix)
  average eigenvalue GAMMA=   0.6158
  0.9778  0.2539

 Free energy of the ion-electron system (eV)
  ---------------------------------------------------
  alpha Z        PSCENC =       975.10247152
  Ewald energy   TEWEN  =     91627.66578349
  -Hartree energ DENC   =   -120449.71172625
  -exchange      EXHF   =         0.00000000
  -V(xc)+E(xc)   XCENC  =       180.32467387
  PAW double counting   =     27395.48156224   -26443.42916781
  entropy T*S    EENTRO =        -0.08918335
  eigenvalues    EBANDS =      -786.83496487
  atomic energy  EATOM  =     27259.89416086
  Solvation  Ediel_sol  =         0.00000000
  ---------------------------------------------------
  free energy    TOTEN  =      -241.59639029 eV

  energy without entropy =     -241.50720694  energy(sigma->0) =     -241.56666250


--------------------------------------------------------------------------------------------------------




--------------------------------------- Iteration      1(   8)  ---------------------------------------


    POTLOK:  cpu time    0.1650: real time    0.1661
    SETDIJ:  cpu time    0.0117: real time    0.0117
    EDDIAG:  cpu time    1.9635: real time    1.9773
  RMM-DIIS:  cpu time    7.0207: real time    7.0731
    ORTHCH:  cpu time    0.2649: real time    0.2666
       DOS:  cpu time    0.0011: real time    0.0011
    CHARGE:  cpu time    0.6392: real time    0.6437
    MIXING:  cpu time    0.0063: real time    0.0064
    --------------------------------------------
      LOOP:  cpu time   10.0725: real time   10.1462

 eigenvalue-minimisations  :  1827
 total energy-change (2. order) :-0.3108028E+01  (-0.9196154E+00)
 number of electron     376.0000071 magnetization 
 augmentation part      112.0877719 magnetization 

 Broyden mixing:
  rms(total) = 0.22791E+01    rms(broyden)= 0.22790E+01
  rms(prec ) = 0.42176E+01
  weight for this iteration     100.00

 eigenvalues of (default mixing * dielectric matrix)
  average eigenvalue GAMMA=   0.5479
  1.2048  0.2867  0.1521

 Free energy of the ion-electron system (eV)
  ---------------------------------------------------
  alpha Z        PSCENC =       975.10247152
  Ewald energy   TEWEN  =     91627.66578349
  -Hartree energ DENC   =   -120388.15647561
  -exchange      EXHF   =         0.00000000
  -V(xc)+E(xc)   XCENC  =       179.19483636
  PAW double counting   =     28107.54558683   -27166.77954458
  entropy T*S    EENTRO =        -0.12624894
  eigenvalues    EBANDS =      -839.04498785
  atomic energy  EATOM  =     27259.89416086
  Solvation  Ediel_sol  =         0.00000000
  ---------------------------------------------------
  free energy    TOTEN  =      -244.70441791 eV

  energy without entropy =     -244.57816897  energy(sigma->0) =     -244.66233493


--------------------------------------------------------------------------------------------------------




--------------------------------------- Iteration      1(   9)  ---------------------------------------


    POTLOK:  cpu time    0.1811: real time    0.1825
    SETDIJ:  cpu time    0.0123: real time    0.0124
    EDDIAG:  cpu time    1.9563: real time    1.9697
  RMM-DIIS:  cpu time    7.1248: real time    7.1776
    ORTHCH:  cpu time    0.2738: real time    0.2755
       DOS:  cpu time    0.0012: real time    0.0012
    CHARGE:  cpu time    0.7334: real time    0.7383
    MIXING:  cpu time    0.0055: real time    0.0056
    --------------------------------------------
      LOOP:  cpu time   10.2884: real time   10.3628

 eigenvalue-minimisations  :  1830
 total energy-change (2. order) : 0.1304387E+02  (-0.4416755E+00)
 number of electron     376.0000069 magnetization 
 augmentation part      112.6802730 magnetization 

 Broyden mixing:
  rms(total) = 0.85327E+00    rms(broyden)= 0.85297E+00
  rms(prec ) = 0.12105E+01
  weight for this iteration     100.00

 eigenvalues of (default mixing * dielectric matrix)
  average eigenvalue GAMMA=   0.5314
  1.3135  0.3414  0.3414  0.1293

 Free energy of the ion-electron system (eV)
  ---------------------------------------------------
  alpha Z        PSCENC =       975.10247152
  Ewald energy   TEWEN  =     91627.66578349
  -Hartree energ DENC   =   -120345.67642249
  -exchange      EXHF   =         0.00000000
  -V(xc)+E(xc)   XCENC  =       178.62850419
  PAW double counting   =     28752.44287490   -27821.70934308
  entropy T*S    EENTRO =        -0.06179586
  eigenvalues    EBANDS =      -857.94677971
  atomic energy  EATOM  =     27259.89416086
  Solvation  Ediel_sol  =         0.00000000
  ---------------------------------------------------
  free energy    TOTEN  =      -231.66054616 eV

  energy without entropy =     -231.59875031  energy(sigma->0) =     -231.63994754


--------------------------------------------------------------------------------------------------------




--------------------------------------- Iteration      1(  10)  ---------------------------------------


    POTLOK:  cpu time    0.1788: real time    0.1802
    SETDIJ:  cpu time    0.0120: real time    0.0120
    EDDIAG:  cpu time    2.0544: real time    2.0689
  RMM-DIIS:  cpu time    7.3299: real time    7.3838
    ORTHCH:  cpu time    0.2796: real time    0.2815
       DOS:  cpu time    0.0012: real time    0.0012
    CHARGE:  cpu time    0.7778: real time    0.7833
    MIXING:  cpu time    0.0068: real time    0.0068
    --------------------------------------------
      LOOP:  cpu time   10.6404: real time   10.7177

 eigenvalue-minimisations  :  1830
 total energy-change (2. order) : 0.1041016E+01  (-0.1428590E+00)
 number of electron     376.0000070 magnetization 
 augmentation part      112.7612862 magnetization 

 Broyden mixing:
  rms(total) = 0.52800E+00    rms(broyden)= 0.52793E+00
  rms(prec ) = 0.69509E+00
  weight for this iteration     100.00

 eigenvalues of (default mixing * dielectric matrix)
  average eigenvalue GAMMA=   0.5574
  1.4193  0.5525  0.4315  0.2516  0.1322

 Free energy of the ion-electron system (eV)
  ---------------------------------------------------
  alpha Z        PSCENC =       975.10247152
  Ewald energy   TEWEN  =     91627.66578349
  -Hartree energ DENC   =   -120340.34607084
  -exchange      EXHF   =         0.00000000
  -V(xc)+E(xc)   XCENC  =       178.52332961
  PAW double counting   =     29076.13246160   -28149.81593771
  entropy T*S    EENTRO =        -0.00013283
  eigenvalues    EBANDS =      -857.77559582
  atomic energy  EATOM  =     27259.89416086
  Solvation  Ediel_sol  =         0.00000000
  ---------------------------------------------------
  free energy    TOTEN  =      -230.61953011 eV

  energy without entropy =     -230.61939728  energy(sigma->0) =     -230.61948584


--------------------------------------------------------------------------------------------------------




--------------------------------------- Iteration      1(  11)  ---------------------------------------


    POTLOK:  cpu time    0.1804: real time    0.1819
    SETDIJ:  cpu time    0.0109: real time    0.0109
    EDDIAG:  cpu time    2.0894: real time    2.1041
  RMM-DIIS:  cpu time    6.8888: real time    6.9410
    ORTHCH:  cpu time    0.2591: real time    0.2606
       DOS:  cpu time    0.0012: real time    0.0012
    CHARGE:  cpu time    0.6281: real time    0.6325
    MIXING:  cpu time    0.0079: real time    0.0080
    --------------------------------------------
      LOOP:  cpu time   10.0657: real time   10.1403

 eigenvalue-minimisations  :  1830
 total energy-change (2. order) : 0.3789577E+00  (-0.4030984E-01)
 number of electron     376.0000068 magnetization 
 augmentation part      112.8999609 magnetization 

 Broyden mixing:
  rms(total) = 0.30194E+00    rms(broyden)= 0.30167E+00
  rms(prec ) = 0.39089E+00
  weight for this iteration     100.00

 eigenvalues of (default mixing * dielectric matrix)
  average eigenvalue GAMMA=   0.5860
  1.5547  0.8453  0.3751  0.3751  0.1310  0.2345

 Free energy of the ion-electron system (eV)
  ---------------------------------------------------
  alpha Z        PSCENC =       975.10247152
  Ewald energy   TEWEN  =     91627.66578349
  -Hartree energ DENC   =   -120333.01664257
  -exchange      EXHF   =         0.00000000
  -V(xc)+E(xc)   XCENC  =       178.53851982
  PAW double counting   =     29388.13266016   -28465.78870269
  entropy T*S    EENTRO =        -0.03808131
  eigenvalues    EBANDS =      -860.73074176
  atomic energy  EATOM  =     27259.89416086
  Solvation  Ediel_sol  =         0.00000000
  ---------------------------------------------------
  free energy    TOTEN  =      -230.24057246 eV

  energy without entropy =     -230.20249115  energy(sigma->0) =     -230.22787869


--------------------------------------------------------------------------------------------------------




--------------------------------------- Iteration      1(  12)  ---------------------------------------


    POTLOK:  cpu time    0.1810: real time    0.1825
    SETDIJ:  cpu time    0.0111: real time    0.0112
    EDDIAG:  cpu time    2.0388: real time    2.0528
  RMM-DIIS:  cpu time    6.6385: real time    6.6869
    ORTHCH:  cpu time    0.2541: real time    0.2570
       DOS:  cpu time    0.0014: real time    0.0014
    CHARGE:  cpu time    0.6653: real time    0.6700
    MIXING:  cpu time    0.0045: real time    0.0047
    --------------------------------------------
      LOOP:  cpu time    9.7946: real time    9.8664

 eigenvalue-minimisations  :  1843
 total energy-change (2. order) : 0.1338376E+00  (-0.1758839E-01)
 number of electron     376.0000067 magnetization 
 augmentation part      112.9589009 magnetization 

 Broyden mixing:
  rms(total) = 0.19976E+00    rms(broyden)= 0.19972E+00
  rms(prec ) = 0.24840E+00
  weight for this iteration     100.00

 eigenvalues of (default mixing * dielectric matrix)
  average eigenvalue GAMMA=   0.6588
  1.8505  1.0576  0.5243  0.5243  0.1314  0.2711  0.2523

 Free energy of the ion-electron system (eV)
  ---------------------------------------------------
  alpha Z        PSCENC =       975.10247152
  Ewald energy   TEWEN  =     91627.66578349
  -Hartree energ DENC   =   -120323.18969103
  -exchange      EXHF   =         0.00000000
  -V(xc)+E(xc)   XCENC  =       178.50575242
  PAW double counting   =     29631.49149106   -28712.07939636
  entropy T*S    EENTRO =        -0.03033055
  eigenvalues    EBANDS =      -867.46697630
  atomic energy  EATOM  =     27259.89416086
  Solvation  Ediel_sol  =         0.00000000
  ---------------------------------------------------
  free energy    TOTEN  =      -230.10673488 eV

  energy without entropy =     -230.07640433  energy(sigma->0) =     -230.09662470


--------------------------------------------------------------------------------------------------------




--------------------------------------- Iteration      1(  13)  ---------------------------------------


    POTLOK:  cpu time    0.1364: real time    0.1372
    SETDIJ:  cpu time    0.0110: real time    0.0110
    EDDIAG:  cpu time    1.7547: real time    1.7674
  RMM-DIIS:  cpu time    7.1319: real time    7.1828
    ORTHCH:  cpu time    0.2777: real time    0.2795
       DOS:  cpu time    0.0012: real time    0.0012
    CHARGE:  cpu time    0.7351: real time    0.7401
    MIXING:  cpu time    0.0069: real time    0.0070
    --------------------------------------------
      LOOP:  cpu time   10.0549: real time   10.1263

 eigenvalue-minimisations  :  1831
 total energy-change (2. order) :-0.7549135E-02  (-0.1287384E-01)
 number of electron     376.0000067 magnetization 
 augmentation part      112.9529201 magnetization 

 Broyden mixing:
  rms(total) = 0.20137E+00    rms(broyden)= 0.20135E+00
  rms(prec ) = 0.25220E+00
  weight for this iteration     100.00

 eigenvalues of (default mixing * dielectric matrix)
  average eigenvalue GAMMA=   0.6826
  2.0768  1.1161  0.8790  0.4208  0.1314  0.3439  0.2627  0.2299

 Free energy of the ion-electron system (eV)
  ---------------------------------------------------
  alpha Z        PSCENC =       975.10247152
  Ewald energy   TEWEN  =     91627.66578349
  -Hartree energ DENC   =   -120323.14237372
  -exchange      EXHF   =         0.00000000
  -V(xc)+E(xc)   XCENC  =       178.41522754
  PAW double counting   =     29882.05750918   -28965.59622930
  entropy T*S    EENTRO =        -0.01580077
  eigenvalues    EBANDS =      -864.49503282
  atomic energy  EATOM  =     27259.89416086
  Solvation  Ediel_sol  =         0.00000000
  ---------------------------------------------------
  free energy    TOTEN  =      -230.11428401 eV

  energy without entropy =     -230.09848325  energy(sigma->0) =     -230.10901709


--------------------------------------------------------------------------------------------------------




--------------------------------------- Iteration      1(  14)  ---------------------------------------


    POTLOK:  cpu time    0.1827: real time    0.1840
    SETDIJ:  cpu time    0.0110: real time    0.0111
    EDDIAG:  cpu time    2.0997: real time    2.1145
  RMM-DIIS:  cpu time    7.1056: real time    7.1581
    ORTHCH:  cpu time    0.2765: real time    0.2782
       DOS:  cpu time    0.0012: real time    0.0012
    CHARGE:  cpu time    0.7729: real time    0.7787
    MIXING:  cpu time    0.0065: real time    0.0066
    --------------------------------------------
      LOOP:  cpu time   10.4561: real time   10.5322

 eigenvalue-minimisations  :  1832
 total energy-change (2. order) : 0.5687325E-01  (-0.7415443E-02)
 number of electron     376.0000068 magnetization 
 augmentation part      112.9343679 magnetization 

 Broyden mixing:
  rms(total) = 0.72287E-01    rms(broyden)= 0.72274E-01
  rms(prec ) = 0.87678E-01
  weight for this iteration     100.00

 eigenvalues of (default mixing * dielectric matrix)
  average eigenvalue GAMMA=   0.7395
  2.4615  1.2844  0.9235  0.6172  0.4427  0.1314  0.3176  0.2518  0.2250

 Free energy of the ion-electron system (eV)
  ---------------------------------------------------
  alpha Z        PSCENC =       975.10247152
  Ewald energy   TEWEN  =     91627.66578349
  -Hartree energ DENC   =   -120328.07452561
  -exchange      EXHF   =         0.00000000
  -V(xc)+E(xc)   XCENC  =       178.35442818
  PAW double counting   =     30040.00630070   -29125.36528095
  entropy T*S    EENTRO =        -0.01516403
  eigenvalues    EBANDS =      -857.62558493
  atomic energy  EATOM  =     27259.89416086
  Solvation  Ediel_sol  =         0.00000000
  ---------------------------------------------------
  free energy    TOTEN  =      -230.05741076 eV

  energy without entropy =     -230.04224673  energy(sigma->0) =     -230.05235608


--------------------------------------------------------------------------------------------------------




--------------------------------------- Iteration      1(  15)  ---------------------------------------


    POTLOK:  cpu time    0.1798: real time    0.1811
    SETDIJ:  cpu time    0.0117: real time    0.0118
    EDDIAG:  cpu time    2.0961: real time    2.1111
  RMM-DIIS:  cpu time    7.1962: real time    7.2476
    ORTHCH:  cpu time    0.2757: real time    0.2774
       DOS:  cpu time    0.0012: real time    0.0012
    CHARGE:  cpu time    0.7361: real time    0.7415
    MIXING:  cpu time    0.0091: real time    0.0091
    --------------------------------------------
      LOOP:  cpu time   10.5060: real time   10.5808

 eigenvalue-minimisations  :  1830
 total energy-change (2. order) : 0.1988413E-02  (-0.2991571E-02)
 number of electron     376.0000067 magnetization 
 augmentation part      112.9348798 magnetization 

 Broyden mixing:
  rms(total) = 0.60395E-01    rms(broyden)= 0.60374E-01
  rms(prec ) = 0.73092E-01
  weight for this iteration     100.00

 eigenvalues of (default mixing * dielectric matrix)
  average eigenvalue GAMMA=   0.7166
  2.5418  1.2959  0.8696  0.7550  0.1314  0.4237  0.3748  0.2972  0.2523  0.2245

 Free energy of the ion-electron system (eV)
  ---------------------------------------------------
  alpha Z        PSCENC =       975.10247152
  Ewald energy   TEWEN  =     91627.66578349
  -Hartree energ DENC   =   -120328.02086213
  -exchange      EXHF   =         0.00000000
  -V(xc)+E(xc)   XCENC  =       178.33335187
  PAW double counting   =     30144.22974612   -29230.71483081
  entropy T*S    EENTRO =        -0.01487165
  eigenvalues    EBANDS =      -856.53037162
  atomic energy  EATOM  =     27259.89416086
  Solvation  Ediel_sol  =         0.00000000
  ---------------------------------------------------
  free energy    TOTEN  =      -230.05542235 eV

  energy without entropy =     -230.04055069  energy(sigma->0) =     -230.05046513


--------------------------------------------------------------------------------------------------------




--------------------------------------- Iteration      1(  16)  ---------------------------------------


    POTLOK:  cpu time    0.1819: real time    0.1832
    SETDIJ:  cpu time    0.0121: real time    0.0121
    EDDIAG:  cpu time    2.0955: real time    2.1100
  RMM-DIIS:  cpu time    7.2524: real time    7.3037
    ORTHCH:  cpu time    0.2716: real time    0.2735
       DOS:  cpu time    0.0011: real time    0.0011
    CHARGE:  cpu time    0.7666: real time    0.7716
    MIXING:  cpu time    0.0080: real time    0.0080
    --------------------------------------------
      LOOP:  cpu time   10.5891: real time   10.6632

 eigenvalue-minimisations  :  1830
 total energy-change (2. order) : 0.5100406E-02  (-0.8105650E-03)
 number of electron     376.0000067 magnetization 
 augmentation part      112.9368381 magnetization 

 Broyden mixing:
  rms(total) = 0.29676E-01    rms(broyden)= 0.29670E-01
  rms(prec ) = 0.36310E-01
  weight for this iteration     100.00

 eigenvalues of (default mixing * dielectric matrix)
  average eigenvalue GAMMA=   0.6881
  2.5329  1.2844  0.8177  0.8177  0.4645  0.4645  0.1314  0.3097  0.2753  0.2483
  0.2232

 Free energy of the ion-electron system (eV)
  ---------------------------------------------------
  alpha Z        PSCENC =       975.10247152
  Ewald energy   TEWEN  =     91627.66578349
  -Hartree energ DENC   =   -120328.89443869
  -exchange      EXHF   =         0.00000000
  -V(xc)+E(xc)   XCENC  =       178.34165555
  PAW double counting   =     30162.16346857   -29248.81962128
  entropy T*S    EENTRO =        -0.01694825
  eigenvalues    EBANDS =      -855.48685372
  atomic energy  EATOM  =     27259.89416086
  Solvation  Ediel_sol  =         0.00000000
  ---------------------------------------------------
  free energy    TOTEN  =      -230.05032194 eV

  energy without entropy =     -230.03337369  energy(sigma->0) =     -230.04467252


--------------------------------------------------------------------------------------------------------




--------------------------------------- Iteration      1(  17)  ---------------------------------------


    POTLOK:  cpu time    0.1784: real time    0.1799
    SETDIJ:  cpu time    0.0121: real time    0.0122
    EDDIAG:  cpu time    2.0711: real time    2.0857
  RMM-DIIS:  cpu time    7.0488: real time    7.0984
    ORTHCH:  cpu time    0.2645: real time    0.2660
       DOS:  cpu time    0.0011: real time    0.0011
    CHARGE:  cpu time    0.7357: real time    0.7410
    MIXING:  cpu time    0.0087: real time    0.0088
    --------------------------------------------
      LOOP:  cpu time   10.3205: real time   10.3930

 eigenvalue-minimisations  :  1820
 total energy-change (2. order) : 0.1037016E-02  (-0.1928457E-03)
 number of electron     376.0000067 magnetization 
 augmentation part      112.9363719 magnetization 

 Broyden mixing:
  rms(total) = 0.14299E-01    rms(broyden)= 0.14296E-01
  rms(prec ) = 0.16977E-01
  weight for this iteration     100.00

 eigenvalues of (default mixing * dielectric matrix)
  average eigenvalue GAMMA=   0.7339
  2.4799  1.2656  1.2656  1.0523  0.7772  0.1314  0.4082  0.4082  0.3103  0.2533
  0.2213  0.2340

 Free energy of the ion-electron system (eV)
  ---------------------------------------------------
  alpha Z        PSCENC =       975.10247152
  Ewald energy   TEWEN  =     91627.66578349
  -Hartree energ DENC   =   -120329.41093606
  -exchange      EXHF   =         0.00000000
  -V(xc)+E(xc)   XCENC  =       178.34656339
  PAW double counting   =     30160.54857495   -29247.16046636
  entropy T*S    EENTRO =        -0.01667833
  eigenvalues    EBANDS =      -855.01875840
  atomic energy  EATOM  =     27259.89416086
  Solvation  Ediel_sol  =         0.00000000
  ---------------------------------------------------
  free energy    TOTEN  =      -230.04928493 eV

  energy without entropy =     -230.03260660  energy(sigma->0) =     -230.04372548


--------------------------------------------------------------------------------------------------------




--------------------------------------- Iteration      1(  18)  ---------------------------------------


    POTLOK:  cpu time    0.1704: real time    0.1717
    SETDIJ:  cpu time    0.0131: real time    0.0132
    EDDIAG:  cpu time    2.0334: real time    2.0474
  RMM-DIIS:  cpu time    6.8114: real time    6.8587
    ORTHCH:  cpu time    0.2739: real time    0.2755
       DOS:  cpu time    0.0012: real time    0.0012
    CHARGE:  cpu time    0.7517: real time    0.7566
    MIXING:  cpu time    0.0088: real time    0.0088
    --------------------------------------------
      LOOP:  cpu time   10.0639: real time   10.1331

 eigenvalue-minimisations  :  1723
 total energy-change (2. order) :-0.2456898E-03  (-0.7106376E-04)
 number of electron     376.0000067 magnetization 
 augmentation part      112.9326438 magnetization 

 Broyden mixing:
  rms(total) = 0.11969E-01    rms(broyden)= 0.11966E-01
  rms(prec ) = 0.14550E-01
  weight for this iteration     100.00

 eigenvalues of (default mixing * dielectric matrix)
  average eigenvalue GAMMA=   0.7439
  2.4848  1.6478  1.3804  0.9885  0.8007  0.4335  0.4335  0.1314  0.3575  0.3098
  0.2508  0.2210  0.2315

 Free energy of the ion-electron system (eV)
  ---------------------------------------------------
  alpha Z        PSCENC =       975.10247152
  Ewald energy   TEWEN  =     91627.66578349
  -Hartree energ DENC   =   -120330.64273033
  -exchange      EXHF   =         0.00000000
  -V(xc)+E(xc)   XCENC  =       178.35451027
  PAW double counting   =     30153.58001756   -29240.04463782
  entropy T*S    EENTRO =        -0.01631058
  eigenvalues    EBANDS =      -853.94279559
  atomic energy  EATOM  =     27259.89416086
  Solvation  Ediel_sol  =         0.00000000
  ---------------------------------------------------
  free energy    TOTEN  =      -230.04953062 eV

  energy without entropy =     -230.03322004  energy(sigma->0) =     -230.04409376


--------------------------------------------------------------------------------------------------------




--------------------------------------- Iteration      1(  19)  ---------------------------------------


    POTLOK:  cpu time    0.1686: real time    0.1698
    SETDIJ:  cpu time    0.0114: real time    0.0115
    EDDIAG:  cpu time    2.0511: real time    2.0670
  RMM-DIIS:  cpu time    5.1312: real time    5.1831
    ORTHCH:  cpu time    0.2699: real time    0.2726
       DOS:  cpu time    0.0013: real time    0.0013
    --------------------------------------------
      LOOP:  cpu time    7.6335: real time    7.7052

 eigenvalue-minimisations  :  1260
 total energy-change (2. order) :-0.4832740E-04  (-0.3439097E-04)
 number of electron     376.0000067 magnetization 
 augmentation part      112.9326438 magnetization 

 Free energy of the ion-electron system (eV)
  ---------------------------------------------------
  alpha Z        PSCENC =       975.10247152
  Ewald energy   TEWEN  =     91627.66578349
  -Hartree energ DENC   =   -120331.56152269
  -exchange      EXHF   =         0.00000000
  -V(xc)+E(xc)   XCENC  =       178.36118646
  PAW double counting   =     30152.92389957   -29239.34440376
  entropy T*S    EENTRO =        -0.01689224
  eigenvalues    EBANDS =      -853.07426217
  atomic energy  EATOM  =     27259.89416086
  Solvation  Ediel_sol  =         0.00000000
  ---------------------------------------------------
  free energy    TOTEN  =      -230.04957894 eV

  energy without entropy =     -230.03268671  energy(sigma->0) =     -230.04394820


--------------------------------------------------------------------------------------------------------




 average (electrostatic) potential at core
  the test charge radii are     0.6991  0.7215  1.2059
  (the norm of the test charge is              1.0000)
       1 -56.2189       2 -74.6330       3 -76.3309       4 -72.3356       5 -72.3294
       6 -72.3109       7 -72.3065       8 -72.3361       9 -72.3192      10 -72.3022
      11 -72.3356      12 -72.2932      13 -72.8957      14 -72.9526      15 -72.9926
      16 -73.0765      17 -72.9959      18 -72.9353      19 -73.0082      20 -73.0770
      21 -73.0001      22 -72.9215      23 -73.0562      24 -72.8741      25 -73.0077
      26 -72.9893      27 -73.0632      28 -73.0502      29 -72.9865      30 -72.8624
      31 -72.4362      32 -72.4665      33 -72.3800      34 -72.5170      35 -72.4948
      36 -73.1176      37 -72.3840      38 -73.1922      39 -72.3573
 
 
 
 E-fermi :   1.1013     XC(G=0):  -6.6206     alpha+bet : -6.8913


 k-point     1 :       0.0000    0.0000    0.0000
  band No.  band energies     occupation 
      1     -22.1614      2.00000
      2     -16.8075      2.00000
      3      -8.3228      2.00000
      4      -8.0888      2.00000
      5      -6.8125      2.00000
      6      -5.9350      2.00000
      7      -5.8103      2.00000
      8      -5.7668      2.00000
      9      -5.7526      2.00000
     10      -5.7280      2.00000
     11      -5.6651      2.00000
     12      -5.6378      2.00000
     13      -5.5956      2.00000
     14      -5.5661      2.00000
     15      -5.3974      2.00000
     16      -5.1763      2.00000
     17      -5.1164      2.00000
     18      -5.1046      2.00000
     19      -5.0818      2.00000
     20      -5.0576      2.00000
     21      -5.0503      2.00000
     22      -5.0241      2.00000
     23      -4.6811      2.00000
     24      -4.6275      2.00000
     25      -4.6011      2.00000
     26      -4.5852      2.00000
     27      -4.5464      2.00000
     28      -4.5144      2.00000
     29      -4.4315      2.00000
     30      -4.4083      2.00000
     31      -4.3919      2.00000
     32      -4.3776      2.00000
     33      -4.3471      2.00000
     34      -4.2637      2.00000
     35      -4.1821      2.00000
     36      -4.1548      2.00000
     37      -4.1433      2.00000
     38      -4.1371      2.00000
     39      -4.1056      2.00000
     40      -4.0881      2.00000
     41      -4.0827      2.00000
     42      -4.0474      2.00000
     43      -4.0331      2.00000
     44      -4.0263      2.00000
     45      -4.0149      2.00000
     46      -3.9867      2.00000
     47      -3.6019      2.00000
     48      -3.5357      2.00000
     49      -3.5127      2.00000
     50      -3.4431      2.00000
     51      -3.4320      2.00000
     52      -3.4199      2.00000
     53      -3.4089      2.00000
     54      -3.3720      2.00000
     55      -3.3474      2.00000
     56      -3.3193      2.00000
     57      -3.2671      2.00000
     58      -3.2274      2.00000
     59      -3.1742      2.00000
     60      -3.1456      2.00000
     61      -3.0137      2.00000
     62      -2.9047      2.00000
     63      -2.8523      2.00000
     64      -2.6140      2.00000
     65      -2.5930      2.00000
     66      -2.5762      2.00000
     67      -2.5417      2.00000
     68      -2.4987      2.00000
     69      -2.4930      2.00000
     70      -2.4859      2.00000
     71      -2.4700      2.00000
     72      -2.4476      2.00000
     73      -2.4302      2.00000
     74      -2.4094      2.00000
     75      -2.4002      2.00000
     76      -2.3886      2.00000
     77      -2.3737      2.00000
     78      -2.3546      2.00000
     79      -2.3502      2.00000
     80      -2.3425      2.00000
     81      -2.3229      2.00000
     82      -2.3162      2.00000
     83      -2.2859      2.00000
     84      -2.2770      2.00000
     85      -2.2073      2.00000
     86      -2.1551      2.00000
     87      -2.1287      2.00000
     88      -2.1163      2.00000
     89      -2.0971      2.00000
     90      -2.0641      2.00000
     91      -2.0582      2.00000
     92      -2.0516      2.00000
     93      -2.0272      2.00000
     94      -2.0051      2.00000
     95      -1.9553      2.00000
     96      -1.9215      2.00000
     97      -1.8816      2.00000
     98      -1.8329      2.00000
     99      -1.8155      2.00000
    100      -1.7467      2.00000
    101      -1.7286      2.00000
    102      -1.6427      2.00000
    103      -1.6264      2.00000
    104      -1.6192      2.00000
    105      -1.6129      2.00000
    106      -1.5797      2.00000
    107      -1.5415      2.00000
    108      -1.5384      2.00000
    109      -1.5244      2.00000
    110      -1.4958      2.00000
    111      -1.4902      2.00000
    112      -1.4863      2.00000
    113      -1.4594      2.00000
    114      -1.3122      2.00000
    115      -1.2733      2.00000
    116      -1.1855      2.00000
    117      -1.0883      2.00000
    118      -1.0461      2.00000
    119      -1.0196      2.00000
    120      -0.9858      2.00000
    121      -0.9540      2.00000
    122      -0.9482      2.00000
    123      -0.9374      2.00000
    124      -0.9186      2.00000
    125      -0.8536      2.00000
    126      -0.7831      2.00000
    127      -0.7768      2.00000
    128      -0.7117      2.00000
    129      -0.6956      2.00000
    130      -0.6823      2.00000
    131      -0.6711      2.00000
    132      -0.6478      2.00000
    133      -0.5924      2.00000
    134      -0.5618      2.00000
    135      -0.5198      2.00000
    136      -0.4613      2.00000
    137      -0.4218      2.00000
    138      -0.3786      2.00000
    139      -0.3714      2.00000
    140      -0.3695      2.00000
    141      -0.2689      2.00000
    142      -0.2295      2.00000
    143      -0.2253      2.00000
    144      -0.1945      2.00000
    145      -0.1772      2.00000
    146      -0.1461      2.00000
    147      -0.0960      2.00000
    148      -0.0518      2.00000
    149       0.0111      2.00000
    150       0.0377      2.00000
    151       0.0709      2.00000
    152       0.1128      2.00000
    153       0.1311      2.00000
    154       0.1424      2.00000
    155       0.1504      2.00000
    156       0.1846      2.00000
    157       0.2327      2.00000
    158       0.2570      2.00000
    159       0.2915      2.00000
    160       0.2963      2.00000
    161       0.3108      2.00000
    162       0.3127      2.00000
    163       0.3318      2.00000
    164       0.3410      2.00000
    165       0.3576      2.00000
    166       0.3627      2.00000
    167       0.3836      2.00000
    168       0.4077      2.00001
    169       0.4337      2.00002
    170       0.4817      2.00011
    171       0.5157      2.00028
    172       0.5341      2.00045
    173       0.5877      2.00170
    174       0.6200      2.00349
    175       0.6313      2.00441
    176       0.6380      2.00506
    177       0.6497      2.00638
    178       0.6819      2.01155
    179       0.7030      2.01645
    180       0.7144      2.01964
    181       0.7462      2.03080
    182       0.7787      2.04497
    183       0.7983      2.05396
    184       0.8121      2.05998
    185       0.8223      2.06393
    186       0.8253      2.06496
    187       0.8277      2.06578
    188       0.8472      2.07032
    189       0.8585      2.07088
    190       0.8665      2.07006
    191       0.8731      2.06849
    192       0.8773      2.06701
    193       0.8922      2.05843
    194       0.9072      2.04348
    195       0.9775      1.85662
    196       1.0813      1.16765
    197       1.1053      0.96578
    198       1.1984      0.27599
    199       1.2161      0.18398
    200       1.2370      0.09569
    201       1.2427      0.07514
    202       1.2592      0.02539
    203       1.2711     -0.00325
    204       1.4125     -0.05020
    205       1.4777     -0.02294
    206       1.9420     -0.00000
    207       2.0213     -0.00000
    208       2.0689     -0.00000
    209       2.0930     -0.00000
    210       2.2051     -0.00000
    211       2.4793     -0.00000
    212       3.5061     -0.00000
    213       4.0244     -0.00000
    214       4.3929     -0.00000
    215       4.4028     -0.00000
    216       4.4588     -0.00000
    217       4.5984     -0.00000
    218       4.8445     -0.00000
    219       5.3543     -0.00000
    220       5.6480     -0.00000
    221       5.8664     -0.00000
    222       5.8716     -0.00000
    223       5.8970     -0.00000
    224       5.9185     -0.00000
    225       5.9535     -0.00000
    226       6.0437     -0.00000
    227       6.5592     -0.00000
    228       6.8253      0.00000

 k-point     2 :       0.5000    0.0000    0.0000
  band No.  band energies     occupation 
      1     -22.1613      2.00000
      2     -16.8071      2.00000
      3      -8.2324      2.00000
      4      -7.3260      2.00000
      5      -7.2751      2.00000
      6      -6.1060      2.00000
      7      -5.9868      2.00000
      8      -5.9071      2.00000
      9      -5.8699      2.00000
     10      -5.6267      2.00000
     11      -5.4790      2.00000
     12      -5.4299      2.00000
     13      -5.3019      2.00000
     14      -5.2074      2.00000
     15      -5.0100      2.00000
     16      -4.9844      2.00000
     17      -4.9523      2.00000
     18      -4.8988      2.00000
     19      -4.8850      2.00000
     20      -4.8629      2.00000
     21      -4.8450      2.00000
     22      -4.8359      2.00000
     23      -4.8217      2.00000
     24      -4.7961      2.00000
     25      -4.7612      2.00000
     26      -4.7536      2.00000
     27      -4.7394      2.00000
     28      -4.6814      2.00000
     29      -4.6201      2.00000
     30      -4.5555      2.00000
     31      -4.4234      2.00000
     32      -4.4113      2.00000
     33      -4.3525      2.00000
     34      -4.3121      2.00000
     35      -4.2956      2.00000
     36      -4.1010      2.00000
     37      -4.0725      2.00000
     38      -4.0419      2.00000
     39      -4.0219      2.00000
     40      -4.0078      2.00000
     41      -3.9689      2.00000
     42      -3.9267      2.00000
     43      -3.8935      2.00000
     44      -3.7933      2.00000
     45      -3.7419      2.00000
     46      -3.6933      2.00000
     47      -3.6771      2.00000
     48      -3.6312      2.00000
     49      -3.6188      2.00000
     50      -3.5773      2.00000
     51      -3.4739      2.00000
     52      -3.4263      2.00000
     53      -3.4110      2.00000
     54      -3.3659      2.00000
     55      -3.3591      2.00000
     56      -3.3498      2.00000
     57      -3.2662      2.00000
     58      -3.2356      2.00000
     59      -3.2026      2.00000
     60      -3.1559      2.00000
     61      -3.0988      2.00000
     62      -3.0715      2.00000
     63      -3.0604      2.00000
     64      -3.0367      2.00000
     65      -2.9906      2.00000
     66      -2.9406      2.00000
     67      -2.9047      2.00000
     68      -2.8671      2.00000
     69      -2.8496      2.00000
     70      -2.7890      2.00000
[...]
     90      -2.1773      2.00000
     91      -2.1597      2.00000
     92      -2.1236      2.00000
     93      -2.1050      2.00000
     94      -2.0311      2.00000
     95      -1.9971      2.00000
     96      -1.9746      2.00000
     97      -1.9460      2.00000
     98      -1.9270      2.00000
     99      -1.9075      2.00000
    100      -1.8542      2.00000
    101      -1.7948      2.00000
    102      -1.7877      2.00000
    103      -1.7708      2.00000
    104      -1.7583      2.00000
    105      -1.7175      2.00000
    106      -1.6924      2.00000
    107      -1.6823      2.00000
    108      -1.6404      2.00000
    109      -1.6271      2.00000
    110      -1.5880      2.00000
    111      -1.5483      2.00000
    112      -1.4831      2.00000
    113      -1.4699      2.00000
    114      -1.3971      2.00000
    115      -1.3319      2.00000
    116      -1.3209      2.00000
    117      -1.2475      2.00000
    118      -1.2034      2.00000
    119      -1.1642      2.00000
    120      -1.1186      2.00000
    121      -1.0979      2.00000
    122      -1.0743      2.00000
    123      -1.0584      2.00000
    124      -1.0267      2.00000
    125      -1.0223      2.00000
    126      -0.9898      2.00000
    127      -0.9741      2.00000
    128      -0.9603      2.00000
    129      -0.9373      2.00000
    130      -0.9335      2.00000
    131      -0.8800      2.00000
    132      -0.8338      2.00000
    133      -0.7917      2.00000
    134      -0.7657      2.00000
    135      -0.7427      2.00000
    136      -0.7249      2.00000
    137      -0.7080      2.00000
    138      -0.6729      2.00000
    139      -0.6244      2.00000
    140      -0.5911      2.00000
    141      -0.5086      2.00000
    142      -0.4864      2.00000
    143      -0.4231      2.00000
    144      -0.3317      2.00000
    145      -0.2755      2.00000
    146      -0.2170      2.00000
    147      -0.2099      2.00000
    148      -0.1620      2.00000
    149      -0.1483      2.00000
    150      -0.0883      2.00000
    151      -0.0643      2.00000
    152       0.0103      2.00000
    153       0.0237      2.00000
    154       0.0510      2.00000
    155       0.0688      2.00000
    156       0.0835      2.00000
    157       0.0924      2.00000
    158       0.1348      2.00000
    159       0.1826      2.00000
    160       0.1863      2.00000
    161       0.2343      2.00000
    162       0.2681      2.00000
    163       0.2931      2.00000
    164       0.3226      2.00000
    165       0.3349      2.00000
    166       0.3811      2.00001
    167       0.4869      2.00026
    168       0.5571      2.00153
    169       0.5694      2.00203
    170       0.6070      2.00456
    171       0.6379      2.00834
    172       0.6604      2.01247
    173       0.6990      2.02301
    174       0.7635      2.04992
    175       0.7717      2.05369
    176       0.7930      2.06269
    177       0.8320      2.07089
    178       0.8523      2.06665
    179       0.8950      2.02328
    180       0.9114      1.98972
    181       0.9245      1.95471
    182       0.9860      1.67903
    183       1.0258      1.40518
    184       1.0698      1.04657
    185       1.0831      0.93437
    186       1.0864      0.90632
    187       1.1097      0.71418
    188       1.1171      0.65509
    189       1.1449      0.44898
    190       1.1560      0.37510
    191       1.2803     -0.05504
    192       1.3153     -0.07072
    193       1.3406     -0.06815
    194       1.3701     -0.05759
    195       1.4009     -0.04357
    196       1.4854     -0.01355
    197       1.5822     -0.00198
    198       1.7007     -0.00009
    199       1.7986     -0.00000
    200       1.9749     -0.00000
    201       2.2185     -0.00000
    202       2.3113     -0.00000
    203       2.7871     -0.00000
    204       2.9205     -0.00000
    205       2.9314     -0.00000
    206       2.9665     -0.00000
    207       2.9861     -0.00000
    208       3.2178     -0.00000
    209       3.3852     -0.00000
    210       3.4897     -0.00000
    211       3.5363     -0.00000
    212       3.5821     -0.00000
    213       3.7096     -0.00000
    214       3.7949     -0.00000
    215       3.9796     -0.00000
    216       4.1435     -0.00000
    217       4.2197     -0.00000
    218       4.3897     -0.00000
    219       4.4334     -0.00000
    220       4.6028     -0.00000
    221       4.6533     -0.00000
    222       4.8207     -0.00000
    223       5.1712     -0.00000
    224       5.5076     -0.00000
    225       5.9573     -0.00000
    226       6.4985     -0.00000
    227       6.5570      0.00000
    228       6.6089      0.00000


--------------------------------------------------------------------------------------------------------


 soft charge-density along one line, spin component           1
         0         1         2         3         4         5         6         7         8         9
 total charge-density along one line
 
 pseudopotential strength for first ion, spin component:           1
 10.088   0.015   0.004   0.009   0.000  -0.004  -0.008   0.000
  0.015  -0.002  -0.000  -0.000  -0.000  -0.000  -0.000   0.000
  0.004  -0.000  -4.241  -0.006   0.001  -0.010  -0.002   0.000
  0.009  -0.000  -0.006  -4.255   0.003  -0.002  -0.015   0.000
  0.000  -0.000   0.001   0.003  -4.239   0.000   0.000  -0.009
 -0.004  -0.000  -0.010  -0.002   0.000  -0.770  -0.000   0.000
 -0.008  -0.000  -0.002  -0.015   0.000  -0.000  -0.770   0.000
  0.000   0.000   0.000   0.000  -0.009   0.000   0.000  -0.770
 total augmentation occupancy for first ion, spin component:           1
  1.630  -0.845   0.016  -0.004  -0.058   0.037   0.079  -0.024
 -0.845   1.171  -0.223  -0.516   0.089  -0.088  -0.217   0.031
  0.016  -0.223   0.848   0.193  -0.001   0.114   0.055  -0.006
 -0.004  -0.516   0.193   1.303  -0.006   0.055   0.241  -0.009
 -0.058   0.089  -0.001  -0.006   0.789  -0.006  -0.010   0.097
  0.037  -0.088   0.114   0.055  -0.006   0.020   0.022  -0.003
  0.079  -0.217   0.055   0.241  -0.010   0.022   0.068  -0.006
 -0.024   0.031  -0.006  -0.009   0.097  -0.003  -0.006   0.013


------------------------ aborting loop because EDIFF is reached ----------------------------------------


    CHARGE:  cpu time    0.6881: real time    0.6928
    FORLOC:  cpu time    0.0564: real time    0.0567
    FORNL :  cpu time    3.4111: real time    3.4359
    STRESS:  cpu time   10.5586: real time   10.6335
    FORCOR:  cpu time    0.2080: real time    0.2095
    FORHAR:  cpu time    0.0938: real time    0.0944
    MIXING:  cpu time    0.0062: real time    0.0062
    OFIELD:  cpu time    0.0000: real time    0.0000

  FORCE on cell =-STRESS in cart. coord.  units (eV):
  Direction    XX          YY          ZZ          XY          YZ          ZX
  --------------------------------------------------------------------------------------
  Alpha Z   975.10247   975.10247   975.10247
  Ewald  111245.72041111242.44172************  -213.36478   246.96911   -90.22515
  Hartree117999.36808117970.52155************  -143.55898   103.82959   -52.04953
  E(xc)   -1666.13438 -1665.89791 -1673.37558    -0.44126     0.74739    -0.24551
  Local  ************************239869.99932   347.72780  -326.62898   135.30567
  n-local   124.80888   124.49198    93.73259    -1.32843     0.55373     0.02916
  augment  1895.94042  1893.79165  1930.92082     2.40826    -4.21448     1.15003
  Kinetic  5525.45987  5515.77465  5596.93458     9.31785   -22.30491     7.39387
  Fock        0.00000     0.00000     0.00000     0.00000     0.00000     0.00000
  -------------------------------------------------------------------------------------
  Total     -35.73211   -37.59628    -2.68199     0.76045    -1.04856     1.35855
  in kB     -42.55753   -44.77779    -3.19430     0.90571    -1.24885     1.61805
  external pressure =      -30.18 kB  Pullay stress =        0.00 kB


 VOLUME and BASIS-vectors are now :
 -----------------------------------------------------------------------------
  energy-cutoff  :      450.00
  volume of cell :     1345.22
      direct lattice vectors                 reciprocal lattice vectors
     7.296955120 -4.212899000  0.000000000     0.137043463  0.000000000  0.000000000
     0.000000000  8.425798000  0.000000000     0.068521732  0.118683121  0.000000000
     0.000000000  0.000000000 21.879635000     0.000000000  0.000000000  0.045704602

  length of vectors
     8.425798004  8.425798000 21.879635000     0.137043463  0.137043463  0.045704602


 FORCES acting on ions
    electron-ion (+dipol)            ewald-force                    non-local-force                 convergence-correction
 -----------------------------------------------------------------------------------------------
   0.172E+02 0.226E+02 -.884E+03   -.178E+02 -.271E+02 0.873E+03   0.727E+00 0.372E+01 0.108E+02   -.137E-01 0.678E-02 0.107E-01
   -.830E+02 0.490E+02 -.159E+04   0.846E+02 -.452E+02 0.161E+04   -.116E+01 -.347E+01 -.234E+02   -.568E-06 -.849E-02 0.359E-02
   0.608E+02 -.111E+03 -.154E+04   -.685E+02 0.133E+03 0.159E+04   0.789E+01 -.223E+02 -.564E+02   -.129E-01 0.191E-02 0.133E-01
   0.516E+00 -.831E-02 0.234E+04   -.469E+00 -.531E-01 -.234E+04   0.166E-01 -.359E-01 -.121E+01   -.461E-01 0.413E-01 -.245E-01
   0.828E-01 0.535E+00 0.234E+04   -.148E+00 -.516E+00 -.234E+04   -.734E-02 -.374E-01 -.112E+01   0.254E-01 -.359E-01 -.356E-01
   -.170E+00 0.333E+00 0.234E+04   0.105E+00 -.316E+00 -.234E+04   0.235E-01 -.125E-01 -.115E+01   0.118E-01 -.207E-01 -.814E-02
   0.333E+00 0.424E+00 0.234E+04   -.339E+00 -.406E+00 -.234E+04   0.714E-02 0.267E-01 -.117E+01   0.158E-01 0.235E-01 -.107E-01
   0.397E+00 0.275E-01 0.234E+04   -.416E+00 -.113E+00 -.234E+04   0.618E-02 0.232E-01 -.127E+01   0.539E-02 0.857E-01 -.229E-01
   -.150E+00 0.588E+00 0.234E+04   0.111E+00 -.602E+00 -.234E+04   0.195E-01 0.989E-02 -.123E+01   0.462E-01 0.737E-02 -.199E-01
   -.240E+00 -.692E+00 0.234E+04   0.294E+00 0.624E+00 -.234E+04   -.557E-01 0.949E-01 -.112E+01   -.505E-03 -.497E-01 0.879E-03
   -.404E+00 -.852E+00 0.234E+04   0.452E+00 0.919E+00 -.234E+04   -.654E-02 -.365E-01 -.122E+01   -.405E-01 0.134E-01 0.337E-02
   -.372E+00 -.382E+00 0.234E+04   0.411E+00 0.460E+00 -.234E+04   -.551E-02 0.603E-02 -.104E+01   -.176E-01 -.648E-01 -.127E-01
   -.244E+01 -.332E+01 0.857E+03   0.235E+01 0.337E+01 -.856E+03   0.824E-01 0.530E-01 -.429E+00   0.124E-01 -.827E-01 0.208E-01
   -.527E+01 -.418E+01 0.859E+03   0.517E+01 0.426E+01 -.859E+03   0.223E+00 0.538E-01 -.233E+00   -.147E-01 -.234E-01 0.119E-01
   -.555E+00 -.605E+01 0.859E+03   0.728E+00 0.596E+01 -.859E+03   -.246E-01 0.135E+00 -.349E+00   -.626E-01 -.628E-02 0.203E-01
   0.322E+01 0.235E+01 0.864E+03   -.326E+01 -.249E+01 -.863E+03   -.226E-01 0.684E-01 -.447E+00   -.993E-02 0.310E-01 0.159E-01
   -.172E+01 0.559E+01 0.862E+03   0.161E+01 -.557E+01 -.862E+03   0.119E+00 -.523E-01 -.380E+00   0.461E-01 -.420E-01 0.188E-01
   0.415E+01 0.283E+01 0.858E+03   -.413E+01 -.289E+01 -.858E+03   -.530E-01 0.217E-01 -.265E+00   -.308E-01 0.202E-01 -.743E-02
   0.163E+01 0.652E+00 0.865E+03   -.164E+01 -.535E+00 -.865E+03   -.658E-01 -.142E+00 -.488E+00   0.174E-01 0.515E-01 -.276E-01
   0.522E+00 -.427E+00 0.869E+03   -.515E+00 0.433E+00 -.868E+03   -.253E-01 -.677E-01 -.624E+00   0.202E-01 0.655E-01 -.305E-02
   -.967E-01 0.357E+01 0.865E+03   0.154E+00 -.343E+01 -.865E+03   -.252E-01 -.127E+00 -.488E+00   0.215E-01 -.141E-01 -.178E-01
   0.194E+01 0.339E+01 -.645E+03   -.208E+01 -.352E+01 0.645E+03   0.125E+00 0.659E-01 0.600E+00   -.193E-01 0.196E-01 0.390E-01
   0.246E+00 -.326E+01 -.626E+03   -.251E+00 0.331E+01 0.626E+03   0.728E-02 -.108E+00 0.488E+00   0.153E-01 0.474E-01 -.345E-01
   -.479E+00 -.124E+01 -.672E+03   0.382E+00 0.157E+01 0.672E+03   0.850E-02 -.254E+00 0.893E-02   -.270E-01 -.756E-02 -.232E-01
   -.171E+01 0.617E+01 -.647E+03   0.131E+01 -.543E+01 0.647E+03   0.329E+00 -.628E+00 -.253E+00   0.768E-02 -.198E-01 0.858E-01
   0.870E+01 0.327E+01 -.642E+03   -.795E+01 -.333E+01 0.642E+03   -.793E+00 0.526E-01 -.874E-01   -.759E-02 -.210E-01 0.257E-02
   -.806E+01 -.827E+01 -.627E+03   0.793E+01 0.815E+01 0.626E+03   0.153E+00 0.878E-01 0.520E+00   0.273E-01 -.182E-02 -.514E-03
   -.485E+01 -.581E+01 -.622E+03   0.486E+01 0.581E+01 0.622E+03   0.927E-01 0.695E-01 0.668E+00   -.123E-02 0.141E-01 0.304E-01
   0.304E+01 0.103E+01 -.628E+03   -.309E+01 -.109E+01 0.628E+03   0.754E-01 0.116E+00 0.552E+00   0.157E-01 -.283E-01 0.914E-01
   0.903E+00 0.561E+01 -.647E+03   -.913E+00 -.588E+01 0.646E+03   -.360E-01 0.191E+00 0.467E-01   -.585E-02 -.629E-02 -.894E-02
   -.203E+02 -.126E+02 -.214E+04   0.206E+02 0.128E+02 0.214E+04   -.404E+00 -.261E-01 0.150E+01   0.113E-01 -.424E-01 0.196E-01
   0.230E+02 0.226E+02 -.214E+04   -.233E+02 -.231E+02 0.214E+04   0.177E+00 0.793E+00 0.147E+01   0.977E-02 -.173E-01 0.151E-01
   0.318E+02 -.375E+01 -.214E+04   -.321E+02 0.367E+01 0.214E+04   0.236E+00 0.165E+00 0.114E+01   -.128E-01 0.119E-01 0.544E-02
   -.849E+01 0.645E+01 -.215E+04   0.843E+01 -.668E+01 0.215E+04   -.280E-01 0.168E+00 0.129E+01   0.173E-01 0.334E-01 0.601E-02
   0.138E+02 0.906E+01 -.216E+04   -.138E+02 -.953E+01 0.216E+04   -.180E-01 0.620E+00 0.121E+01   -.225E-02 0.298E-01 0.181E-01
   0.724E+02 0.624E+02 -.199E+04   -.747E+02 -.604E+02 0.199E+04   0.209E+01 -.197E+01 -.377E+01   -.319E-01 0.210E-01 0.645E-01
   -.590E+02 -.496E+02 -.209E+04   0.601E+02 0.518E+02 0.209E+04   -.113E+01 -.235E+01 0.213E+01   0.854E-02 0.124E-01 0.115E-01
   -.675E+02 0.922E+02 -.206E+04   0.674E+02 -.924E+02 0.206E+04   -.344E-01 0.336E+00 -.147E+01   0.398E-01 -.444E-01 -.625E-02
   0.117E+02 -.635E+02 -.212E+04   -.116E+02 0.645E+02 0.212E+04   0.507E-01 -.986E+00 0.123E+01   -.319E-01 0.165E-02 0.214E-01
 -----------------------------------------------------------------------------------------------
   -.846E+01 0.259E+02 0.757E+02   -.462E-13 0.185E-12 -.682E-11   0.856E+01 -.258E+02 -.760E+02   -.142E-01 0.246E-02 0.267E+00
 
 
 POSITION                                       TOTAL-FORCE (eV/Angst)
 -----------------------------------------------------------------------------------
      5.09410      0.59396     10.41389         0.050113     -0.842860      0.048076
      6.67108     -0.57743     10.27107         0.390250      0.294921      0.092201
      4.94947      1.02284     11.48886         0.163481     -0.042806     -0.230015
      7.20031     -1.38846      1.62732         0.015479     -0.059816      0.148786
      2.33567      1.42014      1.62732        -0.049393     -0.057894      0.147565
      4.76799      0.01584      1.62732        -0.031383     -0.019727      0.155984
      7.20031      1.42015      1.62732         0.013966      0.064197      0.137804
      2.33567      4.22875      1.62732        -0.009449      0.020102      0.142106
      4.76799      2.82445      1.62732         0.024915      0.000314      0.157219
      2.33567      7.03734      1.62732        -0.004528     -0.026134      0.040948
      4.76799      5.63304      1.62732        -0.000416      0.040168      0.128408
      7.20031      4.22874      1.62732         0.013758      0.016336      0.014188
      1.52490      0.01584      3.92052         0.001899      0.017201     -0.185746
      3.95722     -1.38846      3.92052         0.102957      0.103713     -0.079664
      6.38953     -2.79276      3.92052         0.083484      0.040214     -0.148503
      1.52490      2.82445      3.92052        -0.070431     -0.041606     -0.182872
      3.95722      1.42015      3.92052         0.056428     -0.081938     -0.071583
      6.38953      0.01585      3.92052        -0.067071     -0.018112      0.090333
      1.52490      5.63305      3.92052        -0.056505      0.022822     -0.294393
      3.95722      4.22874      3.92052        -0.001179      0.000059     -0.321194
      6.38953      2.82445      3.92052         0.051500      0.001633     -0.338482
      0.70760      4.21366      6.18781        -0.039732     -0.043950      0.183004
      3.15289      5.62604      6.15712         0.014766     -0.016166      0.044799
      5.59438     -1.38201      6.23967        -0.117525      0.066195     -0.044690
      0.70143      1.44340      6.19931        -0.070926      0.085666      0.180523
      3.17788      0.00399      6.20248        -0.049409     -0.031699     -0.000559
      0.71248      7.02794      6.16406         0.048919     -0.036453      0.075097
      5.57076      4.21575      6.15257         0.103068      0.075469      0.147349
      3.14618      2.80192      6.16449         0.036077      0.023000      0.184050
      5.59110      1.41207      6.21580        -0.054158     -0.090584     -0.148122
      2.35368      4.19630      8.41780        -0.024184      0.120113      0.161041
      4.77420      5.58856      8.43705        -0.104659      0.219761      0.050694
      2.32373      1.38267      8.46604        -0.054944      0.094049     -0.105975
      7.21648      4.20435      8.42952        -0.067579     -0.027603      0.287114
      2.35222      6.97798      8.44038        -0.035563      0.171562      0.129199
      4.68764      0.08590      8.61955        -0.247715     -0.024836     -0.164183
      7.24761      1.45882      8.48325         0.030699     -0.156918     -0.195173
      7.23326     -1.47636      8.65379        -0.123055      0.104643     -0.018538
      4.77037      2.85656      8.47167         0.078045      0.036964     -0.216800
 -----------------------------------------------------------------------------------
    total drift:                                0.089992      0.145466     -0.015088
  FORCES: max atom, RMS     0.845716    0.212629
  Number: max atom                 1
  FORCE total and by dimension    1.327870    0.842860


--------------------------------------------------------------------------------------------------------



  FREE ENERGIE OF THE ION-ELECTRON SYSTEM (eV)
  ---------------------------------------------------
  free  energy   TOTEN  =      -230.72552864 eV

  energy  without entropy=     -230.70470050  energy(sigma->0) =     -230.71858593
 
 d Force = 0.2343362E-01[ 0.125E-02, 0.456E-01]  d Energy = 0.2329297E-01 0.141E-03
 d Force =-0.2323451E+02[-0.234E+02,-0.230E+02]  d Ewald  =-0.2323632E+02 0.182E-02


--------------------------------------------------------------------------------------------------------


    POTLOK:  cpu time    0.1860: real time    0.2537


--------------------------------------------------------------------------------------------------------


 stress matrix after NEB project (eV)
    -35.73211      0.76045      1.35855
      0.76045    -37.59628     -1.04856
      1.35855     -1.04856     -2.68199
  FORCES: max atom, RMS     0.845716    0.212629
  FORCE total and by dimension    1.327870    0.842860
  Stress total and by dimension   52.004838   37.596275
 Quasi-Newton relaxation of ions (Broydens 2nd method)
  g(Force)  = 0.340E-01   g(Stress)= 0.000E+00

 retain information from N=  4 steps
 eigenvalues of (default step * inverse Hessian matrix)
  average eigenvalue of G=   4.2071
 eigenvalue spectrum of G is  4.7884  5.5683  5.5683  0.9033
  RESET_HESSIAN           0


--------------------------------------------------------------------------------------------------------


    WAVPRE:  cpu time    0.0794: real time    0.1978
    FEWALD:  cpu time    0.0010: real time    0.0010

 real space projection operators:
  total allocation   :      13555.50 KBytes
  max/ min on nodes  :       6787.02       6768.48

    ORTHCH:  cpu time    1.4552: real time    1.4673
     LOOP+:  cpu time  103.0330: real time  104.1972


--------------------------------------- Iteration      6(   1)  ---------------------------------------


    POTLOK:  cpu time    0.1734: real time    0.1809
    SETDIJ:  cpu time    0.0109: real time    0.0110
