 running on    8 total cores
 distrk:  each k-point on    8 cores,    1 groups
 distr:  one band on    2 cores,    4 groups
 using from now: INCAR     
 vasp.5.4.4 16052018 (build Apr 24 2014 20:13:14) complex standard
 Contain Constrained Minimization Technique (TS), Periodic NBO, VASPsol, libbeef, VASP2WANNIER90, Constrained Cell Relaxation
 POSCAR found type information on POSCAR  C  O  Pt
 POSCAR found :  3 types and      39 ions
 scaLAPACK will be used
 LDA part: xc-table for Pade appr. of Perdew
 POSCAR found type information on POSCAR  C  O  Pt
 POSCAR found :  3 types and      39 ions
 POSCAR, INCAR and KPOINTS ok, starting setup
 FFT: planning ...
 WAVECAR not read
 entering main loop
       N       E                     dE             d eps       ncg     rms          rms(c)
DAV:   1     0.241985329302E+04    0.24199E+04   -0.15952E+05  1824   0.129E+03
DAV:   2    -0.622600187702E+02   -0.24821E+04   -0.23075E+04  2112   0.286E+02
DAV:   3    -0.240577435973E+03   -0.17832E+03   -0.16197E+03  2200   0.690E+01
DAV:   4    -0.248126410582E+03   -0.75490E+01   -0.72703E+01  2312   0.136E+01
DAV:   5    -0.248352477277E+03   -0.22607E+00   -0.22347E+00  2400   0.241E+00    0.272E+01
RMM:   6    -0.245833661647E+03    0.25188E+01   -0.54263E+01  1832   0.148E+01    0.290E+01
RMM:   7    -0.241596390286E+03    0.42373E+01   -0.31835E+01  1830   0.892E+00    0.198E+01
RMM:   8    -0.244704417910E+03   -0.31080E+01   -0.91962E+00  1827   0.471E+00    0.228E+01
RMM:   9    -0.231660546162E+03    0.13044E+02   -0.44168E+00  1830   0.342E+00    0.853E+00
RMM:  10    -0.230619530114E+03    0.10410E+01   -0.14286E+00  1830   0.192E+00    0.528E+00
RMM:  11    -0.230240572463E+03    0.37896E+00   -0.40310E-01  1830   0.997E-01    0.302E+00
RMM:  12    -0.230106734879E+03    0.13384E+00   -0.17588E-01  1843   0.656E-01    0.200E+00
RMM:  13    -0.230114284014E+03   -0.75491E-02   -0.12874E-01  1831   0.593E-01    0.201E+00
RMM:  14    -0.230057410761E+03    0.56873E-01   -0.74154E-02  1832   0.471E-01    0.723E-01
RMM:  15    -0.230055422348E+03    0.19884E-02   -0.29916E-02  1830   0.301E-01    0.604E-01
RMM:  16    -0.230050321942E+03    0.51004E-02   -0.81056E-03  1830   0.154E-01    0.297E-01
RMM:  17    -0.230049284926E+03    0.10370E-02   -0.19285E-03  1820   0.753E-02    0.143E-01
RMM:  18    -0.230049530616E+03   -0.24569E-03   -0.71064E-04  1723   0.460E-02    0.120E-01
RMM:  19    -0.230049578943E+03   -0.48327E-04   -0.34391E-04  1260   0.332E-02
   1 F= -.23004958E+03 E0= -.23004395E+03  d E =-.230050E+03
 BRION: g(F)=  0.340E+00 g(S)=  0.000E+00
 bond charge predicted
       N       E                     dE             d eps       ncg     rms          rms(c)
DAV:   1    -0.230271453134E+03   -0.22192E+00   -0.30463E+01  1852   0.100E+01    0.844E-01
RMM:   2    -0.230327011856E+03   -0.55559E-01   -0.56511E-01  1834   0.157E+00    0.101E+00
RMM:   3    -0.230338023932E+03   -0.11012E-01   -0.41835E-02  1871   0.352E-01    0.133E+00
RMM:   4    -0.230316296706E+03    0.21727E-01   -0.11536E-02  1852   0.178E-01    0.597E-01
RMM:   5    -0.230312883239E+03    0.34135E-02   -0.72624E-03  1838   0.144E-01    0.464E-01
RMM:   6    -0.230312807851E+03    0.75388E-04   -0.85900E-03  1830   0.154E-01    0.442E-01
RMM:   7    -0.230311060608E+03    0.17472E-02   -0.39258E-03  1826   0.106E-01    0.236E-01
RMM:   8    -0.230310511179E+03    0.54943E-03   -0.15419E-03  1823   0.679E-02    0.122E-01
RMM:   9    -0.230310391899E+03    0.11928E-03   -0.40139E-04  1353   0.347E-02    0.691E-02
RMM:  10    -0.230310391220E+03    0.67911E-06   -0.11748E-04   971   0.206E-02
   2 F= -.23031039E+03 E0= -.23030400E+03  d E =-.260812E+00
 BRION: g(F)=  0.328E+00 g(S)=  0.000E+00 retain N=  1 mean eig= 0.82
 eig:   0.817
 bond charge predicted
       N       E                     dE             d eps       ncg     rms          rms(c)
DAV:   1    -0.230390287814E+03   -0.79896E-01   -0.91788E+00  1848   0.570E+00    0.524E-01
RMM:   2    -0.230423309275E+03   -0.33021E-01   -0.35106E-01  1840   0.925E-01    0.521E-01
RMM:   3    -0.230420621790E+03    0.26875E-02   -0.13588E-02  1854   0.184E-01    0.590E-01
RMM:   4    -0.230418340797E+03    0.22810E-02   -0.31288E-03  1851   0.897E-02    0.425E-01
RMM:   5    -0.230417439128E+03    0.90167E-03   -0.43942E-03  1832   0.108E-01    0.413E-01
RMM:   6    -0.230416189390E+03    0.12497E-02   -0.42759E-03  1829   0.105E-01    0.296E-01
RMM:   7    -0.230415059588E+03    0.11298E-02   -0.19719E-03  1824   0.739E-02    0.140E-01
RMM:   8    -0.230414884193E+03    0.17539E-03   -0.43522E-04  1353   0.366E-02    0.813E-02
RMM:   9    -0.230414802793E+03    0.81400E-04   -0.13431E-04   990   0.227E-02
   3 F= -.23041480E+03 E0= -.23040823E+03  d E =-.104412E+00
 BRION: g(F)=  0.237E+00 g(S)=  0.000E+00 retain N=  2 mean eig= 1.51
 eig:   0.288  2.741
 bond charge predicted
       N       E                     dE             d eps       ncg     rms          rms(c)
DAV:   1    -0.230490165367E+03   -0.75281E-01   -0.15327E+02  1824   0.228E+01    0.182E+00
RMM:   2    -0.230749098084E+03   -0.25893E+00   -0.27634E+00  1837   0.349E+00    0.165E+00
RMM:   3    -0.230737794095E+03    0.11304E-01   -0.22130E-01  1851   0.825E-01    0.157E+00
RMM:   4    -0.230718173298E+03    0.19621E-01   -0.39820E-02  1845   0.345E-01    0.114E+00
RMM:   5    -0.230732633861E+03   -0.14461E-01   -0.19845E-02  1848   0.223E-01    0.143E+00
RMM:   6    -0.230713857661E+03    0.18776E-01   -0.23148E-02  1834   0.247E-01    0.871E-01
RMM:   7    -0.230707634057E+03    0.62236E-02   -0.19198E-02  1832   0.233E-01    0.578E-01
RMM:   8    -0.230703522911E+03    0.41111E-02   -0.75750E-03  1833   0.150E-01    0.261E-01
RMM:   9    -0.230702472802E+03    0.10501E-02   -0.18671E-03  1820   0.738E-02    0.119E-01
RMM:  10    -0.230702242154E+03    0.23065E-03   -0.50026E-04  1546   0.385E-02    0.602E-02
RMM:  11    -0.230702235668E+03    0.64858E-05   -0.20773E-04   994   0.268E-02
   4 F= -.23070224E+03 E0= -.23069472E+03  d E =-.287433E+00
 BRION: g(F)=  0.959E-01 g(S)=  0.000E+00 retain N=  3 mean eig= 4.16
 eig:   1.351  5.566  5.566
 bond charge predicted
       N       E                     dE             d eps       ncg     rms          rms(c)
DAV:   1    -0.230717181129E+03   -0.14939E-01   -0.59745E+00  1824   0.422E+00    0.398E-01
RMM:   2    -0.230727485461E+03   -0.10304E-01   -0.11640E-01  1839   0.681E-01    0.396E-01
RMM:   3    -0.230728783608E+03   -0.12981E-02   -0.96844E-03  1853   0.168E-01    0.513E-01
RMM:   4    -0.230727138167E+03    0.16454E-02   -0.19863E-03  1856   0.736E-02    0.337E-01
RMM:   5    -0.230726048319E+03    0.10898E-02   -0.12750E-03  1832   0.596E-02    0.218E-01
RMM:   6    -0.230725797239E+03    0.25108E-03   -0.14259E-03  1811   0.615E-02    0.147E-01
RMM:   7    -0.230725708568E+03    0.88671E-04   -0.76435E-04  1735   0.470E-02    0.104E-01
RMM:   8    -0.230725551121E+03    0.15745E-03   -0.24717E-04  1067   0.292E-02    0.485E-02
RMM:   9    -0.230725528640E+03    0.22481E-04   -0.72873E-05   956   0.164E-02
   5 F= -.23072553E+03 E0= -.23071859E+03  d E =-.232930E-01
 BRION: g(F)=  0.340E-01 g(S)=  0.000E+00 retain N=  4 mean eig= 4.21
 eig:   4.788  5.568  5.568  0.903
 bond charge predicted
       N       E                     dE             d eps       ncg     rms          rms(c)
[mpiexec@node11] Sending Ctrl-C to processes as requested
[mpiexec@node11] Press Ctrl-C again to force abort
