<?xml version="1.0" encoding="ISO-8859-1"?>
<modeling>
 <generator>
  <i name="program" type="string"> vasp </i>
  <i name="version" type="string">5.4.4  </i>
  <i name="subversion" type="string">16052018 (build Apr 24 2014 20:13:14) complex standard parallel Constrained Minimization Technique (TS), Periodic NBO, VASPsol, libbeef, VASP2WANNIER90, Constrained Cell Relaxation </i>
  <i name="platform" type="string">Center for Computational Chemistry </i>
  <i name="user" type="string">phu </i>
  <i name="host" type="string">node11 </i>
  <i name="date" type="string">2025 11 24 </i>
  <i name="time" type="string">22:11:48 </i>
 </generator>
 <incar>
  <i type="string" name="SYSTEM"> metal</i>
  <i type="int" name="ISTART">     0</i>
  <i type="string" name="PREC">normal</i>
  <i type="string" name="ALGO">Fast</i>
  <i type="int" name="NSIM">     4</i>
  <i type="int" name="ISPIN">     1</i>
  <i type="int" name="NELMIN">     8</i>
  <i type="int" name="IBRION">     1</i>
  <i name="EDIFFG">     -0.05000000</i>
  <i type="int" name="NSW">  5000</i>
  <i type="int" name="ISIF">     2</i>
  <i type="int" name="ISYM">     0</i>
  <i name="ENCUT">    450.00000000</i>
  <i name="POTIM">      0.20000000</i>
  <i type="string" name="LREAL">A</i>
  <i type="int" name="ISMEAR">     1</i>
  <i name="SIGMA">      0.20000000</i>
  <i type="logical" name="LWAVE"> F  </i>
  <i type="logical" name="LCHARG"> F  </i>
  <v type="int" name="KPOINT_BSE">    -1     0     0     0</v>
  <i type="int" name="VOSKOWN">     0</i>
 </incar>
 <structure name="primitive_cell" >
  <crystal>
   <varray name="basis" >
    <v>       7.29695512      -4.21289900       0.00000000 </v>
    <v>       0.00000000       8.42579800       0.00000000 </v>
    <v>       0.00000000       0.00000000      21.87963500 </v>
   </varray>
   <i name="volume">   1345.21837528 </i>
   <varray name="rec_basis" >
    <v>       0.13704346       0.00000000       0.00000000 </v>
    <v>       0.06852173       0.11868312       0.00000000 </v>
    <v>       0.00000000       0.00000000       0.04570460 </v>
   </varray>
  </crystal>
  <varray name="positions" >
   <v>      -0.29784260       0.43317844       0.47842573 </v>
   <v>      -0.32597915       0.46003432      -0.47168574 </v>
   <v>      -0.09162242       0.38256416       0.46861937 </v>
   <v>      -0.35646495       0.32794675       0.38957061 </v>
   <v>      -0.34675070      -0.33390832       0.38853745 </v>
   <v>      -0.00848224      -0.32731832       0.38927788 </v>
   <v>       0.32059092       0.32038883       0.38845076 </v>
   <v>      -0.00958410       0.31873934       0.39582112 </v>
   <v>       0.32401636      -0.01316427       0.38422555 </v>
   <v>      -0.34542191      -0.01174114       0.38459833 </v>
   <v>      -0.23369444      -0.44626213       0.28600622 </v>
   <v>      -0.00915583      -0.00637349       0.38368939 </v>
   <v>       0.43501234       0.21776717       0.28474696 </v>
   <v>      -0.23156090       0.21584646       0.28653175 </v>
   <v>       0.32577078      -0.33743908       0.38366971 </v>
   <v>       0.42926473      -0.44992443       0.27851742 </v>
   <v>       0.10142178      -0.45089479       0.28011410 </v>
   <v>       0.09615180      -0.11360213       0.28143482 </v>
   <v>      -0.23885671      -0.11882755       0.27904214 </v>
   <v>       0.43227824      -0.11754599       0.28329696 </v>
   <v>       0.09550197       0.21640978       0.28085085 </v>
   <v>      -0.45768900       0.43970300       0.17918600 </v>
   <v>      -0.12435600       0.43970300       0.17918600 </v>
   <v>      -0.45768900       0.10636900       0.17918600 </v>
   <v>      -0.12435600      -0.22696400       0.17918600 </v>
   <v>       0.20897700       0.10636900       0.17918600 </v>
   <v>      -0.12435600       0.10636900       0.17918600 </v>
   <v>      -0.45768900      -0.22696400       0.17918600 </v>
   <v>       0.20897700      -0.22696400       0.17918600 </v>
   <v>       0.20897700       0.43970300       0.17918600 </v>
   <v>      -0.34657800       0.32859100       0.07437600 </v>
   <v>      -0.34657800      -0.33807500       0.07437600 </v>
   <v>      -0.01324500      -0.33807500       0.07437600 </v>
   <v>       0.32008800       0.32859100       0.07437600 </v>
   <v>      -0.01324500       0.32859100       0.07437600 </v>
   <v>       0.32008800      -0.00474200       0.07437600 </v>
   <v>      -0.34657800      -0.00474200       0.07437600 </v>
   <v>      -0.01324500      -0.00474200       0.07437600 </v>
   <v>       0.32008800      -0.33807500       0.07437600 </v>
  </varray>
 </structure>
 <varray name="primitive_index" >
  <v type="int" >        1 </v>
  <v type="int" >        3 </v>
  <v type="int" >        2 </v>
  <v type="int" >       36 </v>
  <v type="int" >       39 </v>
  <v type="int" >       37 </v>
  <v type="int" >       33 </v>
  <v type="int" >       38 </v>
  <v type="int" >       35 </v>
  <v type="int" >       32 </v>
  <v type="int" >       30 </v>
  <v type="int" >       34 </v>
  <v type="int" >       26 </v>
  <v type="int" >       24 </v>
  <v type="int" >       31 </v>
  <v type="int" >       29 </v>
  <v type="int" >       22 </v>
  <v type="int" >       27 </v>
  <v type="int" >       28 </v>
  <v type="int" >       23 </v>
  <v type="int" >       25 </v>
  <v type="int" >       17 </v>
  <v type="int" >       18 </v>
  <v type="int" >       14 </v>
  <v type="int" >       21 </v>
  <v type="int" >       13 </v>
  <v type="int" >       15 </v>
  <v type="int" >       20 </v>
  <v type="int" >       19 </v>
  <v type="int" >       16 </v>
  <v type="int" >        6 </v>
  <v type="int" >        9 </v>
  <v type="int" >        7 </v>
  <v type="int" >        5 </v>
  <v type="int" >        4 </v>
  <v type="int" >       10 </v>
  <v type="int" >       11 </v>
  <v type="int" >       12 </v>
  <v type="int" >        8 </v>
 </varray>
 <kpoints>
  <generation param="Gamma">
   <v type="int" name="divisions">       2        2        1 </v>
   <v name="usershift">      0.00000000       0.00000000       0.00000000 </v>
   <v name="genvec1">      0.50000000       0.00000000       0.00000000 </v>
   <v name="genvec2">     -0.00000000       0.50000000       0.00000000 </v>
   <v name="genvec3">      0.00000000       0.00000000       1.00000000 </v>
   <v name="shift">      0.00000000       0.00000000       0.00000000 </v>
  </generation>
  <varray name="kpointlist" >
   <v>       0.00000000       0.00000000       0.00000000 </v>
   <v>       0.50000000       0.00000000       0.00000000 </v>
   <v>      -0.00000000       0.50000000       0.00000000 </v>
   <v>       0.50000000       0.50000000       0.00000000 </v>
  </varray>
  <varray name="weights" >
   <v>       0.25000000 </v>
   <v>       0.25000000 </v>
   <v>       0.25000000 </v>
   <v>       0.25000000 </v>
  </varray>
 </kpoints>
 <parameters>
  <separator name="general" >
   <i type="string" name="SYSTEM">metal</i>
   <i type="logical" name="LCOMPAT"> F  </i>
  </separator>
  <separator name="electronic" >
   <i type="string" name="PREC">normal</i>
   <i name="ENMAX">    450.00000000</i>
   <i name="ENAUG">    644.87300000</i>
   <i name="EDIFF">      0.00010000</i>
   <i type="int" name="IALGO">    68</i>
   <i type="int" name="IWAVPR">    11</i>
   <i type="int" name="NBANDS">   228</i>
   <i name="NELECT">    376.00000000</i>
   <i type="int" name="TURBO">     0</i>
   <i type="int" name="IRESTART">     0</i>
   <i type="int" name="NREBOOT">     0</i>
   <i type="int" name="NMIN">     0</i>
   <i name="EREF">      0.00000000</i>
   <separator name="electronic smearing" >
    <i type="int" name="ISMEAR">     1</i>
    <i name="SIGMA">      0.20000000</i>
    <i name="KSPACING">      0.50000000</i>
    <i type="logical" name="KGAMMA"> T  </i>
   </separator>
   <separator name="electronic projectors" >
    <i type="logical" name="LREAL"> T  </i>
    <v name="ROPT">     -0.00050000     -0.00050000     -0.00050000</v>
    <i type="int" name="LMAXPAW">  -100</i>
    <i type="int" name="LMAXMIX">     2</i>
    <i type="logical" name="NLSPLINE"> F  </i>
   </separator>
   <separator name="electronic startup" >
    <i type="int" name="ISTART">     0</i>
    <i type="int" name="ICHARG">     2</i>
    <i type="int" name="INIWAV">     1</i>
   </separator>
   <separator name="electronic spin" >
    <i type="int" name="ISPIN">     1</i>
    <i type="logical" name="LNONCOLLINEAR"> F  </i>
    <v name="MAGMOM">      1.00000000      1.00000000      1.00000000      1.00000000      1.00000000      1.00000000      1.00000000      1.00000000      1.00000000      1.00000000      1.00000000      1.00000000      1.00000000      1.00000000      1.00000000      1.00000000      1.00000000      1.00000000      1.00000000      1.00000000
      1.00000000      1.00000000      1.00000000      1.00000000      1.00000000      1.00000000      1.00000000      1.00000000      1.00000000      1.00000000      1.00000000      1.00000000      1.00000000      1.00000000      1.00000000      1.00000000      1.00000000      1.00000000      1.00000000</v>
    <i name="NUPDOWN">     -1.00000000</i>
    <i type="logical" name="LSORBIT"> F  </i>
    <v name="SAXIS">      0.00000000      0.00000000      1.00000000</v>
    <i type="logical" name="LSPIRAL"> F  </i>
    <v name="QSPIRAL">      0.00000000      0.00000000      0.00000000</v>
    <i type="logical" name="LZEROZ"> F  </i>
   </separator>
   <separator name="electronic exchange-correlation" >
    <i type="logical" name="LASPH"> F  </i>
    <i type="logical" name="LMETAGGA"> F  </i>
   </separator>
   <separator name="electronic convergence" >
    <i type="int" name="NELM">    60</i>
    <i type="int" name="NELMDL">    -5</i>
    <i type="int" name="NELMIN">     8</i>
    <i name="ENINI">    450.00000000</i>
    <separator name="electronic convergence detail" >
     <i type="logical" name="LDIAG"> T  </i>
     <i type="logical" name="LSUBROT"> F  </i>
     <i name="WEIMIN">      0.00100000</i>
     <i name="EBREAK">      0.00000011</i>
     <i name="DEPER">      0.30000000</i>
     <i type="int" name="NRMM">     4</i>
     <i name="TIME">      0.40000000</i>
    </separator>
   </separator>
   <separator name="electronic mixer" >
    <i name="AMIX">      0.40000000</i>
    <i name="BMIX">      1.00000000</i>
    <i name="AMIN">      0.10000000</i>
    <i name="AMIX_MAG">      1.60000000</i>
    <i name="BMIX_MAG">      1.00000000</i>
    <separator name="electronic mixer details" >
     <i type="int" name="IMIX">     4</i>
     <i type="logical" name="MIXFIRST"> F  </i>
     <i type="int" name="MAXMIX">   -45</i>
     <i name="WC">    100.00000000</i>
     <i type="int" name="INIMIX">     1</i>
     <i type="int" name="MIXPRE">     1</i>
     <i type="int" name="MREMOVE">     5</i>
    </separator>
   </separator>
   <separator name="electronic dipolcorrection" >
    <i type="logical" name="LDIPOL"> F  </i>
    <i type="logical" name="LMONO"> F  </i>
    <i type="int" name="IDIPOL">     0</i>
    <i name="EPSILON">      1.00000000</i>
    <v name="DIPOL">   -100.00000000   -100.00000000   -100.00000000</v>
    <i name="EFIELD">      0.00000000</i>
   </separator>
  </separator>
  <separator name="grids" >
   <i type="int" name="NGX">    48</i>
   <i type="int" name="NGY">    48</i>
   <i type="int" name="NGZ">   120</i>
   <i type="int" name="NGXF">    96</i>
   <i type="int" name="NGYF">    96</i>
   <i type="int" name="NGZF">   240</i>
   <i type="logical" name="ADDGRID"> F  </i>
  </separator>
  <separator name="ionic" >
   <i type="int" name="NSW">  5000</i>
   <i type="int" name="IBRION">     1</i>
   <i type="int" name="MDALGO">     0</i>
   <i type="int" name="ISIF">     2</i>
   <i name="PSTRESS">      0.00000000</i>
   <i name="EDIFFG">     -0.05000000</i>
   <i type="int" name="NFREE">     0</i>
   <i name="POTIM">      0.20000000</i>
   <i name="SMASS">     -3.00000000</i>
   <i name="SCALEE">      1.00000000</i>
  </separator>
  <separator name="ionic md" >
   <i name="TEBEG">      0.00010000</i>
   <i name="TEEND">      0.00010000</i>
   <i type="int" name="NBLOCK">     1</i>
   <i type="int" name="KBLOCK">  5000</i>
   <i type="int" name="NPACO">   256</i>
   <i name="APACO">     16.00000000</i>
  </separator>
  <separator name="symmetry" >
   <i type="int" name="ISYM">     0</i>
   <i name="SYMPREC">      0.00001000</i>
  </separator>
  <separator name="dos" >
   <i type="int" name="LORBIT">     0</i>
   <v name="RWIGS">     -1.00000000     -1.00000000     -1.00000000</v>
   <i type="int" name="NEDOS">   301</i>
   <i name="EMIN">     10.00000000</i>
   <i name="EMAX">    -10.00000000</i>
   <i name="EFERMI">      0.00000000</i>
  </separator>
  <separator name="writing" >
   <i type="int" name="NWRITE">     2</i>
   <i type="logical" name="LWAVE"> F  </i>
   <i type="logical" name="LDOWNSAMPLE"> F  </i>
   <i type="logical" name="LCHARG"> F  </i>
   <i type="logical" name="LPARD"> F  </i>
   <i type="logical" name="LVTOT"> F  </i>
   <i type="logical" name="LVHAR"> F  </i>
   <i type="logical" name="LELF"> F  </i>
   <i type="logical" name="LOPTICS"> F  </i>
   <v name="STM">      0.00000000      0.00000000      0.00000000      0.00000000      0.00000000      0.00000000      0.00000000</v>
  </separator>
  <separator name="performance" >
   <i type="int" name="NPAR">     4</i>
   <i type="int" name="NSIM">     4</i>
   <i type="int" name="NBLK">    -1</i>
   <i type="logical" name="LPLANE"> T  </i>
   <i type="logical" name="LSCALAPACK"> T  </i>
   <i type="logical" name="LSCAAWARE"> F  </i>
   <i type="logical" name="LSCALU"> F  </i>
   <i type="logical" name="LASYNC"> F  </i>
   <i type="logical" name="LORBITALREAL"> F  </i>
  </separator>
  <separator name="miscellaneous" >
   <i type="int" name="IDIOT">     3</i>
   <i type="int" name="ISPECIAL">     0</i>
   <i type="logical" name="LMUSIC"> F  </i>
   <v name="POMASS">     12.01100000     16.00000000    195.08000000</v>
   <v name="DARWINR">      0.00000000      0.00000000      0.00000000</v>
   <v name="DARWINV">      1.00000000      1.00000000      1.00000000</v>
   <i type="logical" name="LCORR"> T  </i>
  </separator>
  <i type="logical" name="GGA_COMPAT"> T  </i>
  <i type="logical" name="LBERRY"> F  </i>
  <i type="int" name="ICORELEVEL">     0</i>
  <i type="logical" name="LDAU"> F  </i>
  <i type="int" name="I_CONSTRAINED_M">     0</i>
  <separator name="electronic exchange-correlation" >
   <i type="string" name="GGA">--</i>
   <i type="int" name="VOSKOWN">     0</i>
   <i type="logical" name="LHFCALC"> F  </i>
   <i type="string" name="PRECFOCK"></i>
   <i type="logical" name="LSYMGRAD"> F  </i>
   <i type="logical" name="LHFONE"> F  </i>
   <i type="logical" name="LRHFCALC"> F  </i>
   <i type="logical" name="LTHOMAS"> F  </i>
   <i type="logical" name="LMODELHF"> F  </i>
   <i name="ENCUT4O">     -1.00000000</i>
   <i type="int" name="EXXOEP">     0</i>
   <i type="int" name="FOURORBIT">     0</i>
   <i name="AEXX">      0.00000000</i>
   <i name="HFALPHA">      0.00000000</i>
   <i name="MCALPHA">      0.00000000</i>
   <i name="ALDAX">      1.00000000</i>
   <i name="AGGAX">      1.00000000</i>
   <i name="ALDAC">      1.00000000</i>
   <i name="AGGAC">      1.00000000</i>
   <i type="int" name="NKREDX">     1</i>
   <i type="int" name="NKREDY">     1</i>
   <i type="int" name="NKREDZ">     1</i>
   <i type="logical" name="SHIFTRED"> F  </i>
   <i type="logical" name="ODDONLY"> F  </i>
   <i type="logical" name="EVENONLY"> F  </i>
   <i type="int" name="LMAXFOCK">     0</i>
   <i type="int" name="NMAXFOCKAE">     0</i>
   <i type="logical" name="LFOCKAEDFT"> F  </i>
   <i name="HFSCREEN">      0.00000000</i>
   <i name="HFSCREENC">      0.00000000</i>
   <i type="int" name="NBANDSGWLOW">     0</i>
  </separator>
  <separator name="vdW DFT" >
   <i type="logical" name="LUSE_VDW"> F  </i>
   <i name="Zab_VDW">     -0.84910000</i>
   <i name="PARAM1">      0.12340000</i>
   <i name="PARAM2">      1.00000000</i>
   <i name="PARAM3">      0.00000000</i>
  </separator>
  <separator name="model GW" >
   <i type="int" name="MODEL_GW">     0</i>
   <i name="MODEL_EPS0">     20.69566731</i>
   <i name="MODEL_ALPHA">      1.00000000</i>
  </separator>
  <separator name="linear response parameters" >
   <i type="logical" name="LEPSILON"> F  </i>
   <i type="logical" name="LRPA"> F  </i>
   <i type="logical" name="LNABLA"> F  </i>
   <i type="logical" name="LVEL"> F  </i>
   <i type="int" name="KINTER">     0</i>
   <i name="CSHIFT">      0.10000000</i>
   <i name="OMEGAMAX">     -1.00000000</i>
   <i name="DEG_THRESHOLD">      0.00200000</i>
   <i name="RTIME">     -0.10000000</i>
   <i name="WPLASMAI">      0.00000000</i>
   <v name="DFIELD">      0.00000000      0.00000000      0.00000000</v>
   <v name="WPLASMA">      0.00000000      0.00000000      0.00000000      0.00000000      0.00000000      0.00000000      0.00000000      0.00000000      0.00000000</v>
  </separator>
  <separator name="orbital magnetization" >
   <i type="logical" name="NUCIND"> F  </i>
   <v name="MAGPOS">      0.00000000      0.00000000      0.00000000</v>
   <i type="logical" name="LNICSALL"> T  </i>
   <i type="logical" name="ORBITALMAG"> F  </i>
   <i type="logical" name="LMAGBLOCH"> F  </i>
   <i type="logical" name="LCHIMAG"> F  </i>
   <i type="logical" name="LGAUGE"> T  </i>
   <i type="int" name="MAGATOM">     0</i>
   <v name="MAGDIPOL">      0.00000000      0.00000000      0.00000000</v>
   <v name="AVECCONST">      0.00000000      0.00000000      0.00000000</v>
  </separator>
  <separator name="response functions" >
   <i type="logical" name="LADDER"> F  </i>
   <i type="logical" name="LRPAFORCE"> F  </i>
   <i type="logical" name="LFXC"> F  </i>
   <i type="logical" name="LHARTREE"> T  </i>
   <i type="int" name="IBSE">     0</i>
   <v type="int" name="KPOINT">    -1     0     0     0</v>
   <i type="logical" name="LTCTE"> F  </i>
   <i type="logical" name="LTETE"> F  </i>
   <i type="logical" name="LTRIPLET"> F  </i>
   <i type="logical" name="LFXCEPS"> F  </i>
   <i type="logical" name="LFXHEG"> F  </i>
   <i type="int" name="NATURALO">     2</i>
   <i type="logical" name="L2ORDER"> F  </i>
   <i type="logical" name="LMP2LT"> F  </i>
   <i type="logical" name="LUSEW"> F  </i>
   <i name="ENCUTGW">     -2.00000000</i>
   <i name="ENCUTGWSOFT">     -2.00000000</i>
   <i name="ENCUTLF">     -1.00000000</i>
   <i type="int" name="LMAXMP2">    -1</i>
   <i name="SCISSOR">      0.00000000</i>
   <i type="int" name="NOMEGA">     0</i>
   <i type="int" name="NOMEGAR">     0</i>
   <i type="int" name="NBANDSGW">    -1</i>
   <i type="int" name="NBANDSO">    -1</i>
   <i type="int" name="NBANDSV">    -1</i>
   <i type="int" name="NELM">     1</i>
   <i type="int" name="NELMHF">     1</i>
   <i type="int" name="DIM">     3</i>
   <i type="int" name="ANTIRES">     0</i>
   <i name="OMEGAMAX">    -30.00000000</i>
   <i name="OMEGAMIN">    -30.00000000</i>
   <i name="OMEGATL">   -200.00000000</i>
   <i type="int" name="OMEGAGRID">   140</i>
   <i name="CSHIFT">     -0.10000000</i>
   <i type="logical" name="SELFENERGY"> F  </i>
   <i type="logical" name="LSPECTRAL"> F  </i>
   <i type="logical" name="LSPECTRALGW"> F  </i>
   <i type="logical" name="LSINGLES"> F  </i>
   <i type="logical" name="LFERMIGW"> F  </i>
   <i type="logical" name="ODDONLYGW"> F  </i>
   <i type="logical" name="EVENONLYGW"> F  </i>
   <i type="int" name="NKREDLFX">     1</i>
   <i type="int" name="NKREDLFY">     1</i>
   <i type="int" name="NKREDLFZ">     1</i>
   <i type="int" name="MAXMEM">  2800</i>
   <i type="int" name="TELESCOPE">     0</i>
   <i type="int" name="TAUPAR">     1</i>
   <i type="int" name="OMEGAPAR">    -1</i>
   <i name="LAMBDA">      1.00000000</i>
  </separator>
  <separator name="External order field" >
   <i name="OFIELD_KAPPA">      0.00000000</i>
   <v name="OFIELD_K">      0.00000000      0.00000000      0.00000000</v>
   <i name="OFIELD_Q6_NEAR">      0.00000000</i>
   <i name="OFIELD_Q6_FAR">      0.00000000</i>
   <i name="OFIELD_A">      0.00000000</i>
  </separator>
  <separator name="solvation model" >
   <i type="logical" name="LSOL"> F  </i>
  </separator>
 </parameters>
 <atominfo>
  <atoms>      39 </atoms>
  <types>       3 </types>
  <array name="atoms" >
   <dimension dim="1">ion</dimension>
   <field type="string">element</field>
   <field type="int">atomtype</field>
   <set>
    <rc><c>C </c><c>   1</c></rc>
    <rc><c>O </c><c>   2</c></rc>
    <rc><c>O </c><c>   2</c></rc>
    <rc><c>Pt</c><c>   3</c></rc>
    <rc><c>Pt</c><c>   3</c></rc>
    <rc><c>Pt</c><c>   3</c></rc>
    <rc><c>Pt</c><c>   3</c></rc>
    <rc><c>Pt</c><c>   3</c></rc>
    <rc><c>Pt</c><c>   3</c></rc>
    <rc><c>Pt</c><c>   3</c></rc>
    <rc><c>Pt</c><c>   3</c></rc>
    <rc><c>Pt</c><c>   3</c></rc>
    <rc><c>Pt</c><c>   3</c></rc>
    <rc><c>Pt</c><c>   3</c></rc>
    <rc><c>Pt</c><c>   3</c></rc>
    <rc><c>Pt</c><c>   3</c></rc>
    <rc><c>Pt</c><c>   3</c></rc>
    <rc><c>Pt</c><c>   3</c></rc>
    <rc><c>Pt</c><c>   3</c></rc>
    <rc><c>Pt</c><c>   3</c></rc>
    <rc><c>Pt</c><c>   3</c></rc>
    <rc><c>Pt</c><c>   3</c></rc>
    <rc><c>Pt</c><c>   3</c></rc>
    <rc><c>Pt</c><c>   3</c></rc>
    <rc><c>Pt</c><c>   3</c></rc>
    <rc><c>Pt</c><c>   3</c></rc>
    <rc><c>Pt</c><c>   3</c></rc>
    <rc><c>Pt</c><c>   3</c></rc>
    <rc><c>Pt</c><c>   3</c></rc>
    <rc><c>Pt</c><c>   3</c></rc>
    <rc><c>Pt</c><c>   3</c></rc>
    <rc><c>Pt</c><c>   3</c></rc>
    <rc><c>Pt</c><c>   3</c></rc>
    <rc><c>Pt</c><c>   3</c></rc>
    <rc><c>Pt</c><c>   3</c></rc>
    <rc><c>Pt</c><c>   3</c></rc>
    <rc><c>Pt</c><c>   3</c></rc>
    <rc><c>Pt</c><c>   3</c></rc>
    <rc><c>Pt</c><c>   3</c></rc>
   </set>
  </array>
  <array name="atomtypes" >
   <dimension dim="1">type</dimension>
   <field type="int">atomspertype</field>
   <field type="string">element</field>
   <field>mass</field>
   <field>valence</field>
   <field type="string">pseudopotential</field>
   <set>
    <rc><c>   1</c><c>C </c><c>     12.01100000</c><c>      4.00000000</c><c> PAW_PBE C 08Apr2002                    </c></rc>
    <rc><c>   2</c><c>O </c><c>     16.00000000</c><c>      6.00000000</c><c> PAW_PBE O 08Apr2002                    </c></rc>
    <rc><c>  36</c><c>Pt</c><c>    195.08000000</c><c>     10.00000000</c><c>  PAW_PBE Pt 04Feb2005                  </c></rc>
   </set>
  </array>
 </atominfo>
 <structure name="initialpos" >
  <crystal>
   <varray name="basis" >
    <v>       7.29695512      -4.21289900       0.00000000 </v>
    <v>       0.00000000       8.42579800       0.00000000 </v>
    <v>       0.00000000       0.00000000      21.87963500 </v>
   </varray>
   <i name="volume">   1345.21837528 </i>
   <varray name="rec_basis" >
    <v>       0.13704346       0.00000000       0.00000000 </v>
    <v>       0.06852173       0.11868312       0.00000000 </v>
    <v>       0.00000000       0.00000000       0.04570460 </v>
   </varray>
  </crystal>
  <varray name="positions" >
   <v>       0.70215740       0.43317844       0.47842573 </v>
   <v>       0.90837758       0.38256416       0.46861937 </v>
   <v>       0.67402085       0.46003432       0.52831426 </v>
   <v>       0.98675500       0.32859100       0.07437600 </v>
   <v>       0.32008800       0.32859100       0.07437600 </v>
   <v>       0.65342200       0.32859100       0.07437600 </v>
   <v>       0.98675500       0.66192500       0.07437600 </v>
   <v>       0.32008800       0.66192500       0.07437600 </v>
   <v>       0.65342200       0.66192500       0.07437600 </v>
   <v>       0.32008800       0.99525800       0.07437600 </v>
   <v>       0.65342200       0.99525800       0.07437600 </v>
   <v>       0.98675500       0.99525800       0.07437600 </v>
   <v>       0.20897700       0.10636900       0.17918600 </v>
   <v>       0.54231100       0.10636900       0.17918600 </v>
   <v>       0.87564400       0.10636900       0.17918600 </v>
   <v>       0.20897700       0.43970300       0.17918600 </v>
   <v>       0.54231100       0.43970300       0.17918600 </v>
   <v>       0.87564400       0.43970300       0.17918600 </v>
   <v>       0.20897700       0.77303600       0.17918600 </v>
   <v>       0.54231100       0.77303600       0.17918600 </v>
   <v>       0.87564400       0.77303600       0.17918600 </v>
   <v>       0.10142178       0.54910521       0.28011410 </v>
   <v>       0.43227824       0.88245401       0.28329696 </v>
   <v>       0.76843910       0.21584646       0.28653175 </v>
   <v>       0.09550197       0.21640978       0.28085085 </v>
   <v>       0.43501234       0.21776717       0.28474696 </v>
   <v>       0.09615180       0.88639787       0.28143482 </v>
   <v>       0.76114329       0.88117245       0.27904214 </v>
   <v>       0.42926473       0.55007557       0.27851742 </v>
   <v>       0.76630556       0.55373787       0.28600622 </v>
   <v>       0.32577078       0.66256092       0.38366971 </v>
   <v>       0.65457809       0.98825886       0.38459833 </v>
   <v>       0.32059092       0.32038883       0.38845076 </v>
   <v>       0.99084417       0.99362651       0.38368939 </v>
   <v>       0.32401636       0.98683573       0.38422555 </v>
   <v>       0.64353505       0.32794675       0.38957061 </v>
   <v>       0.99151776       0.67268168       0.38927788 </v>
   <v>       0.99041590       0.31873934       0.39582112 </v>
   <v>       0.65324930       0.66609168       0.38853745 </v>
  </varray>
  <varray name="selective"  type="logical" >
   <v type="logical" >  T  T  T </v>
   <v type="logical" >  T  T  T </v>
   <v type="logical" >  T  T  T </v>
   <v type="logical" >  F  F  F </v>
   <v type="logical" >  F  F  F </v>
   <v type="logical" >  F  F  F </v>
   <v type="logical" >  F  F  F </v>
   <v type="logical" >  F  F  F </v>
   <v type="logical" >  F  F  F </v>
   <v type="logical" >  F  F  F </v>
   <v type="logical" >  F  F  F </v>
   <v type="logical" >  F  F  F </v>
   <v type="logical" >  F  F  F </v>
   <v type="logical" >  F  F  F </v>
   <v type="logical" >  F  F  F </v>
   <v type="logical" >  F  F  F </v>
   <v type="logical" >  F  F  F </v>
   <v type="logical" >  F  F  F </v>
   <v type="logical" >  F  F  F </v>
   <v type="logical" >  F  F  F </v>
   <v type="logical" >  F  F  F </v>
   <v type="logical" >  T  T  T </v>
   <v type="logical" >  T  T  T </v>
   <v type="logical" >  T  T  T </v>
   <v type="logical" >  T  T  T </v>
   <v type="logical" >  T  T  T </v>
   <v type="logical" >  T  T  T </v>
   <v type="logical" >  T  T  T </v>
   <v type="logical" >  T  T  T </v>
   <v type="logical" >  T  T  T </v>
   <v type="logical" >  T  T  T </v>
   <v type="logical" >  T  T  T </v>
   <v type="logical" >  T  T  T </v>
   <v type="logical" >  T  T  T </v>
   <v type="logical" >  T  T  T </v>
   <v type="logical" >  T  T  T </v>
   <v type="logical" >  T  T  T </v>
   <v type="logical" >  T  T  T </v>
   <v type="logical" >  T  T  T </v>
  </varray>
  <nose>
   <v>      -3.00000000       0.00000000       0.00010000       0.00010000 </v>
  </nose>
 </structure>
 <calculation>
  <scstep>
   <time name="dav">   12.33   12.43</time>
   <time name="total">   12.53   12.72</time>
   <energy>
    <i name="alphaZ">    975.10247152 </i>
    <i name="ewald">  91627.66578349 </i>
    <i name="hartreedc">-120716.46228988 </i>
    <i name="XCdc">    189.80172531 </i>
    <i name="pawpsdc">  24789.08602224 </i>
    <i name="pawaedc"> -23775.73976456 </i>
    <i name="eentropy">     -0.00390213 </i>
    <i name="bandstr">   2070.50908617 </i>
    <i name="atom">  27259.89416086 </i>
    <i name="e_fr_energy">   2419.85329302 </i>
    <i name="e_wo_entrp">   2419.85719516 </i>
    <i name="e_0_energy">   2419.85459374 </i>
   </energy>
  </scstep>
  <scstep>
   <time name="dav">   13.49   13.60</time>
   <time name="total">   13.49   13.60</time>
   <energy>
    <i name="e_fr_energy">    -62.26001877 </i>
    <i name="e_wo_entrp">    -62.25317834 </i>
    <i name="e_0_energy">    -62.25773863 </i>
   </energy>
  </scstep>
  <scstep>
   <time name="dav">   13.76   13.86</time>
   <time name="total">   13.76   13.86</time>
   <energy>
    <i name="e_fr_energy">   -240.57743597 </i>
    <i name="e_wo_entrp">   -240.58746860 </i>
    <i name="e_0_energy">   -240.58078018 </i>
   </energy>
  </scstep>
  <scstep>
   <time name="dav">   14.70   14.81</time>
   <time name="total">   14.70   14.81</time>
   <energy>
    <i name="e_fr_energy">   -248.12641058 </i>
    <i name="e_wo_entrp">   -248.14025317 </i>
    <i name="e_0_energy">   -248.13102478 </i>
   </energy>
  </scstep>
  <scstep>
   <time name="dav">   15.12   15.23</time>
   <time name="total">   15.92   16.04</time>
   <energy>
    <i name="e_fr_energy">   -248.35247728 </i>
    <i name="e_wo_entrp">   -248.36632129 </i>
    <i name="e_0_energy">   -248.35709195 </i>
   </energy>
  </scstep>
  <scstep>
   <time name="diag">    2.06    2.07</time>
   <time name="diis">    7.13    7.18</time>
   <time name="orth">    0.27    0.28</time>
   <time name="total">   10.44   10.52</time>
   <energy>
    <i name="e_fr_energy">   -245.83366165 </i>
    <i name="e_wo_entrp">   -245.67428203 </i>
    <i name="e_0_energy">   -245.78053511 </i>
   </energy>
  </scstep>
  <scstep>
   <time name="diag">    2.03    2.04</time>
   <time name="diis">    7.11    7.16</time>
   <time name="orth">    0.26    0.27</time>
   <time name="total">   10.37   10.45</time>
   <energy>
    <i name="e_fr_energy">   -241.59639029 </i>
    <i name="e_wo_entrp">   -241.50720694 </i>
    <i name="e_0_energy">   -241.56666250 </i>
   </energy>
  </scstep>
  <scstep>
   <time name="diag">    1.96    1.98</time>
   <time name="diis">    7.02    7.07</time>
   <time name="orth">    0.26    0.27</time>
   <time name="total">   10.07   10.15</time>
   <energy>
    <i name="e_fr_energy">   -244.70441791 </i>
    <i name="e_wo_entrp">   -244.57816897 </i>
    <i name="e_0_energy">   -244.66233493 </i>
   </energy>
  </scstep>
  <scstep>
   <time name="diag">    1.96    1.97</time>
   <time name="diis">    7.12    7.18</time>
   <time name="orth">    0.27    0.28</time>
   <time name="total">   10.29   10.36</time>
   <energy>
    <i name="e_fr_energy">   -231.66054616 </i>
    <i name="e_wo_entrp">   -231.59875031 </i>
    <i name="e_0_energy">   -231.63994754 </i>
   </energy>
  </scstep>
  <scstep>
   <time name="diag">    2.05    2.07</time>
   <time name="diis">    7.33    7.38</time>
   <time name="orth">    0.28    0.28</time>
   <time name="total">   10.64   10.72</time>
   <energy>
    <i name="e_fr_energy">   -230.61953011 </i>
    <i name="e_wo_entrp">   -230.61939728 </i>
    <i name="e_0_energy">   -230.61948584 </i>
   </energy>
  </scstep>
  <scstep>
   <time name="diag">    2.09    2.10</time>
   <time name="diis">    6.89    6.94</time>
   <time name="orth">    0.26    0.26</time>
   <time name="total">   10.07   10.14</time>
   <energy>
    <i name="e_fr_energy">   -230.24057246 </i>
    <i name="e_wo_entrp">   -230.20249115 </i>
    <i name="e_0_energy">   -230.22787869 </i>
   </energy>
  </scstep>
  <scstep>
   <time name="diag">    2.04    2.05</time>
   <time name="diis">    6.64    6.69</time>
   <time name="orth">    0.25    0.26</time>
   <time name="total">    9.79    9.87</time>
   <energy>
    <i name="e_fr_energy">   -230.10673488 </i>
    <i name="e_wo_entrp">   -230.07640433 </i>
    <i name="e_0_energy">   -230.09662470 </i>
   </energy>
  </scstep>
  <scstep>
   <time name="diag">    1.75    1.77</time>
   <time name="diis">    7.13    7.18</time>
   <time name="orth">    0.28    0.28</time>
   <time name="total">   10.05   10.13</time>
   <energy>
    <i name="e_fr_energy">   -230.11428401 </i>
    <i name="e_wo_entrp">   -230.09848325 </i>
    <i name="e_0_energy">   -230.10901709 </i>
   </energy>
  </scstep>
  <scstep>
   <time name="diag">    2.10    2.11</time>
   <time name="diis">    7.11    7.16</time>
   <time name="orth">    0.28    0.28</time>
   <time name="total">   10.46   10.53</time>
   <energy>
    <i name="e_fr_energy">   -230.05741076 </i>
    <i name="e_wo_entrp">   -230.04224673 </i>
    <i name="e_0_energy">   -230.05235608 </i>
   </energy>
  </scstep>
  <scstep>
   <time name="diag">    2.10    2.11</time>
   <time name="diis">    7.20    7.25</time>
   <time name="orth">    0.28    0.28</time>
   <time name="total">   10.51   10.58</time>
   <energy>
    <i name="e_fr_energy">   -230.05542235 </i>
    <i name="e_wo_entrp">   -230.04055069 </i>
    <i name="e_0_energy">   -230.05046513 </i>
   </energy>
  </scstep>
  <scstep>
   <time name="diag">    2.10    2.11</time>
   <time name="diis">    7.25    7.30</time>
   <time name="orth">    0.27    0.27</time>
   <time name="total">   10.59   10.66</time>
   <energy>
    <i name="e_fr_energy">   -230.05032194 </i>
    <i name="e_wo_entrp">   -230.03337369 </i>
    <i name="e_0_energy">   -230.04467252 </i>
   </energy>
  </scstep>
  <scstep>
   <time name="diag">    2.07    2.09</time>
   <time name="diis">    7.05    7.10</time>
   <time name="orth">    0.26    0.27</time>
   <time name="total">   10.32   10.39</time>
   <energy>
    <i name="e_fr_energy">   -230.04928493 </i>
    <i name="e_wo_entrp">   -230.03260660 </i>
    <i name="e_0_energy">   -230.04372548 </i>
   </energy>
  </scstep>
  <scstep>
   <time name="diag">    2.03    2.05</time>
   <time name="diis">    6.81    6.86</time>
   <time name="orth">    0.27    0.28</time>
   <time name="total">   10.06   10.13</time>
   <energy>
    <i name="e_fr_energy">   -230.04953062 </i>
    <i name="e_wo_entrp">   -230.03322004 </i>
    <i name="e_0_energy">   -230.04409376 </i>
   </energy>
  </scstep>
  <scstep>
   <time name="diag">    2.05    2.07</time>
   <time name="diis">    5.13    5.18</time>
   <time name="orth">    0.27    0.27</time>
   <time name="total">    7.63    7.71</time>
   <energy>
    <i name="alphaZ">    975.10247152 </i>
    <i name="ewald">  91627.66578349 </i>
    <i name="hartreedc">-120331.56152269 </i>
    <i name="XCdc">    178.36118646 </i>
    <i name="pawpsdc">  30152.92389957 </i>
    <i name="pawaedc"> -29239.34440376 </i>
    <i name="eentropy">     -0.01689224 </i>
    <i name="bandstr">   -853.07426217 </i>
    <i name="atom">  27259.89416086 </i>
    <i name="e_fr_energy">   -230.04957894 </i>
    <i name="e_wo_entrp">   -230.03268671 </i>
    <i name="e_0_energy">   -230.04394820 </i>
   </energy>
  </scstep>
  <structure>
   <crystal>
    <varray name="basis" >
     <v>       7.29695512      -4.21289900       0.00000000 </v>
     <v>       0.00000000       8.42579800       0.00000000 </v>
     <v>       0.00000000       0.00000000      21.87963500 </v>
    </varray>
    <i name="volume">   1345.21837528 </i>
    <varray name="rec_basis" >
     <v>       0.13704346       0.00000000       0.00000000 </v>
     <v>       0.06852173       0.11868312       0.00000000 </v>
     <v>       0.00000000       0.00000000       0.04570460 </v>
    </varray>
   </crystal>
   <varray name="positions" >
    <v>       0.70215740       0.43317844       0.47842573 </v>
    <v>       0.90837758       0.38256416       0.46861937 </v>
    <v>       0.67402085       0.46003432       0.52831426 </v>
    <v>       0.98675500       0.32859100       0.07437600 </v>
    <v>       0.32008800       0.32859100       0.07437600 </v>
    <v>       0.65342200       0.32859100       0.07437600 </v>
    <v>       0.98675500       0.66192500       0.07437600 </v>
    <v>       0.32008800       0.66192500       0.07437600 </v>
    <v>       0.65342200       0.66192500       0.07437600 </v>
    <v>       0.32008800       0.99525800       0.07437600 </v>
    <v>       0.65342200       0.99525800       0.07437600 </v>
    <v>       0.98675500       0.99525800       0.07437600 </v>
    <v>       0.20897700       0.10636900       0.17918600 </v>
    <v>       0.54231100       0.10636900       0.17918600 </v>
    <v>       0.87564400       0.10636900       0.17918600 </v>
    <v>       0.20897700       0.43970300       0.17918600 </v>
    <v>       0.54231100       0.43970300       0.17918600 </v>
    <v>       0.87564400       0.43970300       0.17918600 </v>
    <v>       0.20897700       0.77303600       0.17918600 </v>
    <v>       0.54231100       0.77303600       0.17918600 </v>
    <v>       0.87564400       0.77303600       0.17918600 </v>
    <v>       0.10142178       0.54910521       0.28011410 </v>
    <v>       0.43227824       0.88245401       0.28329696 </v>
    <v>       0.76843910       0.21584646       0.28653175 </v>
    <v>       0.09550197       0.21640978       0.28085085 </v>
    <v>       0.43501234       0.21776717       0.28474696 </v>
    <v>       0.09615180       0.88639787       0.28143482 </v>
    <v>       0.76114329       0.88117245       0.27904214 </v>
    <v>       0.42926473       0.55007557       0.27851742 </v>
    <v>       0.76630556       0.55373787       0.28600622 </v>
    <v>       0.32577078       0.66256092       0.38366971 </v>
    <v>       0.65457809       0.98825886       0.38459833 </v>
    <v>       0.32059092       0.32038883       0.38845076 </v>
    <v>       0.99084417       0.99362651       0.38368939 </v>
    <v>       0.32401636       0.98683573       0.38422555 </v>
    <v>       0.64353505       0.32794675       0.38957061 </v>
    <v>       0.99151776       0.67268168       0.38927788 </v>
    <v>       0.99041590       0.31873934       0.39582112 </v>
    <v>       0.65324930       0.66609168       0.38853745 </v>
   </varray>
  </structure>
  <varray name="forces" >
   <v>      -0.37761587      -1.28067451      -1.67503695 </v>
   <v>       0.46063214       0.27812080       0.29269735 </v>
   <v>       0.29525248      -0.00565754      -0.29222083 </v>
   <v>       0.02561336      -0.07625594       0.15214661 </v>
   <v>      -0.05541199      -0.05497915       0.15685200 </v>
   <v>      -0.01440558       0.00749975       0.19012994 </v>
   <v>      -0.00477826       0.08079852       0.11986168 </v>
   <v>       0.00641585       0.01030884       0.13006606 </v>
   <v>       0.04673592      -0.01518364       0.11901349 </v>
   <v>      -0.02808894      -0.02397488       0.08957079 </v>
   <v>       0.00674481       0.02709885       0.18356351 </v>
   <v>       0.01255993       0.00809824      -0.03404546 </v>
   <v>       0.16593068      -0.06213568      -0.30438479 </v>
   <v>       0.09518989       0.09497848       0.17271258 </v>
   <v>      -0.00065537       0.16700491      -0.38048805 </v>
   <v>      -0.15365152      -0.11894725      -0.72290861 </v>
   <v>       0.16700394      -0.23736880      -0.05807243 </v>
   <v>      -0.20979043       0.00781144       0.19489789 </v>
   <v>       0.03278633       0.16164577      -0.27567404 </v>
   <v>      -0.07621589       0.21736017      -0.63534346 </v>
   <v>       0.03152700      -0.14562914      -0.38518469 </v>
   <v>      -0.55081550       0.28551274       0.87115478 </v>
   <v>      -0.04157054       0.22775209      -0.83371852 </v>
   <v>      -0.09353657       0.57441715      -0.53904005 </v>
   <v>       0.13809713       0.32230838       0.81544675 </v>
   <v>       0.06329480       0.07588940      -0.55905686 </v>
   <v>       0.14110553      -0.61511377       0.03603451 </v>
   <v>       0.22010310      -0.10567992       0.69235993 </v>
   <v>       0.22161975      -0.46322711       1.07556442 </v>
   <v>       0.04285815      -0.34053033      -0.63254422 </v>
   <v>      -0.39353051      -0.35939894       0.31441866 </v>
   <v>       0.06802990       0.14921472       0.39452430 </v>
   <v>      -0.26249471       0.53992073      -0.47575547 </v>
   <v>      -0.18782921       0.16359668       0.38622866 </v>
   <v>      -0.23799672       0.36863907       0.53914369 </v>
   <v>       0.07043769       0.60146415       1.77573643 </v>
   <v>       0.17415149      -0.43990153      -0.43228698 </v>
   <v>       0.19865297       0.08389145      -0.12599159 </v>
   <v>       0.00364473      -0.10867418      -0.34037103 </v>
  </varray>
  <varray name="stress" >
   <v>     -40.66171263       0.89370294       0.78203077 </v>
   <v>       0.89370287     -42.35919595      -2.13280924 </v>
   <v>       0.78203073      -2.13280928      -3.86731247 </v>
  </varray>
  <energy>
   <i name="e_fr_energy">   -230.04957894 </i>
   <i name="e_wo_entrp">   -230.04394820 </i>
   <i name="e_0_energy">     -0.01689224 </i>
  </energy>
  <time name="totalsc">  228.49  230.61</time>
 </calculation>
 <calculation>
  <scstep>
   <time name="dav">   12.56   12.73</time>
   <time name="total">   13.53   13.75</time>
   <energy>
    <i name="alphaZ">    975.10247152 </i>
    <i name="ewald">  91564.13207070 </i>
    <i name="hartreedc">-120271.66122716 </i>
    <i name="XCdc">    178.24391914 </i>
    <i name="pawpsdc">  30153.30584693 </i>
    <i name="pawaedc"> -29239.70652765 </i>
    <i name="eentropy">     -0.01734199 </i>
    <i name="bandstr">   -849.56482548 </i>
    <i name="atom">  27259.89416086 </i>
    <i name="e_fr_energy">   -230.27145313 </i>
    <i name="e_wo_entrp">   -230.25411114 </i>
    <i name="e_0_energy">   -230.26567247 </i>
   </energy>
  </scstep>
  <scstep>
   <time name="diag">    2.09    2.11</time>
   <time name="diis">    6.98    7.06</time>
   <time name="orth">    0.28    0.28</time>
   <time name="total">   10.35   10.46</time>
   <energy>
    <i name="e_fr_energy">   -230.32701186 </i>
    <i name="e_wo_entrp">   -230.30155449 </i>
    <i name="e_0_energy">   -230.31852607 </i>
   </energy>
  </scstep>
  <scstep>
   <time name="diag">    2.04    2.06</time>
   <time name="diis">    7.25    7.33</time>
   <time name="orth">    0.28    0.28</time>
   <time name="total">   10.56   10.67</time>
   <energy>
    <i name="e_fr_energy">   -230.33802393 </i>
    <i name="e_wo_entrp">   -230.32878779 </i>
    <i name="e_0_energy">   -230.33494522 </i>
   </energy>
  </scstep>
  <scstep>
   <time name="diag">    2.10    2.12</time>
   <time name="diis">    7.13    7.21</time>
   <time name="orth">    0.28    0.29</time>
   <time name="total">   10.53   10.65</time>
   <energy>
    <i name="e_fr_energy">   -230.31629671 </i>
    <i name="e_wo_entrp">   -230.29703833 </i>
    <i name="e_0_energy">   -230.30987725 </i>
   </energy>
  </scstep>
  <scstep>
   <time name="diag">    2.08    2.10</time>
   <time name="diis">    7.03    7.11</time>
   <time name="orth">    0.28    0.28</time>
   <time name="total">   10.40   10.51</time>
   <energy>
    <i name="e_fr_energy">   -230.31288324 </i>
    <i name="e_wo_entrp">   -230.29171181 </i>
    <i name="e_0_energy">   -230.30582610 </i>
   </energy>
  </scstep>
  <scstep>
   <time name="diag">    2.12    2.14</time>
   <time name="diis">    7.01    7.09</time>
   <time name="orth">    0.28    0.28</time>
   <time name="total">   10.41   10.52</time>
   <energy>
    <i name="e_fr_energy">   -230.31280785 </i>
    <i name="e_wo_entrp">   -230.29756265 </i>
    <i name="e_0_energy">   -230.30772612 </i>
   </energy>
  </scstep>
  <scstep>
   <time name="diag">    2.13    2.16</time>
   <time name="diis">    6.97    7.05</time>
   <time name="orth">    0.27    0.28</time>
   <time name="total">   10.38   10.49</time>
   <energy>
    <i name="e_fr_energy">   -230.31106061 </i>
    <i name="e_wo_entrp">   -230.29031331 </i>
    <i name="e_0_energy">   -230.30414484 </i>
   </energy>
  </scstep>
  <scstep>
   <time name="diag">    2.01    2.03</time>
   <time name="diis">    6.99    7.05</time>
   <time name="orth">    0.28    0.28</time>
   <time name="total">   10.38   10.48</time>
   <energy>
    <i name="e_fr_energy">   -230.31051118 </i>
    <i name="e_wo_entrp">   -230.29219723 </i>
    <i name="e_0_energy">   -230.30440653 </i>
   </energy>
  </scstep>
  <scstep>
   <time name="diag">    1.87    1.88</time>
   <time name="diis">    5.32    5.37</time>
   <time name="orth">    0.27    0.28</time>
   <time name="total">    8.37    8.43</time>
   <energy>
    <i name="e_fr_energy">   -230.31039190 </i>
    <i name="e_wo_entrp">   -230.29118968 </i>
    <i name="e_0_energy">   -230.30399116 </i>
   </energy>
  </scstep>
  <scstep>
   <time name="diag">    2.06    2.08</time>
   <time name="diis">    4.19    4.23</time>
   <time name="orth">    0.27    0.27</time>
   <time name="total">    6.71    6.76</time>
   <energy>
    <i name="alphaZ">    975.10247152 </i>
    <i name="ewald">  91564.13207070 </i>
    <i name="hartreedc">-120265.27984355 </i>
    <i name="XCdc">    178.17704582 </i>
    <i name="pawpsdc">  30129.38836266 </i>
    <i name="pawaedc"> -29215.67192900 </i>
    <i name="eentropy">     -0.01917019 </i>
    <i name="bandstr">   -856.03356004 </i>
    <i name="atom">  27259.89416086 </i>
    <i name="e_fr_energy">   -230.31039122 </i>
    <i name="e_wo_entrp">   -230.29122103 </i>
    <i name="e_0_energy">   -230.30400116 </i>
   </energy>
  </scstep>
  <structure>
   <crystal>
    <varray name="basis" >
     <v>       7.29695512      -4.21289900       0.00000000 </v>
     <v>       0.00000000       8.42579800       0.00000000 </v>
     <v>       0.00000000       0.00000000      21.87963500 </v>
    </varray>
    <i name="volume">   1345.21837528 </i>
    <varray name="rec_basis" >
     <v>       0.13704346       0.00000000       0.00000000 </v>
     <v>       0.06852173       0.11868312       0.00000000 </v>
     <v>       0.00000000       0.00000000       0.04570460 </v>
    </varray>
   </crystal>
   <varray name="positions" >
    <v>       0.70115878       0.42974609       0.47694841 </v>
    <v>       0.90959574       0.38381020       0.46887752 </v>
    <v>       0.67480166       0.46041177       0.52805653 </v>
    <v>       0.98675500       0.32859100       0.07437600 </v>
    <v>       0.32008800       0.32859100       0.07437600 </v>
    <v>       0.65342200       0.32859100       0.07437600 </v>
    <v>       0.98675500       0.66192500       0.07437600 </v>
    <v>       0.32008800       0.66192500       0.07437600 </v>
    <v>       0.65342200       0.66192500       0.07437600 </v>
    <v>       0.32008800       0.99525800       0.07437600 </v>
    <v>       0.65342200       0.99525800       0.07437600 </v>
    <v>       0.98675500       0.99525800       0.07437600 </v>
    <v>       0.20897700       0.10636900       0.17918600 </v>
    <v>       0.54231100       0.10636900       0.17918600 </v>
    <v>       0.87564400       0.10636900       0.17918600 </v>
    <v>       0.20897700       0.43970300       0.17918600 </v>
    <v>       0.54231100       0.43970300       0.17918600 </v>
    <v>       0.87564400       0.43970300       0.17918600 </v>
    <v>       0.20897700       0.77303600       0.17918600 </v>
    <v>       0.54231100       0.77303600       0.17918600 </v>
    <v>       0.87564400       0.77303600       0.17918600 </v>
    <v>       0.09996513       0.54903078       0.28088243 </v>
    <v>       0.43216831       0.88292065       0.28256165 </v>
    <v>       0.76819174       0.21703833       0.28605634 </v>
    <v>       0.09586717       0.21733054       0.28157004 </v>
    <v>       0.43517972       0.21802467       0.28425390 </v>
    <v>       0.09652496       0.88517570       0.28146660 </v>
    <v>       0.76172536       0.88122146       0.27965277 </v>
    <v>       0.42985081       0.54930771       0.27946603 </v>
    <v>       0.76641890       0.55301465       0.28544834 </v>
    <v>       0.32473007       0.66121746       0.38394702 </v>
    <v>       0.65475800       0.98869055       0.38494629 </v>
    <v>       0.31989674       0.32127829       0.38803116 </v>
    <v>       0.99034745       0.99375282       0.38403003 </v>
    <v>       0.32338697       0.98736530       0.38470106 </v>
    <v>       0.64372132       0.32941739       0.39113675 </v>
    <v>       0.99197831       0.67190448       0.38889662 </v>
    <v>       0.99094125       0.31919415       0.39571000 </v>
    <v>       0.65325894       0.66584760       0.38823726 </v>
   </varray>
  </structure>
  <varray name="forces" >
   <v>      -0.60651480      -0.51098639       1.11334666 </v>
   <v>       0.40010831       0.32200387       0.24439321 </v>
   <v>       0.65473487      -0.76159183      -2.68056755 </v>
   <v>       0.02436735      -0.07220237       0.15188205 </v>
   <v>      -0.05450214      -0.05550113       0.15234888 </v>
   <v>      -0.01850276      -0.00191830       0.17928111 </v>
   <v>       0.00218063       0.07476141       0.12657339 </v>
   <v>       0.00168499       0.01218550       0.13274695 </v>
   <v>       0.04014119      -0.00893213       0.13134531 </v>
   <v>      -0.02033868      -0.02381104       0.07266290 </v>
   <v>       0.00448997       0.03125294       0.16410232 </v>
   <v>       0.01388867       0.01204597      -0.02218661 </v>
   <v>       0.11015114      -0.03740770      -0.28017535 </v>
   <v>       0.10478034       0.10085639       0.09006211 </v>
   <v>       0.02805662       0.12124542      -0.31931533 </v>
   <v>      -0.12494214      -0.09112902      -0.55518819 </v>
   <v>       0.13785102      -0.18828250      -0.06515751 </v>
   <v>      -0.16796273       0.00178358       0.16281221 </v>
   <v>       0.00283610       0.11569681      -0.29485582 </v>
   <v>      -0.05413819       0.14330628      -0.54075643 </v>
   <v>       0.03613243      -0.10038825      -0.38242766 </v>
   <v>      -0.38068725       0.17659037       0.68076473 </v>
   <v>      -0.02204945       0.14192897      -0.49186987 </v>
   <v>      -0.14156810       0.43379759      -0.34278157 </v>
   <v>       0.06743525       0.25515372       0.62857168 </v>
   <v>       0.05000152       0.02458620      -0.32051265 </v>
   <v>       0.12269078      -0.41523603       0.06529336 </v>
   <v>       0.18179786      -0.03840263       0.54731109 </v>
   <v>       0.15680210      -0.29192970       0.82449694 </v>
   <v>       0.00237168      -0.29677431      -0.47686166 </v>
   <v>      -0.27452615      -0.18070063       0.24653186 </v>
   <v>      -0.01463266       0.20049458       0.24876741 </v>
   <v>      -0.18122775       0.38921799      -0.38784427 </v>
   <v>      -0.15410141       0.08410577       0.36898428 </v>
   <v>      -0.13439031       0.30490684       0.37325809 </v>
   <v>      -0.05056558       0.43088913       1.23843476 </v>
   <v>       0.14300590      -0.35815680      -0.37054689 </v>
   <v>       0.08725975       0.10866392      -0.10161311 </v>
   <v>       0.02788164      -0.05212244      -0.31131085 </v>
  </varray>
  <varray name="stress" >
   <v>     -41.69061759       1.10926221       1.59193306 </v>
   <v>       1.10926219     -43.79469424      -2.98152438 </v>
   <v>       1.59193305      -2.98152438      -7.50731425 </v>
  </varray>
  <energy>
   <i name="e_fr_energy">   -230.31039122 </i>
   <i name="e_wo_entrp">   -230.30400116 </i>
   <i name="e_0_energy">     -0.01917019 </i>
  </energy>
  <time name="totalsc">  118.43  120.12</time>
 </calculation>
 <calculation>
  <scstep>
   <time name="dav">   12.39   12.50</time>
   <time name="total">   13.50   13.73</time>
   <energy>
    <i name="alphaZ">    975.10247152 </i>
    <i name="ewald">  91560.82532343 </i>
    <i name="hartreedc">-120258.40649667 </i>
    <i name="XCdc">    178.30376153 </i>
    <i name="pawpsdc">  30129.32218699 </i>
    <i name="pawaedc"> -29215.60553918 </i>
    <i name="eentropy">     -0.01949019 </i>
    <i name="bandstr">   -859.80666610 </i>
    <i name="atom">  27259.89416086 </i>
    <i name="e_fr_energy">   -230.39028781 </i>
    <i name="e_wo_entrp">   -230.37079762 </i>
    <i name="e_0_energy">   -230.38379108 </i>
   </energy>
  </scstep>
  <scstep>
   <time name="diag">    2.08    2.09</time>
   <time name="diis">    7.16    7.22</time>
   <time name="orth">    0.28    0.28</time>
   <time name="total">   10.50   10.58</time>
   <energy>
    <i name="e_fr_energy">   -230.42330928 </i>
    <i name="e_wo_entrp">   -230.40124417 </i>
    <i name="e_0_energy">   -230.41595424 </i>
   </energy>
  </scstep>
  <scstep>
   <time name="diag">    2.02    2.03</time>
   <time name="diis">    7.03    7.08</time>
   <time name="orth">    0.27    0.28</time>
   <time name="total">   10.29   10.36</time>
   <energy>
    <i name="e_fr_energy">   -230.42062179 </i>
    <i name="e_wo_entrp">   -230.40563701 </i>
    <i name="e_0_energy">   -230.41562686 </i>
   </energy>
  </scstep>
  <scstep>
   <time name="diag">    2.02    2.03</time>
   <time name="diis">    7.24    7.29</time>
   <time name="orth">    0.28    0.28</time>
   <time name="total">   10.55   10.62</time>
   <energy>
    <i name="e_fr_energy">   -230.41834080 </i>
    <i name="e_wo_entrp">   -230.39663241 </i>
    <i name="e_0_energy">   -230.41110467 </i>
   </energy>
  </scstep>
  <scstep>
   <time name="diag">    2.05    2.07</time>
   <time name="diis">    7.20    7.25</time>
   <time name="orth">    0.28    0.28</time>
   <time name="total">   10.50   10.58</time>
   <energy>
    <i name="e_fr_energy">   -230.41743913 </i>
    <i name="e_wo_entrp">   -230.39571619 </i>
    <i name="e_0_energy">   -230.41019815 </i>
   </energy>
  </scstep>
  <scstep>
   <time name="diag">    2.09    2.11</time>
   <time name="diis">    6.94    6.99</time>
   <time name="orth">    0.27    0.27</time>
   <time name="total">   10.25   10.32</time>
   <energy>
    <i name="e_fr_energy">   -230.41618939 </i>
    <i name="e_wo_entrp">   -230.39853153 </i>
    <i name="e_0_energy">   -230.41030344 </i>
   </energy>
  </scstep>
  <scstep>
   <time name="diag">    2.02    2.04</time>
   <time name="diis">    6.97    7.02</time>
   <time name="orth">    0.27    0.27</time>
   <time name="total">   10.25   10.32</time>
   <energy>
    <i name="e_fr_energy">   -230.41505959 </i>
    <i name="e_wo_entrp">   -230.39457938 </i>
    <i name="e_0_energy">   -230.40823285 </i>
   </energy>
  </scstep>
  <scstep>
   <time name="diag">    2.02    2.04</time>
   <time name="diis">    5.38    5.41</time>
   <time name="orth">    0.27    0.27</time>
   <time name="total">    8.57    8.63</time>
   <energy>
    <i name="e_fr_energy">   -230.41488419 </i>
    <i name="e_wo_entrp">   -230.39560154 </i>
    <i name="e_0_energy">   -230.40845664 </i>
   </energy>
  </scstep>
  <scstep>
   <time name="diag">    1.99    2.00</time>
   <time name="diis">    4.26    4.29</time>
   <time name="orth">    0.27    0.28</time>
   <time name="total">    6.71    6.76</time>
   <energy>
    <i name="alphaZ">    975.10247152 </i>
    <i name="ewald">  91560.82532343 </i>
    <i name="hartreedc">-120265.52440332 </i>
    <i name="XCdc">    178.40369125 </i>
    <i name="pawpsdc">  30134.04378300 </i>
    <i name="pawaedc"> -29220.33101860 </i>
    <i name="eentropy">     -0.01971366 </i>
    <i name="bandstr">   -852.80909727 </i>
    <i name="atom">  27259.89416086 </i>
    <i name="e_fr_energy">   -230.41480279 </i>
    <i name="e_wo_entrp">   -230.39508913 </i>
    <i name="e_0_energy">   -230.40823157 </i>
   </energy>
  </scstep>
  <structure>
   <crystal>
    <varray name="basis" >
     <v>       7.29695512      -4.21289900       0.00000000 </v>
     <v>       0.00000000       8.42579800       0.00000000 </v>
     <v>       0.00000000       0.00000000      21.87963500 </v>
    </varray>
    <i name="volume">   1345.21837528 </i>
    <varray name="rec_basis" >
     <v>       0.13704346       0.00000000       0.00000000 </v>
     <v>       0.06852173       0.11868312       0.00000000 </v>
     <v>       0.00000000       0.00000000       0.04570460 </v>
    </varray>
   </crystal>
   <varray name="positions" >
    <v>       0.70032478       0.42872058       0.47745898 </v>
    <v>       0.91014592       0.38446875       0.46898960 </v>
    <v>       0.67570197       0.45995498       0.52682725 </v>
    <v>       0.98675500       0.32859100       0.07437600 </v>
    <v>       0.32008800       0.32859100       0.07437600 </v>
    <v>       0.65342200       0.32859100       0.07437600 </v>
    <v>       0.98675500       0.66192500       0.07437600 </v>
    <v>       0.32008800       0.66192500       0.07437600 </v>
    <v>       0.65342200       0.66192500       0.07437600 </v>
    <v>       0.32008800       0.99525800       0.07437600 </v>
    <v>       0.65342200       0.99525800       0.07437600 </v>
    <v>       0.98675500       0.99525800       0.07437600 </v>
    <v>       0.20897700       0.10636900       0.17918600 </v>
    <v>       0.54231100       0.10636900       0.17918600 </v>
    <v>       0.87564400       0.10636900       0.17918600 </v>
    <v>       0.20897700       0.43970300       0.17918600 </v>
    <v>       0.54231100       0.43970300       0.17918600 </v>
    <v>       0.87564400       0.43970300       0.17918600 </v>
    <v>       0.20897700       0.77303600       0.17918600 </v>
    <v>       0.54231100       0.77303600       0.17918600 </v>
    <v>       0.87564400       0.77303600       0.17918600 </v>
    <v>       0.09944166       0.54897933       0.28119462 </v>
    <v>       0.43213799       0.88307451       0.28233609 </v>
    <v>       0.76799707       0.21745758       0.28589914 </v>
    <v>       0.09595990       0.21768076       0.28185830 </v>
    <v>       0.43524848       0.21808833       0.28410691 </v>
    <v>       0.09669367       0.88476557       0.28149655 </v>
    <v>       0.76197535       0.88130072       0.27990376 </v>
    <v>       0.43006643       0.54906787       0.27984414 </v>
    <v>       0.76642216       0.55266286       0.28522965 </v>
    <v>       0.32435258       0.66081353       0.38406008 </v>
    <v>       0.65473788       0.98891925       0.38506037 </v>
    <v>       0.31964754       0.32161719       0.38785330 </v>
    <v>       0.99013555       0.99374703       0.38419925 </v>
    <v>       0.32320217       0.98763600       0.38487223 </v>
    <v>       0.64365179       0.32989574       0.39170468 </v>
    <v>       0.99217495       0.67157629       0.38872669 </v>
    <v>       0.99106124       0.31938354       0.39566340 </v>
    <v>       0.65329728       0.66580470       0.38809449 </v>
   </varray>
  </structure>
  <varray name="forces" >
   <v>      -0.17635182      -1.50010361      -2.01257415 </v>
   <v>       0.47427475       0.23970153       0.14913737 </v>
   <v>       0.11702503       0.30915990       0.58807717 </v>
   <v>       0.02319717      -0.07214687       0.15300469 </v>
   <v>      -0.05482009      -0.05618746       0.15678430 </v>
   <v>      -0.02152274      -0.00435648       0.17427896 </v>
   <v>       0.00273414       0.07285241       0.12566039 </v>
   <v>      -0.00159767       0.01028763       0.13347500 </v>
   <v>       0.03758319      -0.00887009       0.13513733 </v>
   <v>      -0.01846011      -0.02159868       0.06296588 </v>
   <v>       0.00625023       0.03282108       0.15476007 </v>
   <v>       0.01499447       0.01468970      -0.01506247 </v>
   <v>       0.09251982      -0.02632349      -0.26153988 </v>
   <v>       0.10577180       0.10311429       0.05933090 </v>
   <v>       0.03971349       0.10779803      -0.28964215 </v>
   <v>      -0.11570384      -0.08186207      -0.49105978 </v>
   <v>       0.12460118      -0.16957395      -0.06731067 </v>
   <v>      -0.15097907      -0.00124745       0.15075619 </v>
   <v>      -0.00881842       0.09811405      -0.29660019 </v>
   <v>      -0.04610501       0.11605081      -0.50196720 </v>
   <v>       0.03734253      -0.08370000      -0.37605292 </v>
   <v>      -0.31949730       0.14197660       0.60402442 </v>
   <v>      -0.01334100       0.11592651      -0.38085681 </v>
   <v>      -0.14683225       0.37241161      -0.28168112 </v>
   <v>       0.04096724       0.22512523       0.55294340 </v>
   <v>       0.04451567       0.00833243      -0.25459177 </v>
   <v>       0.11197143      -0.35043601       0.07776559 </v>
   <v>       0.17315650      -0.01407438       0.48417883 </v>
   <v>       0.13462978      -0.23617719       0.72073952 </v>
   <v>      -0.00967233      -0.26155831      -0.42467806 </v>
   <v>      -0.23461272      -0.12247495       0.22975039 </v>
   <v>      -0.03592404       0.21054931       0.21058361 </v>
   <v>      -0.15023927       0.34256791      -0.34623172 </v>
   <v>      -0.14002537       0.05408634       0.35999199 </v>
   <v>      -0.11211881       0.28629198       0.33023983 </v>
   <v>      -0.05628119       0.38491807       1.11642129 </v>
   <v>       0.13498286      -0.32856482      -0.36315190 </v>
   <v>       0.05732594       0.12111138      -0.04922426 </v>
   <v>       0.03934582      -0.02863097      -0.31778208 </v>
  </varray>
  <varray name="stress" >
   <v>     -41.80279774       0.75550076       0.81633492 </v>
   <v>       0.75550069     -43.63754791      -1.56689206 </v>
   <v>       0.81633484      -1.56689204      -3.38718375 </v>
  </varray>
  <energy>
   <i name="e_fr_energy">   -230.41480279 </i>
   <i name="e_wo_entrp">   -230.40823157 </i>
   <i name="e_0_energy">     -0.01971366 </i>
  </energy>
  <time name="totalsc">  107.75  109.12</time>
 </calculation>
 <calculation>
  <scstep>
   <time name="dav">   12.29   12.40</time>
   <time name="total">   13.25   13.39</time>
   <energy>
    <i name="alphaZ">    975.10247152 </i>
    <i name="ewald">  91457.93999028 </i>
    <i name="hartreedc">-120163.46396852 </i>
    <i name="XCdc">    178.43362080 </i>
    <i name="pawpsdc">  30133.93976855 </i>
    <i name="pawaedc"> -29220.22835687 </i>
    <i name="eentropy">     -0.01906112 </i>
    <i name="bandstr">   -852.08879088 </i>
    <i name="atom">  27259.89416086 </i>
    <i name="e_fr_energy">   -230.49016537 </i>
    <i name="e_wo_entrp">   -230.47110425 </i>
    <i name="e_0_energy">   -230.48381166 </i>
   </energy>
  </scstep>
  <scstep>
   <time name="diag">    2.04    2.05</time>
   <time name="diis">    7.02    7.07</time>
   <time name="orth">    0.27    0.27</time>
   <time name="total">   10.22   10.30</time>
   <energy>
    <i name="e_fr_energy">   -230.74909808 </i>
    <i name="e_wo_entrp">   -230.72066360 </i>
    <i name="e_0_energy">   -230.73961992 </i>
   </energy>
  </scstep>
  <scstep>
   <time name="diag">    2.00    2.02</time>
   <time name="diis">    6.96    7.01</time>
   <time name="orth">    0.27    0.27</time>
   <time name="total">   10.15   10.22</time>
   <energy>
    <i name="e_fr_energy">   -230.73779410 </i>
    <i name="e_wo_entrp">   -230.72703294 </i>
    <i name="e_0_energy">   -230.73420704 </i>
   </energy>
  </scstep>
  <scstep>
   <time name="diag">    2.00    2.01</time>
   <time name="diis">    7.05    7.10</time>
   <time name="orth">    0.27    0.27</time>
   <time name="total">   10.23   10.30</time>
   <energy>
    <i name="e_fr_energy">   -230.71817330 </i>
    <i name="e_wo_entrp">   -230.68606688 </i>
    <i name="e_0_energy">   -230.70747116 </i>
   </energy>
  </scstep>
  <scstep>
   <time name="diag">    2.01    2.03</time>
   <time name="diis">    6.98    7.03</time>
   <time name="orth">    0.27    0.27</time>
   <time name="total">   10.20   10.27</time>
   <energy>
    <i name="e_fr_energy">   -230.73263386 </i>
    <i name="e_wo_entrp">   -230.71713261 </i>
    <i name="e_0_energy">   -230.72746678 </i>
   </energy>
  </scstep>
  <scstep>
   <time name="diag">    2.04    2.06</time>
   <time name="diis">    6.92    6.97</time>
   <time name="orth">    0.27    0.27</time>
   <time name="total">   10.19   10.26</time>
   <energy>
    <i name="e_fr_energy">   -230.71385766 </i>
    <i name="e_wo_entrp">   -230.69527880 </i>
    <i name="e_0_energy">   -230.70766471 </i>
   </energy>
  </scstep>
  <scstep>
   <time name="diag">    2.00    2.01</time>
   <time name="diis">    6.85    6.90</time>
   <time name="orth">    0.27    0.27</time>
   <time name="total">   10.16   10.23</time>
   <energy>
    <i name="e_fr_energy">   -230.70763406 </i>
    <i name="e_wo_entrp">   -230.68060539 </i>
    <i name="e_0_energy">   -230.69862450 </i>
   </energy>
  </scstep>
  <scstep>
   <time name="diag">    2.04    2.06</time>
   <time name="diis">    6.61    6.66</time>
   <time name="orth">    0.26    0.26</time>
   <time name="total">    9.73    9.80</time>
   <energy>
    <i name="e_fr_energy">   -230.70352291 </i>
    <i name="e_wo_entrp">   -230.68286650 </i>
    <i name="e_0_energy">   -230.69663744 </i>
   </energy>
  </scstep>
  <scstep>
   <time name="diag">    1.78    1.85</time>
   <time name="diis">    6.01    6.28</time>
   <time name="orth">    0.26    0.26</time>
   <time name="total">    8.98    9.32</time>
   <energy>
    <i name="e_fr_energy">   -230.70247280 </i>
    <i name="e_wo_entrp">   -230.67935998 </i>
    <i name="e_0_energy">   -230.69476853 </i>
   </energy>
  </scstep>
  <scstep>
   <time name="diag">    1.87    1.88</time>
   <time name="diis">    6.01    6.05</time>
   <time name="orth">    0.27    0.27</time>
   <time name="total">    9.03    9.10</time>
   <energy>
    <i name="e_fr_energy">   -230.70224215 </i>
    <i name="e_wo_entrp">   -230.67928455 </i>
    <i name="e_0_energy">   -230.69458962 </i>
   </energy>
  </scstep>
  <scstep>
   <time name="diag">    1.99    2.01</time>
   <time name="diis">    4.12    4.15</time>
   <time name="orth">    0.26    0.26</time>
   <time name="total">    6.56    6.61</time>
   <energy>
    <i name="alphaZ">    975.10247152 </i>
    <i name="ewald">  91457.93999028 </i>
    <i name="hartreedc">-120154.63604381 </i>
    <i name="XCdc">    178.42107304 </i>
    <i name="pawpsdc">  30136.18754138 </i>
    <i name="pawaedc"> -29222.58342981 </i>
    <i name="eentropy">     -0.02254642 </i>
    <i name="bandstr">   -861.00545273 </i>
    <i name="atom">  27259.89416086 </i>
    <i name="e_fr_energy">   -230.70223567 </i>
    <i name="e_wo_entrp">   -230.67968925 </i>
    <i name="e_0_energy">   -230.69472020 </i>
   </energy>
  </scstep>
  <structure>
   <crystal>
    <varray name="basis" >
     <v>       7.29695512      -4.21289900       0.00000000 </v>
     <v>       0.00000000       8.42579800       0.00000000 </v>
     <v>       0.00000000       0.00000000      21.87963500 </v>
    </varray>
    <i name="volume">   1345.21837528 </i>
    <varray name="rec_basis" >
     <v>       0.13704346       0.00000000       0.00000000 </v>
     <v>       0.06852173       0.11868312       0.00000000 </v>
     <v>       0.00000000       0.00000000       0.04570460 </v>
    </varray>
   </crystal>
   <varray name="positions" >
    <v>       0.69736507       0.41903622       0.47524677 </v>
    <v>       0.91394702       0.38838347       0.46952182 </v>
    <v>       0.67851817       0.46051778       0.52482015 </v>
    <v>       0.98675500       0.32859100       0.07437600 </v>
    <v>       0.32008800       0.32859100       0.07437600 </v>
    <v>       0.65342200       0.32859100       0.07437600 </v>
    <v>       0.98675500       0.66192500       0.07437600 </v>
    <v>       0.32008800       0.66192500       0.07437600 </v>
    <v>       0.65342200       0.66192500       0.07437600 </v>
    <v>       0.32008800       0.99525800       0.07437600 </v>
    <v>       0.65342200       0.99525800       0.07437600 </v>
    <v>       0.98675500       0.99525800       0.07437600 </v>
    <v>       0.20897700       0.10636900       0.17918600 </v>
    <v>       0.54231100       0.10636900       0.17918600 </v>
    <v>       0.87564400       0.10636900       0.17918600 </v>
    <v>       0.20897700       0.43970300       0.17918600 </v>
    <v>       0.54231100       0.43970300       0.17918600 </v>
    <v>       0.87564400       0.43970300       0.17918600 </v>
    <v>       0.20897700       0.77303600       0.17918600 </v>
    <v>       0.54231100       0.77303600       0.17918600 </v>
    <v>       0.87564400       0.77303600       0.17918600 </v>
    <v>       0.09650553       0.54866293       0.28300199 </v>
    <v>       0.43199460       0.88393655       0.28112593 </v>
    <v>       0.76676049       0.21977410       0.28502777 </v>
    <v>       0.09639929       0.21965385       0.28351888 </v>
    <v>       0.43564730       0.21839694       0.28330729 </v>
    <v>       0.09768643       0.88247974       0.28170405 </v>
    <v>       0.76348379       0.88187964       0.28135435 </v>
    <v>       0.43129145       0.54776996       0.28201447 </v>
    <v>       0.76638022       0.55060377       0.28396092 </v>
    <v>       0.32221348       0.65866753       0.38473356 </v>
    <v>       0.65450291       0.99033006       0.38570336 </v>
    <v>       0.31825939       0.32359402       0.38681998 </v>
    <v>       0.98889178       0.99361312       0.38523502 </v>
    <v>       0.32216912       0.98929202       0.38586158 </v>
    <v>       0.64319030       0.33264724       0.39502292 </v>
    <v>       0.99335519       0.66964901       0.38768371 </v>
    <v>       0.99165208       0.32053857       0.39546413 </v>
    <v>       0.65359468       0.66567286       0.38719640 </v>
   </varray>
  </structure>
  <varray name="forces" >
   <v>       0.06903697      -0.39927951       1.41796376 </v>
   <v>       0.42637506       0.23620820       0.00639998 </v>
   <v>       0.22812425      -0.25551975      -0.82821895 </v>
   <v>       0.01780151      -0.05926180       0.15150790 </v>
   <v>      -0.04984454      -0.05458746       0.15256119 </v>
   <v>      -0.03368474      -0.02088471       0.15381862 </v>
   <v>       0.01604251       0.06125488       0.13587685 </v>
   <v>      -0.01121490       0.01769543       0.14623966 </v>
   <v>       0.02109374       0.00250345       0.16388126 </v>
   <v>      -0.00222191      -0.02357805       0.03266752 </v>
   <v>       0.00091201       0.04035182       0.12119728 </v>
   <v>       0.01648016       0.01979110       0.01979268 </v>
   <v>      -0.01241880       0.02588081      -0.18651804 </v>
   <v>       0.10971761       0.10947355      -0.10982039 </v>
   <v>       0.09164599       0.02757352      -0.13890151 </v>
   <v>      -0.06605880      -0.03643683      -0.14694857 </v>
   <v>       0.05187175      -0.06733836      -0.07825371 </v>
   <v>      -0.05573302      -0.01866933       0.07547017 </v>
   <v>      -0.06750614       0.01303617      -0.31061762 </v>
   <v>       0.00442090      -0.02110544      -0.30276347 </v>
   <v>       0.05147499       0.01710596      -0.34636079 </v>
   <v>       0.00973783      -0.08831905       0.12843121 </v>
   <v>       0.03439672      -0.04933761       0.15020451 </v>
   <v>      -0.14115758       0.01799314       0.03227219 </v>
   <v>      -0.10692254       0.07192248       0.10830637 </v>
   <v>      -0.04321544      -0.04866446       0.08088611 </v>
   <v>       0.05440319       0.02348674       0.07999379 </v>
   <v>       0.09256986       0.10358059       0.10252976 </v>
   <v>       0.03094126       0.07530167       0.09211485 </v>
   <v>      -0.08446262      -0.08093645      -0.09627148 </v>
   <v>       0.01041702       0.18187763       0.15789184 </v>
   <v>      -0.13703138       0.25160439       0.01048110 </v>
   <v>      -0.01049290       0.02238848      -0.05972783 </v>
   <v>      -0.05653287      -0.06205658       0.29493062 </v>
   <v>       0.01597348       0.17352587       0.08166736 </v>
   <v>      -0.45471318      -0.25698969      -0.93303239 </v>
   <v>       0.02915830      -0.12825461      -0.17833909 </v>
   <v>      -0.15252409       0.11630478       0.02808924 </v>
   <v>       0.10314034       0.06235904      -0.20940199 </v>
  </varray>
  <varray name="stress" >
   <v>     -42.56205997       0.90170796       1.95859902 </v>
   <v>       0.90170802     -44.85363878      -1.18638257 </v>
   <v>       1.95859899      -1.18638248      -2.82181348 </v>
  </varray>
  <energy>
   <i name="e_fr_energy">   -230.70223567 </i>
   <i name="e_wo_entrp">   -230.69472020 </i>
   <i name="e_0_energy">     -0.02254642 </i>
  </energy>
  <time name="totalsc">  124.87  126.36</time>
 </calculation>
 <calculation>
  <scstep>
   <time name="dav">   11.91   12.03</time>
   <time name="total">   12.85   13.09</time>
   <energy>
    <i name="alphaZ">    975.10247152 </i>
    <i name="ewald">  91481.17631358 </i>
    <i name="hartreedc">-120177.64352428 </i>
    <i name="XCdc">    178.40421588 </i>
    <i name="pawpsdc">  30135.96838961 </i>
    <i name="pawaedc"> -29222.36600967 </i>
    <i name="eentropy">     -0.02185655 </i>
    <i name="bandstr">   -861.23134209 </i>
    <i name="atom">  27259.89416086 </i>
    <i name="e_fr_energy">   -230.71718113 </i>
    <i name="e_wo_entrp">   -230.69532458 </i>
    <i name="e_0_energy">   -230.70989561 </i>
   </energy>
  </scstep>
  <scstep>
   <time name="diag">    1.99    2.01</time>
   <time name="diis">    6.84    6.89</time>
   <time name="orth">    0.27    0.27</time>
   <time name="total">    9.95   10.03</time>
   <energy>
    <i name="e_fr_energy">   -230.72748546 </i>
    <i name="e_wo_entrp">   -230.70953821 </i>
    <i name="e_0_energy">   -230.72150304 </i>
   </energy>
  </scstep>
  <scstep>
   <time name="diag">    1.89    1.90</time>
   <time name="diis">    6.56    6.61</time>
   <time name="orth">    0.26    0.27</time>
   <time name="total">    9.64    9.71</time>
   <energy>
    <i name="e_fr_energy">   -230.72878361 </i>
    <i name="e_wo_entrp">   -230.70207748 </i>
    <i name="e_0_energy">   -230.71988157 </i>
   </energy>
  </scstep>
  <scstep>
   <time name="diag">    1.95    1.97</time>
   <time name="diis">    6.97    7.04</time>
   <time name="orth">    0.27    0.27</time>
   <time name="total">   10.10   10.20</time>
   <energy>
    <i name="e_fr_energy">   -230.72713817 </i>
    <i name="e_wo_entrp">   -230.70693631 </i>
    <i name="e_0_energy">   -230.72040421 </i>
   </energy>
  </scstep>
  <scstep>
   <time name="diag">    1.97    1.98</time>
   <time name="diis">    6.86    6.92</time>
   <time name="orth">    0.28    0.28</time>
   <time name="total">   10.04   10.12</time>
   <energy>
    <i name="e_fr_energy">   -230.72604832 </i>
    <i name="e_wo_entrp">   -230.70663853 </i>
    <i name="e_0_energy">   -230.71957839 </i>
   </energy>
  </scstep>
  <scstep>
   <time name="diag">    1.98    1.99</time>
   <time name="diis">    6.47    6.52</time>
   <time name="orth">    0.28    0.28</time>
   <time name="total">    9.61    9.68</time>
   <energy>
    <i name="e_fr_energy">   -230.72579724 </i>
    <i name="e_wo_entrp">   -230.70380650 </i>
    <i name="e_0_energy">   -230.71846699 </i>
   </energy>
  </scstep>
  <scstep>
   <time name="diag">    2.03    2.04</time>
   <time name="diis">    6.69    6.74</time>
   <time name="orth">    0.27    0.27</time>
   <time name="total">    9.81    9.88</time>
   <energy>
    <i name="e_fr_energy">   -230.72570857 </i>
    <i name="e_wo_entrp">   -230.70491432 </i>
    <i name="e_0_energy">   -230.71877715 </i>
   </energy>
  </scstep>
  <scstep>
   <time name="diag">    2.01    2.02</time>
   <time name="diis">    4.44    4.47</time>
   <time name="orth">    0.27    0.27</time>
   <time name="total">    7.66    7.71</time>
   <energy>
    <i name="e_fr_energy">   -230.72555112 </i>
    <i name="e_wo_entrp">   -230.70466437 </i>
    <i name="e_0_energy">   -230.71858887 </i>
   </energy>
  </scstep>
  <scstep>
   <time name="diag">    2.03    2.05</time>
   <time name="diis">    4.11    4.14</time>
   <time name="orth">    0.27    0.27</time>
   <time name="total">    6.60    6.64</time>
   <energy>
    <i name="alphaZ">    975.10247152 </i>
    <i name="ewald">  91481.17631358 </i>
    <i name="hartreedc">-120179.95299651 </i>
    <i name="XCdc">    178.40809350 </i>
    <i name="pawpsdc">  30129.60823617 </i>
    <i name="pawaedc"> -29215.95207588 </i>
    <i name="eentropy">     -0.02082814 </i>
    <i name="bandstr">   -858.98890375 </i>
    <i name="atom">  27259.89416086 </i>
    <i name="e_fr_energy">   -230.72552864 </i>
    <i name="e_wo_entrp">   -230.70470050 </i>
    <i name="e_0_energy">   -230.71858593 </i>
   </energy>
  </scstep>
  <structure>
   <crystal>
    <varray name="basis" >
     <v>       7.29695512      -4.21289900       0.00000000 </v>
     <v>       0.00000000       8.42579800       0.00000000 </v>
     <v>       0.00000000       0.00000000      21.87963500 </v>
    </varray>
    <i name="volume">   1345.21837528 </i>
    <varray name="rec_basis" >
     <v>       0.13704346       0.00000000       0.00000000 </v>
     <v>       0.06852173       0.11868312       0.00000000 </v>
     <v>       0.00000000       0.00000000       0.04570460 </v>
    </varray>
   </crystal>
   <varray name="positions" >
    <v>       0.69811314       0.41954938       0.47596257 </v>
    <v>       0.91422843       0.38858302       0.46943516 </v>
    <v>       0.67829247       0.46054002       0.52509399 </v>
    <v>       0.98675500       0.32859100       0.07437600 </v>
    <v>       0.32008800       0.32859100       0.07437600 </v>
    <v>       0.65342200       0.32859100       0.07437600 </v>
    <v>       0.98675500       0.66192500       0.07437600 </v>
    <v>       0.32008800       0.66192500       0.07437600 </v>
    <v>       0.65342200       0.66192500       0.07437600 </v>
    <v>       0.32008800       0.99525800       0.07437600 </v>
    <v>       0.65342200       0.99525800       0.07437600 </v>
    <v>       0.98675500       0.99525800       0.07437600 </v>
    <v>       0.20897700       0.10636900       0.17918600 </v>
    <v>       0.54231100       0.10636900       0.17918600 </v>
    <v>       0.87564400       0.10636900       0.17918600 </v>
    <v>       0.20897700       0.43970300       0.17918600 </v>
    <v>       0.54231100       0.43970300       0.17918600 </v>
    <v>       0.87564400       0.43970300       0.17918600 </v>
    <v>       0.20897700       0.77303600       0.17918600 </v>
    <v>       0.54231100       0.77303600       0.17918600 </v>
    <v>       0.87564400       0.77303600       0.17918600 </v>
    <v>       0.09697128       0.54857561       0.28281137 </v>
    <v>       0.43208287       0.88375767       0.28140875 </v>
    <v>       0.76667304       0.21931545       0.28518161 </v>
    <v>       0.09612607       0.21937023       0.28333697 </v>
    <v>       0.43550764       0.21822689       0.28348168 </v>
    <v>       0.09764052       0.88291787       0.28172578 </v>
    <v>       0.76343590       0.88205676       0.28120079 </v>
    <v>       0.43116358       0.54812214       0.28174539 </v>
    <v>       0.76622405       0.55070098       0.28409069 </v>
    <v>       0.32255683       0.65930827       0.38473239 </v>
    <v>       0.65427261       0.99040456       0.38561211 </v>
    <v>       0.31845253       0.32332629       0.38693709 </v>
    <v>       0.98897116       0.99347148       0.38526802 </v>
    <v>       0.32235660       0.98934655       0.38576411 </v>
    <v>       0.64241034       0.33140001       0.39395291 </v>
    <v>       0.99323690       0.66975543       0.38772361 </v>
    <v>       0.99127106       0.32041693       0.39551799 </v>
    <v>       0.65374870       0.66589944       0.38719426 </v>
   </varray>
  </structure>
  <varray name="forces" >
   <v>       0.05011310      -0.84286024       0.04807626 </v>
   <v>       0.39025049       0.29492145       0.09220135 </v>
   <v>       0.16348071      -0.04280585      -0.23001468 </v>
   <v>       0.01547911      -0.05981575       0.14878598 </v>
   <v>      -0.04939281      -0.05789429       0.14756467 </v>
   <v>      -0.03138323      -0.01972653       0.15598407 </v>
   <v>       0.01396603       0.06419701       0.13780378 </v>
   <v>      -0.00944883       0.02010184       0.14210595 </v>
   <v>       0.02491463       0.00031423       0.15721921 </v>
   <v>      -0.00452758      -0.02613450       0.04094833 </v>
   <v>      -0.00041638       0.04016788       0.12840793 </v>
   <v>       0.01375822       0.01633571       0.01418819 </v>
   <v>       0.00189932       0.01720127      -0.18574553 </v>
   <v>       0.10295665       0.10371268      -0.07966368 </v>
   <v>       0.08348414       0.04021398      -0.14850262 </v>
   <v>      -0.07043127      -0.04160571      -0.18287162 </v>
   <v>       0.05642822      -0.08193764      -0.07158296 </v>
   <v>      -0.06707147      -0.01811194       0.09033308 </v>
   <v>      -0.05650455       0.02282172      -0.29439293 </v>
   <v>      -0.00117895       0.00005852      -0.32119377 </v>
   <v>       0.05150004       0.00163311      -0.33848176 </v>
   <v>      -0.03973246      -0.04394994       0.18300401 </v>
   <v>       0.01476647      -0.01616605       0.04479903 </v>
   <v>      -0.11752506       0.06619514      -0.04469048 </v>
   <v>      -0.07092646       0.08566598       0.18052300 </v>
   <v>      -0.04940853      -0.03169887      -0.00055902 </v>
   <v>       0.04891950      -0.03645308       0.07509740 </v>
   <v>       0.10306821       0.07546914       0.14734927 </v>
   <v>       0.03607677       0.02299986       0.18405003 </v>
   <v>      -0.05415824      -0.09058446      -0.14812162 </v>
   <v>      -0.02418412       0.12011296       0.16104075 </v>
   <v>      -0.10465908       0.21976118       0.05069417 </v>
   <v>      -0.05494359       0.09404884      -0.10597478 </v>
   <v>      -0.06757934      -0.02760336       0.28711412 </v>
   <v>      -0.03556278       0.17156245       0.12919903 </v>
   <v>      -0.24771546      -0.02483602      -0.16418306 </v>
   <v>       0.03069905      -0.15691810      -0.19517322 </v>
   <v>      -0.12305501       0.10464339      -0.01853774 </v>
   <v>       0.07804454       0.03696398      -0.21680017 </v>
  </varray>
  <varray name="stress" >
   <v>     -42.55752840       0.90571371       1.61805069 </v>
   <v>       0.90571366     -44.77778539      -1.24884725 </v>
   <v>       1.61805061      -1.24884721      -3.19429545 </v>
  </varray>
  <energy>
   <i name="e_fr_energy">   -230.72552864 </i>
   <i name="e_wo_entrp">   -230.71858593 </i>
   <i name="e_0_energy">     -0.02082814 </i>
  </energy>
  <time name="totalsc">  103.03  104.20</time>
 </calculation>
 <calculation>
  <scstep>
