metal                                   
           1
     7.296955   -4.212899    0.000000
     0.000000    8.425798    0.000000
     0.000000    0.000000   21.879635
   C    O    Pt
   1   2  36
Direct configuration=     1
   0.70215740  0.43317844  0.47842573
   0.90837758  0.38256416  0.46861937
   0.67402085  0.46003432  0.52831426
   0.98675500  0.32859100  0.07437600
   0.32008800  0.32859100  0.07437600
   0.65342200  0.32859100  0.07437600
   0.98675500  0.66192500  0.07437600
   0.32008800  0.66192500  0.07437600
   0.65342200  0.66192500  0.07437600
   0.32008800  0.99525800  0.07437600
   0.65342200  0.99525800  0.07437600
   0.98675500  0.99525800  0.07437600
   0.20897700  0.10636900  0.17918600
   0.54231100  0.10636900  0.17918600
   0.87564400  0.10636900  0.17918600
   0.20897700  0.43970300  0.17918600
   0.54231100  0.43970300  0.17918600
   0.87564400  0.43970300  0.17918600
   0.20897700  0.77303600  0.17918600
   0.54231100  0.77303600  0.17918600
   0.87564400  0.77303600  0.17918600
   0.10142178  0.54910521  0.28011410
   0.43227824  0.88245401  0.28329696
   0.76843910  0.21584646  0.28653175
   0.09550197  0.21640978  0.28085085
   0.43501234  0.21776717  0.28474696
   0.09615180  0.88639787  0.28143482
   0.76114329  0.88117245  0.27904214
   0.42926473  0.55007557  0.27851742
   0.76630556  0.55373787  0.28600622
   0.32577078  0.66256092  0.38366971
   0.65457809  0.98825886  0.38459833
   0.32059092  0.32038883  0.38845076
   0.99084417  0.99362651  0.38368939
   0.32401636  0.98683573  0.38422555
   0.64353505  0.32794675  0.38957061
   0.99151776  0.67268168  0.38927788
   0.99041590  0.31873934  0.39582112
   0.65324930  0.66609168  0.38853745
Direct configuration=     2
   0.70115878  0.42974609  0.47694841
   0.90959574  0.38381020  0.46887752
   0.67480166  0.46041177  0.52805653
   0.98675500  0.32859100  0.07437600
   0.32008800  0.32859100  0.07437600
   0.65342200  0.32859100  0.07437600
   0.98675500  0.66192500  0.07437600
   0.32008800  0.66192500  0.07437600
   0.65342200  0.66192500  0.07437600
   0.32008800  0.99525800  0.07437600
   0.65342200  0.99525800  0.07437600
   0.98675500  0.99525800  0.07437600
   0.20897700  0.10636900  0.17918600
   0.54231100  0.10636900  0.17918600
   0.87564400  0.10636900  0.17918600
   0.20897700  0.43970300  0.17918600
   0.54231100  0.43970300  0.17918600
   0.87564400  0.43970300  0.17918600
   0.20897700  0.77303600  0.17918600
   0.54231100  0.77303600  0.17918600
   0.87564400  0.77303600  0.17918600
   0.09996513  0.54903078  0.28088243
   0.43216831  0.88292065  0.28256165
   0.76819174  0.21703833  0.28605634
   0.09586717  0.21733054  0.28157004
   0.43517972  0.21802467  0.28425390
   0.09652496  0.88517570  0.28146660
   0.76172536  0.88122146  0.27965277
   0.42985081  0.54930771  0.27946603
   0.76641890  0.55301465  0.28544834
   0.32473007  0.66121746  0.38394702
   0.65475800  0.98869055  0.38494629
   0.31989674  0.32127829  0.38803116
   0.99034745  0.99375282  0.38403003
   0.32338697  0.98736530  0.38470106
   0.64372132  0.32941739  0.39113675
   0.99197831  0.67190448  0.38889662
   0.99094125  0.31919415  0.39571000
   0.65325894  0.66584760  0.38823726
Direct configuration=     3
   0.70032478  0.42872058  0.47745898
   0.91014592  0.38446875  0.46898960
   0.67570197  0.45995498  0.52682725
   0.98675500  0.32859100  0.07437600
   0.32008800  0.32859100  0.07437600
   0.65342200  0.32859100  0.07437600
   0.98675500  0.66192500  0.07437600
   0.32008800  0.66192500  0.07437600
   0.65342200  0.66192500  0.07437600
   0.32008800  0.99525800  0.07437600
   0.65342200  0.99525800  0.07437600
   0.98675500  0.99525800  0.07437600
   0.20897700  0.10636900  0.17918600
   0.54231100  0.10636900  0.17918600
   0.87564400  0.10636900  0.17918600
   0.20897700  0.43970300  0.17918600
   0.54231100  0.43970300  0.17918600
   0.87564400  0.43970300  0.17918600
   0.20897700  0.77303600  0.17918600
   0.54231100  0.77303600  0.17918600
   0.87564400  0.77303600  0.17918600
   0.09944166  0.54897933  0.28119462
   0.43213799  0.88307451  0.28233609
   0.76799707  0.21745758  0.28589914
   0.09595990  0.21768076  0.28185830
   0.43524848  0.21808833  0.28410691
   0.09669367  0.88476557  0.28149655
   0.76197535  0.88130072  0.27990376
   0.43006643  0.54906787  0.27984414
   0.76642216  0.55266286  0.28522965
   0.32435258  0.66081353  0.38406008
   0.65473788  0.98891925  0.38506037
   0.31964754  0.32161719  0.38785330
   0.99013555  0.99374703  0.38419925
   0.32320217  0.98763600  0.38487223
   0.64365179  0.32989574  0.39170468
   0.99217495  0.67157629  0.38872669
   0.99106124  0.31938354  0.39566340
   0.65329728  0.66580470  0.38809449
Direct configuration=     4
   0.69736507  0.41903622  0.47524677
   0.91394702  0.38838347  0.46952182
   0.67851817  0.46051778  0.52482015
   0.98675500  0.32859100  0.07437600
   0.32008800  0.32859100  0.07437600
   0.65342200  0.32859100  0.07437600
   0.98675500  0.66192500  0.07437600
   0.32008800  0.66192500  0.07437600
   0.65342200  0.66192500  0.07437600
   0.32008800  0.99525800  0.07437600
   0.65342200  0.99525800  0.07437600
   0.98675500  0.99525800  0.07437600
   0.20897700  0.10636900  0.17918600
   0.54231100  0.10636900  0.17918600
   0.87564400  0.10636900  0.17918600
   0.20897700  0.43970300  0.17918600
   0.54231100  0.43970300  0.17918600
   0.87564400  0.43970300  0.17918600
   0.20897700  0.77303600  0.17918600
   0.54231100  0.77303600  0.17918600
   0.87564400  0.77303600  0.17918600
   0.09650553  0.54866293  0.28300199
   0.43199460  0.88393655  0.28112593
   0.76676049  0.21977410  0.28502777
   0.09639929  0.21965385  0.28351888
   0.43564730  0.21839694  0.28330729
   0.09768643  0.88247974  0.28170405
   0.76348379  0.88187964  0.28135435
   0.43129145  0.54776996  0.28201447
   0.76638022  0.55060377  0.28396092
   0.32221348  0.65866753  0.38473356
   0.65450291  0.99033006  0.38570336
   0.31825939  0.32359402  0.38681998
   0.98889178  0.99361312  0.38523502
   0.32216912  0.98929202  0.38586158
   0.64319030  0.33264724  0.39502292
   0.99335519  0.66964901  0.38768371
   0.99165208  0.32053857  0.39546413
   0.65359468  0.66567286  0.38719640
Direct configuration=     5
   0.69811314  0.41954938  0.47596257
   0.91422843  0.38858302  0.46943516
   0.67829247  0.46054002  0.52509399
   0.98675500  0.32859100  0.07437600
   0.32008800  0.32859100  0.07437600
   0.65342200  0.32859100  0.07437600
   0.98675500  0.66192500  0.07437600
   0.32008800  0.66192500  0.07437600
   0.65342200  0.66192500  0.07437600
   0.32008800  0.99525800  0.07437600
   0.65342200  0.99525800  0.07437600
   0.98675500  0.99525800  0.07437600
   0.20897700  0.10636900  0.17918600
   0.54231100  0.10636900  0.17918600
   0.87564400  0.10636900  0.17918600
   0.20897700  0.43970300  0.17918600
   0.54231100  0.43970300  0.17918600
   0.87564400  0.43970300  0.17918600
   0.20897700  0.77303600  0.17918600
   0.54231100  0.77303600  0.17918600
   0.87564400  0.77303600  0.17918600
   0.09697128  0.54857561  0.28281137
   0.43208287  0.88375767  0.28140875
   0.76667304  0.21931545  0.28518161
   0.09612607  0.21937023  0.28333697
   0.43550764  0.21822689  0.28348168
   0.09764052  0.88291787  0.28172578
   0.76343590  0.88205676  0.28120079
   0.43116358  0.54812214  0.28174539
   0.76622405  0.55070098  0.28409069
   0.32255683  0.65930827  0.38473239
   0.65427261  0.99040456  0.38561211
   0.31845253  0.32332629  0.38693709
   0.98897116  0.99347148  0.38526802
   0.32235660  0.98934655  0.38576411
   0.64241034  0.33140001  0.39395291
   0.99323690  0.66975543  0.38772361
   0.99127106  0.32041693  0.39551799
   0.65374870  0.66589944  0.38719426
