 vasp.5.4.4 16052018 (build Apr 24 2014 20:13:14) complex standard
 Contain Constrained Minimization Technique (TS), Periodic NBO, VASPsol, libbeef, VASP2WANNIER90, Constrained Cell Relaxation
 executed on Center for Computational Chemistry by phu@node06 date 2025.09.27 23:37:34
 running on    8 total cores
 distrk:  each k-point on    8 cores,    1 groups
 distr:  one band on NCORES_PER_BAND=   2 cores,    4 groups


--------------------------------------------------------------------------------------------------------


 INCAR:
 POTCAR:   PAW_PBE C 08Apr2002                    
 POTCAR:   PAW_PBE O 08Apr2002                    
 POTCAR:    PAW_PBE Pt 04Feb2005                  
 POTCAR:   PAW_PBE C 08Apr2002                    
   VRHFIN =C: s2p2                                                              
   LEXCH  = PE                                                                  
   EATOM  =   147.1560 eV,   10.8157 Ry                                         
                                                                                
   TITEL  = PAW_PBE C 08Apr2002                                                 
   LULTRA =        F    use ultrasoft PP ?                                      
   IUNSCR =        0    unscreen: 0-lin 1-nonlin 2-no                           
   RPACOR =     .000    partial core radius                                     
   POMASS =   12.011; ZVAL   =    4.000    mass and valenz                      
   RCORE  =    1.500    outmost cutoff radius                                   
   RWIGS  =    1.630; RWIGS  =     .863    wigner-seitz radius (au A)           
   ENMAX  =  400.000; ENMIN  =  300.000 eV                                      
   ICORE  =        2    local potential                                         
   LCOR   =        T    correct aug charges                                     
   LPAW   =        T    paw PP                                                  
   EAUG   =  644.873                                                            
   DEXC   =     .000                                                            
   RMAX   =    2.266    core radius for proj-oper                               
   RAUG   =    1.300    factor for augmentation sphere                          
   RDEP   =    1.501    radius for radial grids                                 
   RDEPT  =    1.300    core radius for aug-charge                              
   QCUT   =   -5.516; QGAM   =   11.032    optimization parameters              
                                                                                
   Description                                                                  
     l     E      TYP  RCUT    TYP  RCUT                                        
     0   .000     23  1.200                                                     
     0   .000     23  1.200                                                     
     1   .000     23  1.500                                                     
     1  2.500     23  1.500                                                     
     2   .000      7  1.500                                                     
  local pseudopotential read in
  atomic valenz-charges read in
  non local Contribution for L=           0  read in
    real space projection operators read in
  non local Contribution for L=           0  read in
    real space projection operators read in
  non local Contribution for L=           1  read in
    real space projection operators read in
  non local Contribution for L=           1  read in
    real space projection operators read in
    PAW grid and wavefunctions read in
 
   number of l-projection  operators is LMAX  =           4
   number of lm-projection operators is LMMAX =           8
 
 POTCAR:   PAW_PBE O 08Apr2002                    
   VRHFIN =O: s2p4                                                              
   LEXCH  = PE                                                                  
   EATOM  =   432.3788 eV,   31.7789 Ry                                         
                                                                                
   TITEL  = PAW_PBE O 08Apr2002                                                 
   LULTRA =        F    use ultrasoft PP ?                                      
   IUNSCR =        0    unscreen: 0-lin 1-nonlin 2-no                           
   RPACOR =     .000    partial core radius                                     
   POMASS =   16.000; ZVAL   =    6.000    mass and valenz                      
   RCORE  =    1.520    outmost cutoff radius                                   
   RWIGS  =    1.550; RWIGS  =     .820    wigner-seitz radius (au A)           
   ENMAX  =  400.000; ENMIN  =  300.000 eV                                      
   ICORE  =        2    local potential                                         
   LCOR   =        T    correct aug charges                                     
   LPAW   =        T    paw PP                                                  
   EAUG   =  605.392                                                            
   DEXC   =     .000                                                            
   RMAX   =    2.264    core radius for proj-oper                               
   RAUG   =    1.300    factor for augmentation sphere                          
   RDEP   =    1.550    radius for radial grids                                 
   QCUT   =   -5.520; QGAM   =   11.041    optimization parameters              
                                                                                
   Description                                                                  
     l     E      TYP  RCUT    TYP  RCUT                                        
     0   .000     23  1.200                                                     
     0  -.700     23  1.200                                                     
     1   .000     23  1.520                                                     
     1   .600     23  1.520                                                     
     2   .000      7  1.500                                                     
  local pseudopotential read in
  atomic valenz-charges read in
  non local Contribution for L=           0  read in
    real space projection operators read in
  non local Contribution for L=           0  read in
    real space projection operators read in
  non local Contribution for L=           1  read in
    real space projection operators read in
  non local Contribution for L=           1  read in
    real space projection operators read in
    PAW grid and wavefunctions read in
 
   number of l-projection  operators is LMAX  =           4
   number of lm-projection operators is LMMAX =           8
 
 POTCAR:    PAW_PBE Pt 04Feb2005                  
   VRHFIN =Pt: s1d9                                                             
   LEXCH  = PE                                                                  
   EATOM  =   729.1182 eV,   53.5887 Ry                                         
                                                                                
   TITEL  = PAW_PBE Pt 04Feb2005                                                
   LULTRA =        F    use ultrasoft PP ?                                      
   IUNSCR =        1    unscreen: 0-lin 1-nonlin 2-no                           
   RPACOR =    2.330    partial core radius                                     
   POMASS =  195.080; ZVAL   =   10.000    mass and valenz                      
   RCORE  =    2.600    outmost cutoff radius                                   
   RWIGS  =    2.750; RWIGS  =    1.455    wigner-seitz radius (au A)           
   ENMAX  =  230.283; ENMIN  =  172.712 eV                                      
   ICORE  =        3    local potential                                         
   LCOR   =        T    correct aug charges                                     
   LPAW   =        T    paw PP                                                  
   EAUG   =  358.966                                                            
   DEXC   =     .000                                                            
   RMAX   =    3.038    core radius for proj-oper                               
   RAUG   =    1.300    factor for augmentation sphere                          
   RDEP   =    2.761    radius for radial grids                                 
   QCUT   =   -4.114; QGAM   =    8.228    optimization parameters              
                                                                                
   Description                                                                  
     l     E      TYP  RCUT    TYP  RCUT                                        
     2   .000     23  2.500                                                     
     2   .000     23  2.500                                                     
     0   .000     23  2.500                                                     
     0   .000     23  2.500                                                     
     1  -.200     23  2.600                                                     
     1  1.500     23  2.600                                                     
     3   .000     23  2.500                                                     
  local pseudopotential read in
  partial core-charges read in
  atomic valenz-charges read in
  non local Contribution for L=           2  read in
    real space projection operators read in
  non local Contribution for L=           2  read in
    real space projection operators read in
  non local Contribution for L=           0  read in
    real space projection operators read in
  non local Contribution for L=           0  read in
    real space projection operators read in
  non local Contribution for L=           1  read in
    real space projection operators read in
  non local Contribution for L=           1  read in
    real space projection operators read in
    PAW grid and wavefunctions read in
 
   number of l-projection  operators is LMAX  =           6
   number of lm-projection operators is LMMAX =          18
 
 Optimization of the real space projectors (new method)

 maximal supplied QI-value         = 25.13
 optimisation between [QCUT,QGAM] = [ 10.81, 21.61] = [ 32.71,130.83] Ry 
 Optimized for a Real-space Cutoff    1.23 Angstroem

   l    n(q)    QCUT    max X(q) W(low)/X(q) W(high)/X(q)  e(spline) 
   0      8    10.807     5.582    0.53E-04    0.84E-04    0.44E-07
   0      8    10.807    69.432    0.35E-03    0.71E-03    0.24E-06
   1      7    10.807     2.780    0.44E-04    0.88E-04    0.89E-07
   1      7    10.807     4.549    0.14E-03    0.28E-03    0.13E-06
 Optimization of the real space projectors (new method)

 maximal supplied QI-value         = 24.76
 optimisation between [QCUT,QGAM] = [ 10.64, 21.54] = [ 31.73,129.89] Ry 
 Optimized for a Real-space Cutoff    1.23 Angstroem

   l    n(q)    QCUT    max X(q) W(low)/X(q) W(high)/X(q)  e(spline) 
   0      8    10.645     4.192    0.69E-04    0.93E-04    0.58E-07
   0      8    10.645     8.473    0.40E-03    0.65E-03    0.17E-06
   1      7    10.645     2.474    0.80E-04    0.12E-03    0.30E-07
   1      7    10.645     3.912    0.24E-03    0.53E-03    0.16E-06
 Optimization of the real space projectors (new method)

 maximal supplied QI-value         = 14.36
 optimisation between [QCUT,QGAM] = [ 10.77, 21.69] = [ 32.49,131.70] Ry 
 Optimized for a Real-space Cutoff    1.46 Angstroem

   l    n(q)    QCUT    max X(q) W(low)/X(q) W(high)/X(q)  e(spline) 
   2      9    10.771     3.903    0.38E-04    0.12E-03    0.82E-07
   2      9    10.771    18.372    0.13E-03    0.32E-03    0.28E-06
   0     10    10.771    13.697    0.11E-04    0.86E-05    0.85E-08
   0     10    10.771    65.529    0.40E-04    0.12E-03    0.14E-06
   1      9    10.771     7.604    0.48E-04    0.31E-04    0.38E-07
   1      9    10.771    12.136    0.35E-03    0.16E-03    0.23E-06
 PAW_PBE C 08Apr2002                    :
 energy of atom  1       EATOM= -147.1560
 kinetic energy error for atom=    0.0116 (will be added to EATOM!!)
 PAW_PBE O 08Apr2002                    :
 energy of atom  2       EATOM= -432.3788
 kinetic energy error for atom=    0.0389 (will be added to EATOM!!)
  PAW_PBE Pt 04Feb2005                  :
 energy of atom  3       EATOM= -729.1182
 kinetic energy error for atom=    0.0051 (will be added to EATOM!!)
 
 
 POSCAR: C    O    Pt                            
  positions in direct lattice
  No initial velocities read in
 exchange correlation table for  LEXCH =        8
   RHO(1)=    0.500       N(1)  =     2000
   RHO(2)=  100.500       N(2)  =     4000

 VTST: version 3.2, (02/03/18)

 CHAIN: initializing optimizer
 
 OPT: Using VASP QUASI-newton optimizer
 CHAIN: Read ICHAIN            0
 
 POSCAR: C    O    Pt                            
  positions in direct lattice
  No initial velocities read in
 


--------------------------------------------------------------------------------------------------------


 ion  position               nearest neighbor table
   1  0.697  0.436  0.477-   3 1.16   2 2.01  36 2.05
   2  0.905  0.387  0.462-  38 1.86   1 2.01  36 2.55  37 2.62
   3  0.669  0.463  0.526-   1 1.16
   4  0.987  0.329  0.074-  15 2.81  16 2.81  12 2.81   5 2.81  11 2.81   6 2.81  18 2.81   8 2.81
                             7 2.81
   5  0.320  0.329  0.074-  13 2.81  10 2.81   4 2.81  12 2.81  16 2.81  17 2.81   8 2.81   9 2.81
                             6 2.81
   6  0.653  0.329  0.074-  14 2.81  18 2.81  11 2.81   4 2.81  17 2.81   7 2.81  10 2.81   9 2.81
                             5 2.81
   7  0.987  0.662  0.074-  18 2.81  21 2.81  19 2.81  12 2.81   8 2.81  10 2.81   9 2.81   6 2.81
                             4 2.81
   8  0.320  0.662  0.074-  16 2.81  19 2.81  10 2.81   7 2.81  20 2.81   4 2.81  11 2.81   5 2.81
                             9 2.81
   9  0.653  0.662  0.074-  17 2.81  20 2.81  21 2.81  11 2.81  12 2.81   7 2.81   6 2.81   5 2.81
                             8 2.81
  10  0.320  0.995  0.074-  13 2.81  19 2.81   5 2.81   8 2.81  12 2.81   7 2.81  14 2.81   6 2.81
                            11 2.81
  11  0.653  0.995  0.074-  14 2.81  20 2.81  15 2.81   9 2.81   6 2.81  12 2.81   4 2.81   8 2.81
                            10 2.81
  12  0.987  0.995  0.074-  15 2.81  21 2.81  13 2.81   7 2.81   4 2.81  10 2.81   5 2.81  11 2.81
                             9 2.81
  13  0.209  0.106  0.179-   5 2.81  10 2.81  12 2.81  19 2.81  15 2.81  21 2.81  16 2.81  14 2.81
                            17 2.81  25 2.82  27 2.84  26 2.89
  14  0.542  0.106  0.179-  24 2.75  23 2.75   6 2.81  11 2.81  20 2.81  15 2.81  10 2.81  18 2.81
                            19 2.81  17 2.81  13 2.81  26 2.86
  15  0.876  0.106  0.179-  24 2.80  12 2.81   4 2.81  11 2.81  21 2.81  13 2.81  14 2.81  20 2.81
                            16 2.81  18 2.81  25 2.82  28 2.84
  16  0.209  0.440  0.179-  22 2.68  29 2.80   8 2.81   4 2.81  19 2.81  18 2.81   5 2.81  15 2.81
                            20 2.81  13 2.81  17 2.81  25 2.84
  17  0.542  0.440  0.179-  29 2.80   9 2.81  20 2.81  21 2.81  18 2.81   6 2.81   5 2.81  14 2.81
                            13 2.81  16 2.81  26 2.86  30 2.86
  18  0.876  0.440  0.179-  22 2.72  24 2.77   7 2.81   6 2.81  21 2.81  19 2.81  16 2.81  17 2.81
                             4 2.81  14 2.81  15 2.81  30 2.88
  19  0.209  0.773  0.179-  22 2.73  23 2.74   8 2.81  10 2.81   7 2.81  16 2.81  13 2.81  18 2.81
                            21 2.81  14 2.81  20 2.81  27 2.84
  20  0.542  0.773  0.179-  29 2.79  23 2.79   9 2.81  11 2.81  17 2.81  14 2.81  15 2.81  21 2.81
                             8 2.81  16 2.81  19 2.81  28 2.82
  21  0.876  0.773  0.179-   7 2.81  12 2.81   9 2.81  18 2.81  15 2.81  19 2.81  13 2.81  17 2.81
                            20 2.81  27 2.83  30 2.85  28 2.86
  22  0.100  0.546  0.278-  16 2.68  18 2.72  19 2.73  29 2.77  25 2.79  23 2.81  24 2.82  27 2.86
                            30 2.87  37 2.88  31 2.89  38 3.01
  23  0.426  0.886  0.281-  19 2.74  14 2.75  26 2.77  27 2.77  20 2.79  35 2.80  24 2.80  22 2.81
                            28 2.82  29 2.84  31 2.84  32 2.86
  24  0.759  0.218  0.282-  26 2.74  14 2.75  18 2.77  15 2.80  23 2.80  28 2.81  30 2.82  22 2.82
                            25 2.85  32 2.87  36 2.89  38 3.02
  25  0.096  0.214  0.285-  27 2.78  22 2.79  28 2.80  15 2.82  13 2.82  29 2.84  38 2.84  26 2.84
                            16 2.84  24 2.85  33 2.85  34 2.85
  26  0.436  0.220  0.287-  36 2.71  24 2.74  35 2.76  33 2.77  23 2.77  30 2.79  29 2.82  25 2.84
                            27 2.85  14 2.86  17 2.86  13 2.89
  27  0.096  0.883  0.286-  37 2.75  23 2.77  25 2.78  30 2.79  35 2.81  34 2.82  21 2.83  28 2.84
                            13 2.84  19 2.84  26 2.85  22 2.86
  28  0.760  0.885  0.286-  32 2.74  39 2.74  29 2.79  25 2.80  30 2.80  24 2.81  23 2.82  20 2.82
                            27 2.84  15 2.84  21 2.86  34 2.87
  29  0.432  0.552  0.283-  31 2.72  22 2.77  28 2.79  20 2.79  30 2.79  39 2.79  17 2.80  16 2.80
                            26 2.82  23 2.84  25 2.84  33 2.88
  30  0.764  0.554  0.287-  39 2.73  27 2.79  26 2.79  29 2.79  37 2.80  28 2.80  24 2.82  36 2.83
                            21 2.85  17 2.86  22 2.87  18 2.88
  31  0.329  0.657  0.386-  39 2.69  29 2.72  32 2.75  33 2.78  38 2.80  37 2.81  23 2.84  35 2.86
                            22 2.89
  32  0.649  0.988  0.389-  39 2.73  28 2.74  31 2.75  35 2.75  34 2.84  23 2.86  36 2.86  24 2.87
                            38 2.89
  33  0.323  0.325  0.391-  36 2.68  38 2.74  26 2.77  31 2.78  35 2.79  34 2.81  39 2.83  25 2.85
                            29 2.88
  34  0.988  0.992  0.392-  38 2.77  39 2.79  37 2.81  33 2.81  27 2.82  35 2.84  32 2.84  25 2.85
                            28 2.87
  35  0.326  0.994  0.388-  36 2.71  32 2.75  26 2.76  37 2.77  33 2.79  23 2.80  27 2.81  34 2.84
                            31 2.86
  36  0.640  0.323  0.391-   1 2.05   2 2.55  33 2.68  26 2.71  35 2.71  30 2.83  39 2.84  32 2.86
                            24 2.89  37 2.95  38 3.01
  37  0.999  0.665  0.388-   2 2.62  27 2.75  35 2.77  30 2.80  34 2.81  31 2.81  38 2.86  22 2.88
                            39 2.92  36 2.95
  38  0.998  0.325  0.395-   2 1.86  33 2.74  34 2.77  31 2.80  25 2.84  37 2.86  32 2.89  36 3.01
                            22 3.01  24 3.02
  39  0.653  0.665  0.387-  31 2.69  30 2.73  32 2.73  28 2.74  29 2.79  34 2.79  33 2.83  36 2.84
                            37 2.92
 

IMPORTANT INFORMATION: All symmetrisations will be switched off!
NOSYMM: (Re-)initialisation of all symmetry stuff for point group C_1.

 
 
 KPOINTS: mesh auto                               

Automatic generation of k-mesh.
Space group operators:
 irot       det(A)        alpha          n_x          n_y          n_z        tau_x        tau_y        tau_z
    1     1.000000     0.000000     1.000000     0.000000     0.000000     0.000000     0.000000     0.000000
 
 Subroutine IBZKPT returns following result:
 ===========================================
 
 Found      4 irreducible k-points:
 
 Following reciprocal coordinates:
            Coordinates               Weight
  0.000000  0.000000  0.000000      1.000000
  0.500000  0.000000  0.000000      1.000000
 -0.000000  0.500000  0.000000      1.000000
  0.500000  0.500000  0.000000      1.000000
 
 Following cartesian coordinates:
            Coordinates               Weight
  0.000000  0.000000  0.000000      1.000000
  0.068522  0.000000  0.000000      1.000000
  0.034261  0.059342  0.000000      1.000000
  0.102783  0.059342  0.000000      1.000000
 


--------------------------------------------------------------------------------------------------------




 Dimension of arrays:
   k-points           NKPTS =      4   k-points in BZ     NKDIM =      4   number of bands    NBANDS=    228
   number of dos      NEDOS =    301   number of ions     NIONS =     39
   non local maximal  LDIM  =      6   non local SUM 2l+1 LMDIM =     18
   total plane-waves  NPLWV = 276480
   max r-space proj   IRMAX =   2756   max aug-charges    IRDMAX=  12646
   dimension x,y,z NGX =    48 NGY =   48 NGZ =  120
   dimension x,y,z NGXF=    96 NGYF=   96 NGZF=  240
   support grid    NGXF=    96 NGYF=   96 NGZF=  240
   ions per type =               1   2  36
   NGX,Y,Z   is equivalent  to a cutoff of   9.47,  9.47,  9.12 a.u.
   NGXF,Y,Z  is equivalent  to a cutoff of  18.94, 18.94, 18.24 a.u.

 SYSTEM =  metal                                   
 POSCAR =  C    O    Pt                            

 Startparameter for this run:
   NWRITE =      2    write-flag & timer
   PREC   = normal    normal or accurate (medium, high low for compatibility)
   ISTART =      0    job   : 0-new  1-cont  2-samecut
   ICHARG =      2    charge: 1-file 2-atom 10-const
   ISPIN  =      1    spin polarized calculation?
   LNONCOLLINEAR =      F non collinear calculations
   LSORBIT =      F    spin-orbit coupling
   INIWAV =      1    electr: 0-lowe 1-rand  2-diag
   LASPH  =      F    aspherical Exc in radial PAW
   METAGGA=      F    non-selfconsistent MetaGGA calc.

 Electronic Relaxation 1
   ENCUT  =  450.0 eV  33.07 Ry    5.75 a.u.  14.57 14.57 37.84*2*pi/ulx,y,z
   ENINI  =  450.0     initial cutoff
   ENAUG  =  644.9 eV  augmentation charge cutoff
   NELM   =     60;   NELMIN=  8; NELMDL= -5     # of ELM steps 
   EDIFF  = 0.1E-03   stopping-criterion for ELM
   LREAL  =      T    real-space projection
   NLSPLINE    = F    spline interpolate recip. space projectors
   LCOMPAT=      F    compatible to vasp.4.4
   GGA_COMPAT  = T    GGA compatible to vasp.4.4-vasp.4.6
   LMAXPAW     = -100 max onsite density
   LMAXMIX     =    2 max onsite mixed and CHGCAR
   VOSKOWN=      0    Vosko Wilk Nusair interpolation
   ROPT   =   -0.00050  -0.00050  -0.00050
 Ionic relaxation
   EDIFFG = -.5E-01   stopping-criterion for IOM
   NSW    =   5000    number of steps for IOM
   NBLOCK =      1;   KBLOCK =   5000    inner block; outer block 
   IBRION =      1    ionic relax: 0-MD 1-quasi-New 2-CG
   NFREE  =      0    steps in history (QN), initial steepest desc. (CG)
   ISIF   =      2    stress and relaxation
   IWAVPR =     11    prediction:  0-non 1-charg 2-wave 3-comb
   ISYM   =      0    0-nonsym 1-usesym 2-fastsym
   LCORR  =      T    Harris-Foulkes like correction to forces

   POTIM  = 0.2000    time-step for ionic-motion
   TEIN   =    0.0    initial temperature
   TEBEG  =    0.0;   TEEND  =   0.0 temperature during run
   SMASS  =  -3.00    Nose mass-parameter (am)
   estimated Nose-frequenzy (Omega)   =  0.10E-29 period in steps =****** mass=  -0.162E-26a.u.
   SCALEE = 1.0000    scale energy and forces
   NPACO  =    256;   APACO  = 16.0  distance and # of slots for P.C.
   PSTRESS=    0.0 pullay stress

  Mass of Ions in am
   POMASS =  12.01 16.00195.08
  Ionic Valenz
   ZVAL   =   4.00  6.00 10.00
  Atomic Wigner-Seitz radii
   RWIGS  =  -1.00 -1.00 -1.00
  virtual crystal weights 
   VCA    =   1.00  1.00  1.00
   NELECT =     376.0000    total number of electrons
   NUPDOWN=      -1.0000    fix difference up-down

 DOS related values:
   EMIN   =  10.00;   EMAX   =-10.00  energy-range for DOS
   EFERMI =   0.00
   ISMEAR =     1;   SIGMA  =   0.20  broadening in eV -4-tet -1-fermi 0-gaus

 Electronic relaxation 2 (details)
   IALGO  =     68    algorithm
   LDIAG  =      T    sub-space diagonalisation (order eigenvalues)
   LSUBROT=      F    optimize rotation matrix (better conditioning)
   TURBO    =      0    0=normal 1=particle mesh
   IRESTART =      0    0=no restart 2=restart with 2 vectors
   NREBOOT  =      0    no. of reboots
   NMIN     =      0    reboot dimension
   EREF     =   0.00    reference energy to select bands
   IMIX   =      4    mixing-type and parameters
     AMIX     =   0.40;   BMIX     =  1.00
     AMIX_MAG =   1.60;   BMIX_MAG =  1.00
     AMIN     =   0.10
     WC   =   100.;   INIMIX=   1;  MIXPRE=   1;  MAXMIX= -45

 Intra band minimization:
   WEIMIN = 0.0010     energy-eigenvalue tresh-hold
   EBREAK =  0.11E-06  absolut break condition
   DEPER  =   0.30     relativ break condition  

   TIME   =   0.40     timestep for ELM

  volume/ion in A,a.u.               =      34.49       232.77
  Fermi-wavevector in a.u.,A,eV,Ry     =   1.070385  2.022734 15.588510  1.145723
  Thomas-Fermi vector in A             =   2.206093
 
 Write flags
   LWAVE        =      F    write WAVECAR
   LDOWNSAMPLE  =      F    k-point downsampling of WAVECAR
   LCHARG       =      F    write CHGCAR
   LVTOT        =      F    write LOCPOT, total local potential
   LVHAR        =      F    write LOCPOT, Hartree potential only
   LELF         =      F    write electronic localiz. function (ELF)
   LORBIT       =      0    0 simple, 1 ext, 2 COOP (PROOUT), +10 PAW based schemes


 Dipole corrections
   LMONO  =      F    monopole corrections only (constant potential shift)
   LDIPOL =      F    correct potential (dipole corrections)
   IDIPOL =      0    1-x, 2-y, 3-z, 4-all directions 
   EPSILON=  1.0000000 bulk dielectric constant

 Exchange correlation treatment:
   GGA     =    --    GGA type
   LEXCH   =     8    internal setting for exchange type
   VOSKOWN=      0    Vosko Wilk Nusair interpolation
   LHFCALC =     F    Hartree Fock is set to
   LHFONE  =     F    Hartree Fock one center treatment
   AEXX    =    0.0000 exact exchange contribution

 Linear response parameters
   LEPSILON=     F    determine dielectric tensor
   LRPA    =     F    only Hartree local field effects (RPA)
   LNABLA  =     F    use nabla operator in PAW spheres
   LVEL    =     F    velocity operator in full k-point grid
   LINTERFAST=   F  fast interpolation
   KINTER  =     0    interpolate to denser k-point grid
   CSHIFT  =0.1000    complex shift for real part using Kramers Kronig
   OMEGAMAX=  -1.0    maximum frequency
   DEG_THRESHOLD= 0.2000000E-02 threshold for treating states as degnerate
   RTIME   =   -0.100 relaxation time in fs
  (WPLASMAI=    0.000 imaginary part of plasma frequency in eV, 0.658/RTIME)
   DFIELD  = 0.0000000 0.0000000 0.0000000 field for delta impulse in time
 
 Orbital magnetization related:
   ORBITALMAG=     F  switch on orbital magnetization
   LCHIMAG   =     F  perturbation theory with respect to B field
   DQ        =  0.001000  dq finite difference perturbation B field
   LLRAUG    =     F  two centre corrections for induced B field



--------------------------------------------------------------------------------------------------------


 quasi-Newton-method for relaxation of ions
   using selective dynamics as specified on POSCAR
 charge density and potential will be updated during run
 non-spin polarized calculation
 RMM-DIIS sequential band-by-band and
  variant of blocked Davidson during initial phase
 perform sub-space diagonalisation
    before iterative eigenvector-optimisation
 modified Broyden-mixing scheme, WC =      100.0
 initial mixing is a Kerker type mixing with AMIX =  0.4000 and BMIX =      1.0000
 Hartree-type preconditioning will be used
 using additional bands           40
 real space projection scheme for non local part
 use partial core corrections
 calculate Harris-corrections to forces 
   (improved forces if not selfconsistent)
 use gradient corrections 
 use of overlap-Matrix (Vanderbilt PP)
 Methfessel and Paxton  Order N= 1 SIGMA  =   0.20


--------------------------------------------------------------------------------------------------------


  energy-cutoff  :      450.00
  volume of cell :     1345.22
      direct lattice vectors                 reciprocal lattice vectors
     7.296955120 -4.212899000  0.000000000     0.137043463  0.000000000  0.000000000
     0.000000000  8.425798000  0.000000000     0.068521732  0.118683121  0.000000000
     0.000000000  0.000000000 21.879635000     0.000000000  0.000000000  0.045704602

  length of vectors
     8.425798004  8.425798000 21.879635000     0.137043463  0.137043463  0.045704602


 
 k-points in units of 2pi/SCALE and weight: mesh auto                               
   0.00000000  0.00000000  0.00000000       0.250
   0.06852173  0.00000000  0.00000000       0.250
   0.03426087  0.05934156  0.00000000       0.250
   0.10278260  0.05934156  0.00000000       0.250
 
 k-points in reciprocal lattice and weights: mesh auto                               
   0.00000000  0.00000000  0.00000000       0.250
   0.50000000  0.00000000  0.00000000       0.250
  -0.00000000  0.50000000  0.00000000       0.250
   0.50000000  0.50000000  0.00000000       0.250
 
 position of ions in fractional coordinates (direct lattice) 
   0.69741347  0.43619245  0.47656685
   0.90470340  0.38746278  0.46198069
   0.66927692  0.46304833  0.52645538
   0.98675500  0.32859100  0.07437600
   0.32008800  0.32859100  0.07437600
   0.65342200  0.32859100  0.07437600
   0.98675500  0.66192500  0.07437600
   0.32008800  0.66192500  0.07437600
   0.65342200  0.66192500  0.07437600
   0.32008800  0.99525800  0.07437600
   0.65342200  0.99525800  0.07437600
   0.98675500  0.99525800  0.07437600
   0.20897700  0.10636900  0.17918600
   0.54231100  0.10636900  0.17918600
   0.87564400  0.10636900  0.17918600
   0.20897700  0.43970300  0.17918600
   0.54231100  0.43970300  0.17918600
   0.87564400  0.43970300  0.17918600
   0.20897700  0.77303600  0.17918600
   0.54231100  0.77303600  0.17918600
   0.87564400  0.77303600  0.17918600
   0.09998589  0.54609654  0.27843301
   0.42639487  0.88604062  0.28134878
   0.75949910  0.21754281  0.28210170
   0.09556662  0.21360683  0.28511753
   0.43616418  0.21973072  0.28724655
   0.09603056  0.88348276  0.28554514
   0.76025308  0.88504245  0.28572678
   0.43194212  0.55191576  0.28319297
   0.76396327  0.55402811  0.28704216
   0.32869221  0.65658716  0.38618415
   0.64923721  0.98806471  0.38856284
   0.32291610  0.32454970  0.39104350
   0.98803872  0.99193226  0.39241285
   0.32562635  0.99443662  0.38837518
   0.64026626  0.32274863  0.39073035
   0.99887121  0.66453742  0.38800705
   0.99812755  0.32506482  0.39478487
   0.65253959  0.66540683  0.38738519
 
 position of ions in cartesian coordinates  (Angst):
   5.08899478  0.73713698 10.42710879
   6.60158011 -0.54674096 10.10796894
   4.88368367  1.08195564 11.51865165
   7.20030695 -1.38845776  1.62731973
   2.33566777  1.42014298  1.62731973
   4.76799101  0.01584050  1.62731973
   7.20030695  1.42014719  1.62731973
   2.33566777  4.22874793  1.62731973
   4.76799101  2.82444545  1.62731973
   2.33566777  7.03734445  1.62731973
   4.76799101  5.63304198  1.62731973
   7.20030695  4.22874371  1.62731973
   1.52489579  0.01584471  3.92052428
   3.95721903 -1.38845776  3.92052428
   6.38953497 -2.79275602  3.92052428
   1.52489579  2.82444966  3.92052428
   3.95721903  1.42014719  3.92052428
   6.38953497  0.01584893  3.92052428
   1.52489579  5.63304619  3.92052428
   3.95721903  4.22874371  3.92052428
   6.38953497  2.82444545  3.92052428
   0.72959252  4.18006873  6.09201262
   3.11138426  5.66924070  6.15580857
   5.54203085 -1.36672122  6.17228231
   0.69734533  1.39719549  6.23826759
   3.18267044  0.01389101  6.28484961
   0.70073066  7.03948027  6.24762351
   5.54753260  4.25431950  6.25159767
   3.15186227  2.83060222  6.19615878
   5.57460566  1.44962888  6.28037759
   2.39845228  4.14752368  8.44956814
   4.73745479  5.59006287  8.50161304
   2.35630428  1.37417734  8.55588914
   7.20967417  4.19531353  8.58584997
   2.37608084  7.00709120  8.49750721
   4.67199415  0.02203772  8.54903734
   7.28871839  1.39111456  8.48945262
   7.28329192 -1.46608002  8.63774892
   4.76155210  2.85750018  8.47584645
 


--------------------------------------------------------------------------------------------------------


 k-point  1 :   0.0000 0.0000 0.0000  plane waves:   29241
 k-point  2 :   0.5000 0.0000 0.0000  plane waves:   29108
 k-point  3 :  -0.0000 0.5000 0.0000  plane waves:   29108
 k-point  4 :   0.5000 0.5000 0.0000  plane waves:   29108

 maximum and minimum number of plane-waves per node :     14624    14548

 maximum number of plane-waves:     29241
 maximum index in each direction: 
   IXMAX=   14   IYMAX=   14   IZMAX=   37
   IXMIN=  -15   IYMIN=  -15   IZMIN=  -37


 real space projection operators:
  total allocation   :      13555.95 KBytes
  max/ min on nodes  :       6786.92       6769.03


 parallel 3D FFT for wavefunctions:
    minimum data exchange during FFTs selected (reduces bandwidth)
 parallel 3D FFT for charge:
    minimum data exchange during FFTs selected (reduces bandwidth)


 total amount of memory used by VASP MPI-rank0   131957. kBytes
=======================================================================

   base      :      30000. kBytes
   nonlr-proj:      10149. kBytes
   fftplans  :      13556. kBytes
   grid      :      23353. kBytes
   one-center:        311. kBytes
   wavefun   :      54588. kBytes
 
     INWAV:  cpu time    0.0000: real time    0.0000
 Broyden mixing: mesh for mixing (old mesh)
   NGX = 29   NGY = 29   NGZ = 75
  (NGX  = 96   NGY  = 96   NGZ  =240)
  gives a total of  63075 points

 initial charge density was supplied:
 charge density of overlapping atoms calculated
 number of electron     376.0000000 magnetization 
 keeping initial charge density in first step


--------------------------------------------------------------------------------------------------------


 Maximum index for non-local projection operator         1322
 Maximum index for augmentation-charges         1558 (set IRDMAX)


--------------------------------------------------------------------------------------------------------


 First call to EWALD:  gamma=   0.161
 Maximum number of real-space cells 4x 4x 2
 Maximum number of reciprocal cells 2x 2x 5

    FEWALD:  cpu time    0.0023: real time    0.0023


--------------------------------------- Iteration      1(   1)  ---------------------------------------


    POTLOK:  cpu time    0.1360: real time    0.2113
    SETDIJ:  cpu time    0.0105: real time    0.0105
     EDDAV:  cpu time    7.7756: real time    7.8329
       DOS:  cpu time    0.0010: real time    0.0010
    --------------------------------------------
      LOOP:  cpu time    7.9231: real time    8.0557

 eigenvalue-minimisations  :  1824
 total energy-change (2. order) : 0.2419073E+04  (-0.1594788E+05)
 number of electron     376.0000000 magnetization 
 augmentation part      376.0000000 magnetization 

 Free energy of the ion-electron system (eV)
  ---------------------------------------------------
  alpha Z        PSCENC =       975.10247152
  Ewald energy   TEWEN  =     90818.85115682
  -Hartree energ DENC   =   -119911.31643369
  -exchange      EXHF   =         0.00000000
  -V(xc)+E(xc)   XCENC  =       189.34764307
  PAW double counting   =     24789.08602224   -23775.73976456
  entropy T*S    EENTRO =         0.00893043
  eigenvalues    EBANDS =      2073.83852748
  atomic energy  EATOM  =     27259.89416086
  Solvation  Ediel_sol  =         0.00000000
  ---------------------------------------------------
  free energy    TOTEN  =      2419.07271417 eV

  energy without entropy =     2419.06378374  energy(sigma->0) =     2419.06973736


--------------------------------------------------------------------------------------------------------




--------------------------------------- Iteration      1(   2)  ---------------------------------------


     EDDAV:  cpu time    9.1379: real time    9.2065
       DOS:  cpu time    0.0010: real time    0.0010
    --------------------------------------------
      LOOP:  cpu time    9.1389: real time    9.2074

 eigenvalue-minimisations  :  2112
 total energy-change (2. order) :-0.2482130E+04  (-0.2301958E+04)
 number of electron     376.0000000 magnetization 
 augmentation part      376.0000000 magnetization 

 Free energy of the ion-electron system (eV)
  ---------------------------------------------------
  alpha Z        PSCENC =       975.10247152
  Ewald energy   TEWEN  =     90818.85115682
  -Hartree energ DENC   =   -119911.31643369
  -exchange      EXHF   =         0.00000000
  -V(xc)+E(xc)   XCENC  =       189.34764307
  PAW double counting   =     24789.08602224   -23775.73976456
  entropy T*S    EENTRO =         0.00189755
  eigenvalues    EBANDS =      -408.28449805
  atomic energy  EATOM  =     27259.89416086
  Solvation  Ediel_sol  =         0.00000000
  ---------------------------------------------------
  free energy    TOTEN  =       -63.05734424 eV

  energy without entropy =      -63.05924179  energy(sigma->0) =      -63.05797676


--------------------------------------------------------------------------------------------------------




--------------------------------------- Iteration      1(   3)  ---------------------------------------


     EDDAV:  cpu time    9.2758: real time    9.3460
       DOS:  cpu time    0.0011: real time    0.0011
    --------------------------------------------
      LOOP:  cpu time    9.2769: real time    9.3471

 eigenvalue-minimisations  :  2160
 total energy-change (2. order) :-0.1767392E+03  (-0.1602646E+03)
 number of electron     376.0000000 magnetization 
 augmentation part      376.0000000 magnetization 

 Free energy of the ion-electron system (eV)
  ---------------------------------------------------
  alpha Z        PSCENC =       975.10247152
  Ewald energy   TEWEN  =     90818.85115682
  -Hartree energ DENC   =   -119911.31643369
  -exchange      EXHF   =         0.00000000
  -V(xc)+E(xc)   XCENC  =       189.34764307
  PAW double counting   =     24789.08602224   -23775.73976456
  entropy T*S    EENTRO =        -0.01957529
  eigenvalues    EBANDS =      -585.00226556
  atomic energy  EATOM  =     27259.89416086
  Solvation  Ediel_sol  =         0.00000000
  ---------------------------------------------------
  free energy    TOTEN  =      -239.79658459 eV

  energy without entropy =     -239.77700930  energy(sigma->0) =     -239.79005949


--------------------------------------------------------------------------------------------------------




--------------------------------------- Iteration      1(   4)  ---------------------------------------


     EDDAV:  cpu time    9.4719: real time    9.5416
       DOS:  cpu time    0.0010: real time    0.0011
    --------------------------------------------
      LOOP:  cpu time    9.4729: real time    9.5427

 eigenvalue-minimisations  :  2304
 total energy-change (2. order) :-0.7860839E+01  (-0.7549672E+01)
 number of electron     376.0000000 magnetization 
 augmentation part      376.0000000 magnetization 

 Free energy of the ion-electron system (eV)
  ---------------------------------------------------
  alpha Z        PSCENC =       975.10247152
  Ewald energy   TEWEN  =     90818.85115682
  -Hartree energ DENC   =   -119911.31643369
  -exchange      EXHF   =         0.00000000
  -V(xc)+E(xc)   XCENC  =       189.34764307
  PAW double counting   =     24789.08602224   -23775.73976456
  entropy T*S    EENTRO =        -0.00543904
  eigenvalues    EBANDS =      -592.87724094
  atomic energy  EATOM  =     27259.89416086
  Solvation  Ediel_sol  =         0.00000000
  ---------------------------------------------------
  free energy    TOTEN  =      -247.65742372 eV

  energy without entropy =     -247.65198468  energy(sigma->0) =     -247.65561071


--------------------------------------------------------------------------------------------------------




--------------------------------------- Iteration      1(   5)  ---------------------------------------


     EDDAV:  cpu time    9.9586: real time   10.0316
       DOS:  cpu time    0.0011: real time    0.0011
    CHARGE:  cpu time    0.4030: real time    0.4058
    MIXING:  cpu time    0.0080: real time    0.0080
    --------------------------------------------
      LOOP:  cpu time   10.3707: real time   10.4465

 eigenvalue-minimisations  :  2400
 total energy-change (2. order) :-0.2402431E+00  (-0.2383247E+00)
 number of electron     376.0000053 magnetization 
 augmentation part      105.8874602 magnetization 

 Broyden mixing:
  rms(total) = 0.27096E+01    rms(broyden)= 0.27093E+01
  rms(prec ) = 0.30098E+01
  weight for this iteration     100.00

 Free energy of the ion-electron system (eV)
  ---------------------------------------------------
  alpha Z        PSCENC =       975.10247152
  Ewald energy   TEWEN  =     90818.85115682
  -Hartree energ DENC   =   -119911.31643369
  -exchange      EXHF   =         0.00000000
  -V(xc)+E(xc)   XCENC  =       189.34764307
  PAW double counting   =     24789.08602224   -23775.73976456
  entropy T*S    EENTRO =        -0.00475005
  eigenvalues    EBANDS =      -593.11817305
  atomic energy  EATOM  =     27259.89416086
  Solvation  Ediel_sol  =         0.00000000
  ---------------------------------------------------
  free energy    TOTEN  =      -247.89766685 eV

  energy without entropy =     -247.89291679  energy(sigma->0) =     -247.89608349


--------------------------------------------------------------------------------------------------------




--------------------------------------- Iteration      1(   6)  ---------------------------------------


    POTLOK:  cpu time    0.1326: real time    0.1335
    SETDIJ:  cpu time    0.0097: real time    0.0098
    EDDIAG:  cpu time    1.3158: real time    1.3253
  RMM-DIIS:  cpu time    4.5926: real time    4.6285
    ORTHCH:  cpu time    0.2227: real time    0.2243
       DOS:  cpu time    0.0011: real time    0.0011
    CHARGE:  cpu time    0.4219: real time    0.4247
    MIXING:  cpu time    0.0058: real time    0.0059
    --------------------------------------------
      LOOP:  cpu time    6.7023: real time    6.7531

 eigenvalue-minimisations  :  1832
 total energy-change (2. order) : 0.3749462E+01  (-0.5396310E+01)
 number of electron     376.0000057 magnetization 
 augmentation part      112.8043873 magnetization 

 Broyden mixing:
  rms(total) = 0.27119E+01    rms(broyden)= 0.27110E+01
  rms(prec ) = 0.36139E+01
  weight for this iteration     100.00

 eigenvalues of (default mixing * dielectric matrix)
  average eigenvalue GAMMA=   0.5179
  0.5179

 Free energy of the ion-electron system (eV)
  ---------------------------------------------------
  alpha Z        PSCENC =       975.10247152
  Ewald energy   TEWEN  =     90818.85115682
  -Hartree energ DENC   =   -119460.44171491
  -exchange      EXHF   =         0.00000000
  -V(xc)+E(xc)   XCENC  =       182.14205890
  PAW double counting   =     26715.37852981   -25755.35719486
  entropy T*S    EENTRO =        -0.14528790
  eigenvalues    EBANDS =      -979.57238519
  atomic energy  EATOM  =     27259.89416086
  Solvation  Ediel_sol  =         0.00000000
  ---------------------------------------------------
  free energy    TOTEN  =      -244.14820494 eV

  energy without entropy =     -244.00291705  energy(sigma->0) =     -244.09977564


--------------------------------------------------------------------------------------------------------




--------------------------------------- Iteration      1(   7)  ---------------------------------------


    POTLOK:  cpu time    0.1259: real time    0.1267
    SETDIJ:  cpu time    0.0101: real time    0.0101
    EDDIAG:  cpu time    1.3088: real time    1.3189
  RMM-DIIS:  cpu time    4.5478: real time    4.5836
    ORTHCH:  cpu time    0.2207: real time    0.2221
       DOS:  cpu time    0.0011: real time    0.0011
    CHARGE:  cpu time    0.4132: real time    0.4160
    MIXING:  cpu time    0.0041: real time    0.0041
    --------------------------------------------
      LOOP:  cpu time    6.6317: real time    6.6827

 eigenvalue-minimisations  :  1831
 total energy-change (2. order) : 0.3524029E+01  (-0.3058446E+01)
 number of electron     376.0000066 magnetization 
 augmentation part      111.3911669 magnetization 

 Broyden mixing:
  rms(total) = 0.19761E+01    rms(broyden)= 0.19753E+01
  rms(prec ) = 0.30619E+01
  weight for this iteration     100.00

 eigenvalues of (default mixing * dielectric matrix)
  average eigenvalue GAMMA=   0.6240
  0.9885  0.2595

 Free energy of the ion-electron system (eV)
  ---------------------------------------------------
  alpha Z        PSCENC =       975.10247152
  Ewald energy   TEWEN  =     90818.85115682
  -Hartree energ DENC   =   -119651.15333784
  -exchange      EXHF   =         0.00000000
  -V(xc)+E(xc)   XCENC  =       179.82958901
  PAW double counting   =     27383.44241801   -26431.25555327
  entropy T*S    EENTRO =        -0.08763173
  eigenvalues    EBANDS =      -775.24744897
  atomic energy  EATOM  =     27259.89416086
  Solvation  Ediel_sol  =         0.00000000
  ---------------------------------------------------
  free energy    TOTEN  =      -240.62417559 eV

  energy without entropy =     -240.53654386  energy(sigma->0) =     -240.59496501


--------------------------------------------------------------------------------------------------------




--------------------------------------- Iteration      1(   8)  ---------------------------------------


    POTLOK:  cpu time    0.1286: real time    0.1295
    SETDIJ:  cpu time    0.0099: real time    0.0100
    EDDIAG:  cpu time    1.2728: real time    1.2817
  RMM-DIIS:  cpu time    4.4482: real time    4.4832
    ORTHCH:  cpu time    0.2172: real time    0.2187
       DOS:  cpu time    0.0011: real time    0.0011
    CHARGE:  cpu time    0.3927: real time    0.3954
    MIXING:  cpu time    0.0045: real time    0.0046
    --------------------------------------------
      LOOP:  cpu time    6.4750: real time    6.5241

 eigenvalue-minimisations  :  1826
 total energy-change (2. order) :-0.3127976E+01  (-0.8842491E+00)
 number of electron     376.0000051 magnetization 
 augmentation part      112.2674962 magnetization 

 Broyden mixing:
  rms(total) = 0.22890E+01    rms(broyden)= 0.22888E+01
  rms(prec ) = 0.42919E+01
  weight for this iteration     100.00

 eigenvalues of (default mixing * dielectric matrix)
  average eigenvalue GAMMA=   0.5492
  1.1972  0.2968  0.1537

 Free energy of the ion-electron system (eV)
  ---------------------------------------------------
  alpha Z        PSCENC =       975.10247152
  Ewald energy   TEWEN  =     90818.85115682
  -Hartree energ DENC   =   -119572.85035455
  -exchange      EXHF   =         0.00000000
  -V(xc)+E(xc)   XCENC  =       178.68687894
  PAW double counting   =     28116.40099199   -27175.88175372
  entropy T*S    EENTRO =        -0.10122931
  eigenvalues    EBANDS =      -843.85447437
  atomic energy  EATOM  =     27259.89416086
  Solvation  Ediel_sol  =         0.00000000
  ---------------------------------------------------
  free energy    TOTEN  =      -243.75215182 eV

  energy without entropy =     -243.65092250  energy(sigma->0) =     -243.71840871


--------------------------------------------------------------------------------------------------------




--------------------------------------- Iteration      1(   9)  ---------------------------------------


    POTLOK:  cpu time    0.1282: real time    0.1290
    SETDIJ:  cpu time    0.0095: real time    0.0095
    EDDIAG:  cpu time    1.1171: real time    1.1242
  RMM-DIIS:  cpu time    4.3878: real time    4.4217
    ORTHCH:  cpu time    0.2154: real time    0.2169
       DOS:  cpu time    0.0011: real time    0.0011
    CHARGE:  cpu time    0.3940: real time    0.3966
    MIXING:  cpu time    0.0045: real time    0.0045
    --------------------------------------------
      LOOP:  cpu time    6.2575: real time    6.3036

 eigenvalue-minimisations  :  1831
 total energy-change (2. order) : 0.1192929E+02  (-0.3968907E+00)
 number of electron     376.0000058 magnetization 
 augmentation part      112.8100955 magnetization 

 Broyden mixing:
  rms(total) = 0.90071E+00    rms(broyden)= 0.90031E+00
  rms(prec ) = 0.13799E+01
  weight for this iteration     100.00

 eigenvalues of (default mixing * dielectric matrix)
  average eigenvalue GAMMA=   0.5259
  1.3069  0.3792  0.2963  0.1211

 Free energy of the ion-electron system (eV)
  ---------------------------------------------------
  alpha Z        PSCENC =       975.10247152
  Ewald energy   TEWEN  =     90818.85115682
  -Hartree energ DENC   =   -119540.30818452
  -exchange      EXHF   =         0.00000000
  -V(xc)+E(xc)   XCENC  =       178.20350536
  PAW double counting   =     28676.66404826   -27744.81206898
  entropy T*S    EENTRO =        -0.01925041
  eigenvalues    EBANDS =      -855.39870347
  atomic energy  EATOM  =     27259.89416086
  Solvation  Ediel_sol  =         0.00000000
  ---------------------------------------------------
  free energy    TOTEN  =      -231.82286454 eV

  energy without entropy =     -231.80361414  energy(sigma->0) =     -231.81644774


--------------------------------------------------------------------------------------------------------




--------------------------------------- Iteration      1(  10)  ---------------------------------------


    POTLOK:  cpu time    0.1274: real time    0.1282
    SETDIJ:  cpu time    0.0103: real time    0.0104
    EDDIAG:  cpu time    1.3198: real time    1.3295
  RMM-DIIS:  cpu time    4.5566: real time    4.5926
    ORTHCH:  cpu time    0.2136: real time    0.2151
       DOS:  cpu time    0.0010: real time    0.0010
    CHARGE:  cpu time    0.3850: real time    0.3874
    MIXING:  cpu time    0.0049: real time    0.0049
    --------------------------------------------
      LOOP:  cpu time    6.6187: real time    6.6692

 eigenvalue-minimisations  :  1831
 total energy-change (2. order) : 0.1330694E+01  (-0.1430808E+00)
 number of electron     376.0000059 magnetization 
 augmentation part      112.8509513 magnetization 

 Broyden mixing:
  rms(total) = 0.46440E+00    rms(broyden)= 0.46431E+00
  rms(prec ) = 0.61404E+00
  weight for this iteration     100.00

 eigenvalues of (default mixing * dielectric matrix)
  average eigenvalue GAMMA=   0.5612
  1.4168  0.5767  0.4425  0.2461  0.1240

 Free energy of the ion-electron system (eV)
  ---------------------------------------------------
  alpha Z        PSCENC =       975.10247152
  Ewald energy   TEWEN  =     90818.85115682
  -Hartree energ DENC   =   -119540.93655146
  -exchange      EXHF   =         0.00000000
  -V(xc)+E(xc)   XCENC  =       178.07079015
  PAW double counting   =     29003.14544401   -28075.76007031
  entropy T*S    EENTRO =        -0.01233916
  eigenvalues    EBANDS =      -848.84723290
  atomic energy  EATOM  =     27259.89416086
  Solvation  Ediel_sol  =         0.00000000
  ---------------------------------------------------
  free energy    TOTEN  =      -230.49217045 eV

  energy without entropy =     -230.47983129  energy(sigma->0) =     -230.48805740


--------------------------------------------------------------------------------------------------------




--------------------------------------- Iteration      1(  11)  ---------------------------------------


    POTLOK:  cpu time    0.1294: real time    0.1303
    SETDIJ:  cpu time    0.0099: real time    0.0099
    EDDIAG:  cpu time    1.3086: real time    1.3178
  RMM-DIIS:  cpu time    4.5433: real time    4.5785
    ORTHCH:  cpu time    0.2098: real time    0.2112
       DOS:  cpu time    0.0011: real time    0.0011
    CHARGE:  cpu time    0.3890: real time    0.3917
    MIXING:  cpu time    0.0049: real time    0.0050
    --------------------------------------------
      LOOP:  cpu time    6.5960: real time    6.6455

 eigenvalue-minimisations  :  1830
 total energy-change (2. order) : 0.2667754E+00  (-0.3729478E-01)
 number of electron     376.0000059 magnetization 
 augmentation part      112.9570991 magnetization 

 Broyden mixing:
  rms(total) = 0.31493E+00    rms(broyden)= 0.31476E+00
  rms(prec ) = 0.39922E+00
  weight for this iteration     100.00

 eigenvalues of (default mixing * dielectric matrix)
  average eigenvalue GAMMA=   0.5822
  1.5456  0.8340  0.1230  0.4022  0.3540  0.2344

 Free energy of the ion-electron system (eV)
  ---------------------------------------------------
  alpha Z        PSCENC =       975.10247152
  Ewald energy   TEWEN  =     90818.85115682
  -Hartree energ DENC   =   -119536.80980550
  -exchange      EXHF   =         0.00000000
  -V(xc)+E(xc)   XCENC  =       178.06444866
  PAW double counting   =     29332.54866163   -28409.33887054
  entropy T*S    EENTRO =        -0.02611312
  eigenvalues    EBANDS =      -848.51150535
  atomic energy  EATOM  =     27259.89416086
  Solvation  Ediel_sol  =         0.00000000
  ---------------------------------------------------
  free energy    TOTEN  =      -230.22539502 eV

  energy without entropy =     -230.19928189  energy(sigma->0) =     -230.21669064


--------------------------------------------------------------------------------------------------------




--------------------------------------- Iteration      1(  12)  ---------------------------------------


    POTLOK:  cpu time    0.1311: real time    0.1320
    SETDIJ:  cpu time    0.0098: real time    0.0098
    EDDIAG:  cpu time    1.2997: real time    1.3091
  RMM-DIIS:  cpu time    4.4899: real time    4.5247
    ORTHCH:  cpu time    0.2112: real time    0.2126
       DOS:  cpu time    0.0011: real time    0.0011
    CHARGE:  cpu time    0.3673: real time    0.3698
    MIXING:  cpu time    0.0049: real time    0.0050
    --------------------------------------------
      LOOP:  cpu time    6.5150: real time    6.5641

 eigenvalue-minimisations  :  1837
 total energy-change (2. order) : 0.1378600E+00  (-0.1714362E-01)
 number of electron     376.0000058 magnetization 
 augmentation part      112.9908566 magnetization 

 Broyden mixing:
  rms(total) = 0.18706E+00    rms(broyden)= 0.18704E+00
  rms(prec ) = 0.24882E+00
  weight for this iteration     100.00

 eigenvalues of (default mixing * dielectric matrix)
  average eigenvalue GAMMA=   0.6801
  1.9445  1.0769  0.6200  0.4944  0.1233  0.2400  0.2619

 Free energy of the ion-electron system (eV)
  ---------------------------------------------------
  alpha Z        PSCENC =       975.10247152
  Ewald energy   TEWEN  =     90818.85115682
  -Hartree energ DENC   =   -119529.37836144
  -exchange      EXHF   =         0.00000000
  -V(xc)+E(xc)   XCENC  =       178.02180653
  PAW double counting   =     29564.20211751   -28643.79013004
  entropy T*S    EENTRO =        -0.02127231
  eigenvalues    EBANDS =      -852.96948448
  atomic energy  EATOM  =     27259.89416086
  Solvation  Ediel_sol  =         0.00000000
  ---------------------------------------------------
  free energy    TOTEN  =      -230.08753502 eV

  energy without entropy =     -230.06626271  energy(sigma->0) =     -230.08044425


--------------------------------------------------------------------------------------------------------




--------------------------------------- Iteration      1(  13)  ---------------------------------------


    POTLOK:  cpu time    0.1260: real time    0.1269
    SETDIJ:  cpu time    0.0100: real time    0.0101
    EDDIAG:  cpu time    1.2907: real time    1.3000
  RMM-DIIS:  cpu time    4.3535: real time    4.3870
    ORTHCH:  cpu time    0.2140: real time    0.2154
       DOS:  cpu time    0.0011: real time    0.0011
    CHARGE:  cpu time    0.3706: real time    0.3731
    MIXING:  cpu time    0.0048: real time    0.0049
    --------------------------------------------
      LOOP:  cpu time    6.3708: real time    6.4184

 eigenvalue-minimisations  :  1831
 total energy-change (2. order) :-0.5519874E-02  (-0.1399617E-01)
 number of electron     376.0000058 magnetization 
 augmentation part      113.0058898 magnetization 

 Broyden mixing:
  rms(total) = 0.19338E+00    rms(broyden)= 0.19337E+00
  rms(prec ) = 0.24108E+00
  weight for this iteration     100.00

 eigenvalues of (default mixing * dielectric matrix)
  average eigenvalue GAMMA=   0.7035
  2.1971  1.1414  0.8975  0.4479  0.1233  0.3390  0.2588  0.2229

 Free energy of the ion-electron system (eV)
  ---------------------------------------------------
  alpha Z        PSCENC =       975.10247152
  Ewald energy   TEWEN  =     90818.85115682
  -Hartree energ DENC   =   -119529.89604976
  -exchange      EXHF   =         0.00000000
  -V(xc)+E(xc)   XCENC  =       177.92962900
  PAW double counting   =     29851.70511110   -28934.74450930
  entropy T*S    EENTRO =        -0.01732316
  eigenvalues    EBANDS =      -848.91770200
  atomic energy  EATOM  =     27259.89416086
  Solvation  Ediel_sol  =         0.00000000
  ---------------------------------------------------
  free energy    TOTEN  =      -230.09305489 eV

  energy without entropy =     -230.07573173  energy(sigma->0) =     -230.08728051


--------------------------------------------------------------------------------------------------------




--------------------------------------- Iteration      1(  14)  ---------------------------------------


    POTLOK:  cpu time    0.1265: real time    0.1273
    SETDIJ:  cpu time    0.0096: real time    0.0097
    EDDIAG:  cpu time    1.4211: real time    1.4315
  RMM-DIIS:  cpu time    4.1431: real time    4.1734
    ORTHCH:  cpu time    0.2086: real time    0.2100
       DOS:  cpu time    0.0010: real time    0.0010
    CHARGE:  cpu time    0.3623: real time    0.3646
    MIXING:  cpu time    0.0047: real time    0.0047
    --------------------------------------------
      LOOP:  cpu time    6.2769: real time    6.3222

 eigenvalue-minimisations  :  1832
 total energy-change (2. order) : 0.5276252E-01  (-0.7176601E-02)
 number of electron     376.0000058 magnetization 
 augmentation part      112.9874625 magnetization 

 Broyden mixing:
  rms(total) = 0.76119E-01    rms(broyden)= 0.76108E-01
  rms(prec ) = 0.10012E+00
  weight for this iteration     100.00

 eigenvalues of (default mixing * dielectric matrix)
  average eigenvalue GAMMA=   0.7223
  2.3803  1.2166  0.9904  0.5032  0.5032  0.1233  0.3094  0.2520  0.2223

 Free energy of the ion-electron system (eV)
  ---------------------------------------------------
  alpha Z        PSCENC =       975.10247152
  Ewald energy   TEWEN  =     90818.85115682
  -Hartree energ DENC   =   -119534.70125272
  -exchange      EXHF   =         0.00000000
  -V(xc)+E(xc)   XCENC  =       177.87569742
  PAW double counting   =     30001.41900024   -29086.20027778
  entropy T*S    EENTRO =        -0.01038522
  eigenvalues    EBANDS =      -842.27086351
  atomic energy  EATOM  =     27259.89416086
  Solvation  Ediel_sol  =         0.00000000
  ---------------------------------------------------
  free energy    TOTEN  =      -230.04029237 eV

  energy without entropy =     -230.02990715  energy(sigma->0) =     -230.03683063


--------------------------------------------------------------------------------------------------------




--------------------------------------- Iteration      1(  15)  ---------------------------------------


    POTLOK:  cpu time    0.1199: real time    0.1207
    SETDIJ:  cpu time    0.0091: real time    0.0092
    EDDIAG:  cpu time    1.1336: real time    1.1413
  RMM-DIIS:  cpu time    4.5912: real time    4.6259
    ORTHCH:  cpu time    0.2374: real time    0.2389
       DOS:  cpu time    0.0011: real time    0.0011
    CHARGE:  cpu time    0.4132: real time    0.4160
    MIXING:  cpu time    0.0064: real time    0.0065
    --------------------------------------------
      LOOP:  cpu time    6.5120: real time    6.5596

 eigenvalue-minimisations  :  1831
 total energy-change (2. order) : 0.4465749E-02  (-0.2570424E-02)
 number of electron     376.0000058 magnetization 
 augmentation part      112.9858393 magnetization 

 Broyden mixing:
  rms(total) = 0.57095E-01    rms(broyden)= 0.57080E-01
  rms(prec ) = 0.69824E-01
  weight for this iteration     100.00

 eigenvalues of (default mixing * dielectric matrix)
  average eigenvalue GAMMA=   0.7121
  2.4751  1.2588  0.9773  0.7162  0.4629  0.1233  0.3567  0.2801  0.2489  0.2211

 Free energy of the ion-electron system (eV)
  ---------------------------------------------------
  alpha Z        PSCENC =       975.10247152
  Ewald energy   TEWEN  =     90818.85115682
  -Hartree energ DENC   =   -119535.88749712
  -exchange      EXHF   =         0.00000000
  -V(xc)+E(xc)   XCENC  =       177.86979810
  PAW double counting   =     30060.92761494   -29146.34312788
  entropy T*S    EENTRO =        -0.01555650
  eigenvalues    EBANDS =      -840.43484737
  atomic energy  EATOM  =     27259.89416086
  Solvation  Ediel_sol  =         0.00000000
  ---------------------------------------------------
  free energy    TOTEN  =      -230.03582662 eV

  energy without entropy =     -230.02027012  energy(sigma->0) =     -230.03064112


--------------------------------------------------------------------------------------------------------




--------------------------------------- Iteration      1(  16)  ---------------------------------------


    POTLOK:  cpu time    0.1425: real time    0.1434
    SETDIJ:  cpu time    0.0096: real time    0.0097
    EDDIAG:  cpu time    1.4345: real time    1.4449
  RMM-DIIS:  cpu time    4.8086: real time    4.8455
    ORTHCH:  cpu time    0.2143: real time    0.2155
       DOS:  cpu time    0.0011: real time    0.0011
    CHARGE:  cpu time    0.3838: real time    0.3860
    MIXING:  cpu time    0.0056: real time    0.0056
    --------------------------------------------
      LOOP:  cpu time    6.9998: real time    7.0518

 eigenvalue-minimisations  :  1830
 total energy-change (2. order) : 0.3923483E-02  (-0.6857064E-03)
 number of electron     376.0000058 magnetization 
 augmentation part      112.9855564 magnetization 

 Broyden mixing:
  rms(total) = 0.30156E-01    rms(broyden)= 0.30153E-01
  rms(prec ) = 0.36827E-01
  weight for this iteration     100.00

 eigenvalues of (default mixing * dielectric matrix)
  average eigenvalue GAMMA=   0.6877
  2.4842  1.2498  0.9435  0.7979  0.4647  0.4647  0.1233  0.3118  0.2636  0.2413
  0.2194

 Free energy of the ion-electron system (eV)
  ---------------------------------------------------
  alpha Z        PSCENC =       975.10247152
  Ewald energy   TEWEN  =     90818.85115682
  -Hartree energ DENC   =   -119536.97160613
  -exchange      EXHF   =         0.00000000
  -V(xc)+E(xc)   XCENC  =       177.88223967
  PAW double counting   =     30081.43356749   -29167.03849763
  entropy T*S    EENTRO =        -0.01297104
  eigenvalues    EBANDS =      -839.17242470
  atomic energy  EATOM  =     27259.89416086
  Solvation  Ediel_sol  =         0.00000000
  ---------------------------------------------------
  free energy    TOTEN  =      -230.03190314 eV

  energy without entropy =     -230.01893210  energy(sigma->0) =     -230.02757946


--------------------------------------------------------------------------------------------------------




--------------------------------------- Iteration      1(  17)  ---------------------------------------


    POTLOK:  cpu time    0.1365: real time    0.1374
    SETDIJ:  cpu time    0.0095: real time    0.0096
    EDDIAG:  cpu time    1.3764: real time    1.3864
  RMM-DIIS:  cpu time    5.1771: real time    5.2140
    ORTHCH:  cpu time    0.2227: real time    0.2242
       DOS:  cpu time    0.0011: real time    0.0011
    CHARGE:  cpu time    0.3999: real time    0.4027
    MIXING:  cpu time    0.0068: real time    0.0069
    --------------------------------------------
      LOOP:  cpu time    7.3301: real time    7.3823

 eigenvalue-minimisations  :  1820
 total energy-change (2. order) : 0.1247553E-02  (-0.1956909E-03)
 number of electron     376.0000058 magnetization 
 augmentation part      112.9852868 magnetization 

 Broyden mixing:
  rms(total) = 0.13046E-01    rms(broyden)= 0.13041E-01
  rms(prec ) = 0.15588E-01
  weight for this iteration     100.00

 eigenvalues of (default mixing * dielectric matrix)
  average eigenvalue GAMMA=   0.7331
  2.4934  1.2345  1.2345  1.0683  0.7931  0.4596  0.1233  0.3847  0.3019  0.2544
  0.2316  0.2180

 Free energy of the ion-electron system (eV)
  ---------------------------------------------------
  alpha Z        PSCENC =       975.10247152
  Ewald energy   TEWEN  =     90818.85115682
  -Hartree energ DENC   =   -119537.78482420
  -exchange      EXHF   =         0.00000000
  -V(xc)+E(xc)   XCENC  =       177.88954460
  PAW double counting   =     30082.74958342   -29168.34173228
  entropy T*S    EENTRO =        -0.01453313
  eigenvalues    EBANDS =      -838.37648320
  atomic energy  EATOM  =     27259.89416086
  Solvation  Ediel_sol  =         0.00000000
  ---------------------------------------------------
  free energy    TOTEN  =      -230.03065558 eV

  energy without entropy =     -230.01612245  energy(sigma->0) =     -230.02581121


--------------------------------------------------------------------------------------------------------




--------------------------------------- Iteration      1(  18)  ---------------------------------------


    POTLOK:  cpu time    0.1409: real time    0.1418
    SETDIJ:  cpu time    0.0097: real time    0.0097
    EDDIAG:  cpu time    1.3919: real time    1.4016
  RMM-DIIS:  cpu time    4.7110: real time    4.7442
    ORTHCH:  cpu time    0.2431: real time    0.2446
       DOS:  cpu time    0.0010: real time    0.0010
    CHARGE:  cpu time    0.4257: real time    0.4285
    MIXING:  cpu time    0.0068: real time    0.0069
    --------------------------------------------
      LOOP:  cpu time    6.9301: real time    6.9783

 eigenvalue-minimisations  :  1678
 total energy-change (2. order) :-0.1061682E-03  (-0.6431565E-04)
 number of electron     376.0000058 magnetization 
 augmentation part      112.9819760 magnetization 

 Broyden mixing:
  rms(total) = 0.11487E-01    rms(broyden)= 0.11485E-01
  rms(prec ) = 0.13917E-01
  weight for this iteration     100.00

 eigenvalues of (default mixing * dielectric matrix)
  average eigenvalue GAMMA=   0.7396
  2.5327  1.5166  1.3577  1.0645  0.7957  0.4380  0.4380  0.1233  0.3494  0.2982
  0.2523  0.2181  0.2300

 Free energy of the ion-electron system (eV)
  ---------------------------------------------------
  alpha Z        PSCENC =       975.10247152
  Ewald energy   TEWEN  =     90818.85115682
  -Hartree energ DENC   =   -119539.38898863
  -exchange      EXHF   =         0.00000000
  -V(xc)+E(xc)   XCENC  =       177.89842432
  PAW double counting   =     30080.67259006   -29166.18127549
  entropy T*S    EENTRO =        -0.01399577
  eigenvalues    EBANDS =      -836.86530545
  atomic energy  EATOM  =     27259.89416086
  Solvation  Ediel_sol  =         0.00000000
  ---------------------------------------------------
  free energy    TOTEN  =      -230.03076175 eV

  energy without entropy =     -230.01676598  energy(sigma->0) =     -230.02609649


--------------------------------------------------------------------------------------------------------




--------------------------------------- Iteration      1(  19)  ---------------------------------------


    POTLOK:  cpu time    0.1435: real time    0.1445
    SETDIJ:  cpu time    0.0092: real time    0.0093
    EDDIAG:  cpu time    1.5567: real time    1.5668
  RMM-DIIS:  cpu time    2.9550: real time    2.9770
    ORTHCH:  cpu time    0.2171: real time    0.2184
       DOS:  cpu time    0.0011: real time    0.0011
    --------------------------------------------
      LOOP:  cpu time    4.8826: real time    4.9170

 eigenvalue-minimisations  :  1219
 total energy-change (2. order) : 0.7945550E-04  (-0.3272665E-04)
 number of electron     376.0000058 magnetization 
 augmentation part      112.9819760 magnetization 

 Free energy of the ion-electron system (eV)
  ---------------------------------------------------
  alpha Z        PSCENC =       975.10247152
  Ewald energy   TEWEN  =     90818.85115682
  -Hartree energ DENC   =   -119540.48996715
  -exchange      EXHF   =         0.00000000
  -V(xc)+E(xc)   XCENC  =       177.90581283
  PAW double counting   =     30080.80812418   -29166.28638452
  entropy T*S    EENTRO =        -0.01403224
  eigenvalues    EBANDS =      -835.80202460
  atomic energy  EATOM  =     27259.89416086
  Solvation  Ediel_sol  =         0.00000000
  ---------------------------------------------------
  free energy    TOTEN  =      -230.03068230 eV

  energy without entropy =     -230.01665005  energy(sigma->0) =     -230.02600488


--------------------------------------------------------------------------------------------------------




 average (electrostatic) potential at core
  the test charge radii are     0.6991  0.7215  1.2059
  (the norm of the test charge is              1.0000)
       1 -56.3558       2 -75.0207       3 -76.5050       4 -72.2673       5 -72.2801
       6 -72.2771       7 -72.2731       8 -72.2753       9 -72.2754      10 -72.2752
      11 -72.2795      12 -72.2603      13 -72.7963      14 -72.9624      15 -72.9017
      16 -72.9878      17 -72.9219      18 -72.9526      19 -72.9837      20 -72.9379
      21 -72.8733      22 -72.9149      23 -72.9226      24 -72.8497      25 -72.8752
      26 -72.9687      27 -72.9475      28 -72.9052      29 -72.9213      30 -72.8477
      31 -72.3575      32 -72.3077      33 -72.4099      34 -72.2398      35 -72.3787
      36 -73.2415      37 -72.4210      38 -73.2678      39 -72.4559
 
 
 
 E-fermi :   1.1417     XC(G=0):  -6.6355     alpha+bet : -6.8913


 k-point     1 :       0.0000    0.0000    0.0000
  band No.  band energies     occupation 
      1     -22.3205      2.00000
      2     -17.3769      2.00000
      3      -8.5436      2.00000
      4      -8.0403      2.00000
      5      -6.7772      2.00000
      6      -6.0885      2.00000
      7      -5.8867      2.00000
      8      -5.6949      2.00000
      9      -5.6191      2.00000
     10      -5.5994      2.00000
     11      -5.5804      2.00000
     12      -5.5554      2.00000
     13      -5.5166      2.00000
     14      -5.5065      2.00000
     15      -5.4385      2.00000
     16      -5.2810      2.00000
     17      -5.0450      2.00000
     18      -5.0264      2.00000
     19      -5.0156      2.00000
     20      -4.9580      2.00000
     21      -4.9502      2.00000
     22      -4.9332      2.00000
     23      -4.6886      2.00000
     24      -4.5863      2.00000
     25      -4.5187      2.00000
     26      -4.5031      2.00000
     27      -4.4795      2.00000
     28      -4.4253      2.00000
     29      -4.3528      2.00000
     30      -4.3256      2.00000
     31      -4.3012      2.00000
     32      -4.2784      2.00000
     33      -4.2666      2.00000
     34      -4.1883      2.00000
     35      -4.1169      2.00000
     36      -4.0885      2.00000
     37      -4.0598      2.00000
     38      -4.0386      2.00000
     39      -4.0279      2.00000
     40      -4.0015      2.00000
     41      -3.9959      2.00000
     42      -3.9678      2.00000
     43      -3.9642      2.00000
     44      -3.9480      2.00000
     45      -3.9396      2.00000
     46      -3.9137      2.00000
     47      -3.6836      2.00000
     48      -3.5201      2.00000
     49      -3.4490      2.00000
     50      -3.3975      2.00000
     51      -3.3877      2.00000
     52      -3.3631      2.00000
     53      -3.3586      2.00000
     54      -3.3157      2.00000
     55      -3.2874      2.00000
     56      -3.2679      2.00000
     57      -3.2028      2.00000
     58      -3.1515      2.00000
     59      -3.1241      2.00000
     60      -3.0991      2.00000
     61      -3.0760      2.00000
     62      -2.9938      2.00000
     63      -2.9259      2.00000
     64      -2.6269      2.00000
     65      -2.5809      2.00000
     66      -2.5306      2.00000
     67      -2.5031      2.00000
     68      -2.4698      2.00000
     69      -2.4565      2.00000
     70      -2.4183      2.00000
     71      -2.4068      2.00000
     72      -2.3829      2.00000
     73      -2.3517      2.00000
     74      -2.3299      2.00000
     75      -2.3196      2.00000
     76      -2.3143      2.00000
     77      -2.2978      2.00000
     78      -2.2922      2.00000
     79      -2.2642      2.00000
     80      -2.2471      2.00000
     81      -2.2383      2.00000
     82      -2.2295      2.00000
     83      -2.2200      2.00000
     84      -2.1996      2.00000
     85      -2.1627      2.00000
     86      -2.1283      2.00000
     87      -2.0938      2.00000
     88      -2.0614      2.00000
     89      -2.0249      2.00000
     90      -1.9870      2.00000
     91      -1.9624      2.00000
     92      -1.9292      2.00000
     93      -1.8938      2.00000
     94      -1.8819      2.00000
     95      -1.8354      2.00000
     96      -1.8073      2.00000
     97      -1.7972      2.00000
     98      -1.7826      2.00000
     99      -1.7585      2.00000
    100      -1.7322      2.00000
    101      -1.6503      2.00000
    102      -1.5945      2.00000
    103      -1.5799      2.00000
    104      -1.5672      2.00000
    105      -1.5429      2.00000
    106      -1.5089      2.00000
    107      -1.4917      2.00000
    108      -1.4839      2.00000
    109      -1.4477      2.00000
    110      -1.4445      2.00000
    111      -1.4413      2.00000
    112      -1.4103      2.00000
    113      -1.3927      2.00000
    114      -1.3089      2.00000
    115      -1.2757      2.00000
    116      -1.1241      2.00000
    117      -1.0625      2.00000
    118      -0.9754      2.00000
    119      -0.9477      2.00000
    120      -0.9220      2.00000
    121      -0.8955      2.00000
    122      -0.8760      2.00000
    123      -0.8560      2.00000
    124      -0.8271      2.00000
    125      -0.8061      2.00000
    126      -0.7735      2.00000
    127      -0.7457      2.00000
    128      -0.7193      2.00000
    129      -0.6582      2.00000
    130      -0.6486      2.00000
    131      -0.6342      2.00000
    132      -0.5914      2.00000
    133      -0.5670      2.00000
    134      -0.5556      2.00000
    135      -0.4662      2.00000
    136      -0.3981      2.00000
    137      -0.3591      2.00000
    138      -0.3497      2.00000
    139      -0.3217      2.00000
    140      -0.3174      2.00000
    141      -0.1986      2.00000
    142      -0.1562      2.00000
    143      -0.1358      2.00000
    144      -0.1166      2.00000
    145      -0.0980      2.00000
    146      -0.0782      2.00000
    147      -0.0521      2.00000
    148      -0.0222      2.00000
    149       0.0329      2.00000
    150       0.0555      2.00000
    151       0.1178      2.00000
    152       0.1350      2.00000
    153       0.1482      2.00000
    154       0.1762      2.00000
    155       0.2098      2.00000
    156       0.2296      2.00000
    157       0.2687      2.00000
    158       0.3172      2.00000
    159       0.3208      2.00000
    160       0.3308      2.00000
    161       0.3599      2.00000
    162       0.3698      2.00000
    163       0.3790      2.00000
    164       0.3985      2.00000
    165       0.4164      2.00000
    166       0.4293      2.00001
    167       0.4381      2.00001
    168       0.4932      2.00005
    169       0.4984      2.00005
    170       0.5292      2.00013
    171       0.5390      2.00017
    172       0.5794      2.00051
    173       0.6174      2.00132
    174       0.6635      2.00371
    175       0.6784      2.00506
    176       0.6927      2.00670
    177       0.6996      2.00764
    178       0.7136      2.00989
    179       0.7429      2.01629
    180       0.7714      2.02505
    181       0.7991      2.03595
    182       0.8201      2.04538
    183       0.8412      2.05509
    184       0.8573      2.06189
    185       0.8613      2.06339
    186       0.8680      2.06571
    187       0.8753      2.06787
    188       0.8777      2.06846
    189       0.8882      2.07038
    190       0.9002      2.07082
    191       0.9057      2.07026
    192       0.9110      2.06919
    193       0.9213      2.06546
    194       0.9583      2.02853
    195       1.0058      1.90516
    196       1.1273      1.12151
    197       1.1501      0.92913
    198       1.2240      0.36478
    199       1.2312      0.31999
    200       1.2543      0.19459
    201       1.2662      0.14027
    202       1.2775      0.09555
    203       1.3006      0.02277
    204       1.4556     -0.04895
    205       1.5083     -0.02639
    206       1.9721     -0.00000
    207       2.0339     -0.00000
    208       2.0779     -0.00000
    209       2.0966     -0.00000
    210       2.2403     -0.00000
    211       2.5058     -0.00000
    212       3.5909     -0.00000
    213       3.9280     -0.00000
    214       4.3402     -0.00000
    215       4.3681     -0.00000
    216       4.3973     -0.00000
    217       4.5701     -0.00000
    218       4.8063     -0.00000
    219       5.3784     -0.00000
    220       5.5726     -0.00000
    221       5.8945     -0.00000
    222       5.9113     -0.00000
    223       5.9573     -0.00000
    224       6.0000     -0.00000
    225       6.0318     -0.00000
    226       6.1312     -0.00000
    227       6.5538     -0.00000
    228       6.7351      0.00000

 k-point     2 :       0.5000    0.0000    0.0000
  band No.  band energies     occupation 
      1     -22.3203      2.00000
      2     -17.3765      2.00000
      3      -8.5293      2.00000
      4      -7.2110      2.00000
      5      -7.1435      2.00000
      6      -6.1692      2.00000
      7      -5.9769      2.00000
      8      -5.8778      2.00000
      9      -5.8007      2.00000
     10      -5.6782      2.00000
     11      -5.5578      2.00000
     12      -5.3753      2.00000
     13      -5.3133      2.00000
     14      -5.1844      2.00000
     15      -4.9659      2.00000
     16      -4.8624      2.00000
     17      -4.8450      2.00000
     18      -4.8161      2.00000
     19      -4.8008      2.00000
     20      -4.7826      2.00000
     21      -4.7607      2.00000
     22      -4.7456      2.00000
     23      -4.7214      2.00000
     24      -4.7041      2.00000
     25      -4.6887      2.00000
     26      -4.6583      2.00000
     27      -4.6101      2.00000
     28      -4.5717      2.00000
     29      -4.5593      2.00000
     30      -4.5063      2.00000
     31      -4.3346      2.00000
     32      -4.2798      2.00000
     33      -4.2616      2.00000
     34      -4.2385      2.00000
     35      -4.2197      2.00000
     36      -4.1767      2.00000
     37      -4.0264      2.00000
     38      -3.9884      2.00000
     39      -3.9645      2.00000
     40      -3.9281      2.00000
     41      -3.8896      2.00000
     42      -3.8375      2.00000
     43      -3.8227      2.00000
     44      -3.7905      2.00000
     45      -3.7490      2.00000
     46      -3.6687      2.00000
     47      -3.6217      2.00000
     48      -3.5832      2.00000
     49      -3.5421      2.00000
     50      -3.5408      2.00000
     51      -3.4376      2.00000
     52      -3.4124      2.00000
     53      -3.3969      2.00000
     54      -3.3316      2.00000
     55      -3.3101      2.00000
     56      -3.2874      2.00000
     57      -3.2447      2.00000
     58      -3.1838      2.00000
     59      -3.1719      2.00000
     60      -3.1089      2.00000
     61      -3.0416      2.00000
     62      -3.0256      2.00000
     63      -2.9960      2.00000
     64      -2.9787      2.00000
     65      -2.9478      2.00000
     66      -2.8998      2.00000
     67      -2.8546      2.00000
     68      -2.8125      2.00000
     69      -2.8094      2.00000
     70      -2.7335      2.00000
[...]
     89      -2.1281      2.00000
     90      -2.1234      2.00000
     91      -2.0763      2.00000
     92      -2.0687      2.00000
     93      -2.0303      2.00000
     94      -1.9734      2.00000
     95      -1.9520      2.00000
     96      -1.9169      2.00000
     97      -1.8646      2.00000
     98      -1.8266      2.00000
     99      -1.8199      2.00000
    100      -1.8040      2.00000
    101      -1.7542      2.00000
    102      -1.7349      2.00000
    103      -1.7090      2.00000
    104      -1.6891      2.00000
    105      -1.6595      2.00000
    106      -1.6492      2.00000
    107      -1.6314      2.00000
    108      -1.6088      2.00000
    109      -1.5877      2.00000
    110      -1.5331      2.00000
    111      -1.5072      2.00000
    112      -1.4489      2.00000
    113      -1.4183      2.00000
    114      -1.3512      2.00000
    115      -1.2825      2.00000
    116      -1.2503      2.00000
    117      -1.2060      2.00000
    118      -1.1603      2.00000
    119      -1.1216      2.00000
    120      -1.0663      2.00000
    121      -1.0608      2.00000
    122      -1.0219      2.00000
    123      -0.9992      2.00000
    124      -0.9885      2.00000
    125      -0.9634      2.00000
    126      -0.9524      2.00000
    127      -0.9249      2.00000
    128      -0.9162      2.00000
    129      -0.9021      2.00000
    130      -0.8800      2.00000
    131      -0.8101      2.00000
    132      -0.7903      2.00000
    133      -0.7448      2.00000
    134      -0.7173      2.00000
    135      -0.6958      2.00000
    136      -0.6747      2.00000
    137      -0.6673      2.00000
    138      -0.6378      2.00000
    139      -0.5685      2.00000
    140      -0.5360      2.00000
    141      -0.4771      2.00000
    142      -0.4418      2.00000
    143      -0.3651      2.00000
    144      -0.2764      2.00000
    145      -0.2535      2.00000
    146      -0.1664      2.00000
    147      -0.1595      2.00000
    148      -0.0987      2.00000
    149      -0.0836      2.00000
    150      -0.0535      2.00000
    151      -0.0134      2.00000
    152       0.0630      2.00000
    153       0.0735      2.00000
    154       0.1071      2.00000
    155       0.1186      2.00000
    156       0.1288      2.00000
    157       0.1446      2.00000
    158       0.1869      2.00000
    159       0.2188      2.00000
    160       0.2363      2.00000
    161       0.2765      2.00000
    162       0.3249      2.00000
    163       0.3393      2.00000
    164       0.3875      2.00000
    165       0.3940      2.00000
    166       0.4168      2.00001
    167       0.5407      2.00035
    168       0.6048      2.00171
    169       0.6148      2.00215
    170       0.6442      2.00407
    171       0.6593      2.00553
    172       0.6928      2.01040
    173       0.7173      2.01578
    174       0.8071      2.05031
    175       0.8131      2.05305
    176       0.8290      2.05999
    177       0.8639      2.07029
    178       0.8819      2.07029
    179       0.9285      2.03772
    180       0.9481      2.00352
    181       0.9547      1.98851
    182       1.0267      1.69140
    183       1.0651      1.43140
    184       1.1110      1.06028
    185       1.1194      0.98912
    186       1.1235      0.95422
    187       1.1486      0.74563
    188       1.1701      0.57604
    189       1.1866      0.45630
    190       1.2088      0.31305
    191       1.3231     -0.05508
    192       1.3539     -0.07024
    193       1.3814     -0.06865
    194       1.4051     -0.06084
    195       1.4548     -0.03854
    196       1.5130     -0.01736
    197       1.6121     -0.00265
    198       1.7392     -0.00010
    199       1.8426     -0.00000
    200       2.0037     -0.00000
    201       2.2624     -0.00000
    202       2.3551     -0.00000
    203       2.7967     -0.00000
    204       2.9506     -0.00000
    205       2.9902     -0.00000
    206       3.0227     -0.00000
    207       3.0343     -0.00000
    208       3.2278     -0.00000
    209       3.3810     -0.00000
    210       3.5352     -0.00000
    211       3.5863     -0.00000
    212       3.6226     -0.00000
    213       3.7419     -0.00000
    214       3.8408     -0.00000
    215       3.9732     -0.00000
    216       4.1701     -0.00000
    217       4.2357     -0.00000
    218       4.3888     -0.00000
    219       4.4458     -0.00000
    220       4.6146     -0.00000
    221       4.6514     -0.00000
    222       4.8295     -0.00000
    223       5.1380     -0.00000
    224       5.5412     -0.00000
    225       5.8310     -0.00000
    226       6.5323     -0.00000
    227       6.5426     -0.00000
    228       6.6027      0.00000


--------------------------------------------------------------------------------------------------------


 soft charge-density along one line, spin component           1
         0         1         2         3         4         5         6         7         8         9
 total charge-density along one line
 
 pseudopotential strength for first ion, spin component:           1
 10.100   0.016   0.004   0.010   0.001  -0.004  -0.009  -0.000
  0.016  -0.002  -0.000  -0.000  -0.000  -0.000  -0.000   0.000
  0.004  -0.000  -4.249  -0.006   0.001  -0.010  -0.002   0.000
  0.010  -0.000  -0.006  -4.265   0.002  -0.002  -0.016   0.000
  0.001  -0.000   0.001   0.002  -4.247   0.000   0.000  -0.010
 -0.004  -0.000  -0.010  -0.002   0.000  -0.770  -0.000   0.000
 -0.009  -0.000  -0.002  -0.016   0.000  -0.000  -0.770   0.000
 -0.000   0.000   0.000   0.000  -0.010   0.000   0.000  -0.770
 total augmentation occupancy for first ion, spin component:           1
  1.644  -0.865   0.003  -0.003  -0.047   0.032   0.082  -0.018
 -0.865   1.203  -0.209  -0.541   0.062  -0.083  -0.227   0.021
  0.003  -0.209   0.852   0.196   0.012   0.114   0.054  -0.002
 -0.003  -0.541   0.196   1.326   0.005   0.055   0.249  -0.004
 -0.047   0.062   0.012   0.005   0.780  -0.002  -0.005   0.096
  0.032  -0.083   0.114   0.055  -0.002   0.020   0.021  -0.002
  0.082  -0.227   0.054   0.249  -0.005   0.021   0.071  -0.004
 -0.018   0.021  -0.002  -0.004   0.096  -0.002  -0.004   0.013


------------------------ aborting loop because EDIFF is reached ----------------------------------------


    CHARGE:  cpu time    0.3656: real time    0.3682
    FORLOC:  cpu time    0.0416: real time    0.0419
    FORNL :  cpu time    2.0504: real time    2.0656
    STRESS:  cpu time    6.5129: real time    6.5617
    FORCOR:  cpu time    0.1558: real time    0.1568
    FORHAR:  cpu time    0.0721: real time    0.0726
    MIXING:  cpu time    0.0049: real time    0.0050
    OFIELD:  cpu time    0.0000: real time    0.0000

  FORCE on cell =-STRESS in cart. coord.  units (eV):
  Direction    XX          YY          ZZ          XY          YZ          ZX
  --------------------------------------------------------------------------------------
  Alpha Z   975.10247   975.10247   975.10247
  Ewald  110685.08010110685.78477************  -193.28404   251.74261   -82.24058
  Hartree117455.22058117423.07112************  -128.66348   105.57700   -49.70278
  E(xc)   -1665.55711 -1665.27360 -1672.99224    -0.42378     0.70555    -0.21431
  Local  ************************238822.05350   311.88291  -332.92220   126.22889
  n-local   122.73872   121.30841    86.07841    -1.29738     1.28454    -0.09696
  augment  1894.77049  1893.00904  1934.33445     2.72482    -4.44509     1.17450
  Kinetic  5522.61268  5512.10808  5601.39052     9.15477   -21.72548     5.86819
  Fock        0.00000     0.00000     0.00000     0.00000     0.00000     0.00000
  -------------------------------------------------------------------------------------
  Total     -36.76175   -40.02781    -6.24841     0.09382     0.21694     1.01695
  in kB     -43.78385   -47.67378    -7.44196     0.11174     0.25837     1.21120
  external pressure =      -32.97 kB  Pullay stress =        0.00 kB


 VOLUME and BASIS-vectors are now :
 -----------------------------------------------------------------------------
  energy-cutoff  :      450.00
  volume of cell :     1345.22
      direct lattice vectors                 reciprocal lattice vectors
     7.296955120 -4.212899000  0.000000000     0.137043463  0.000000000  0.000000000
     0.000000000  8.425798000  0.000000000     0.068521732  0.118683121  0.000000000
     0.000000000  0.000000000 21.879635000     0.000000000  0.000000000  0.045704602

  length of vectors
     8.425798004  8.425798000 21.879635000     0.137043463  0.137043463  0.045704602


 FORCES acting on ions
    electron-ion (+dipol)            ewald-force                    non-local-force                 convergence-correction
 -----------------------------------------------------------------------------------------------
   0.214E+02 0.180E+02 -.884E+03   -.226E+02 -.226E+02 0.873E+03   0.743E+00 0.405E+01 0.113E+02   -.110E-01 0.661E-02 0.125E-01
   -.767E+02 0.415E+02 -.159E+04   0.768E+02 -.370E+02 0.162E+04   0.687E+00 -.423E+01 -.238E+02   0.267E-01 0.109E-01 -.109E-01
   0.479E+02 -.103E+03 -.155E+04   -.529E+02 0.124E+03 0.161E+04   0.518E+01 -.210E+02 -.580E+02   0.627E-02 -.757E-02 -.322E-01
   0.184E+00 0.730E+00 0.234E+04   -.207E+00 -.737E+00 -.234E+04   0.131E-01 -.382E-01 -.120E+01   0.341E-01 -.752E-02 -.129E-02
   0.350E+00 0.736E+00 0.234E+04   -.366E+00 -.752E+00 -.233E+04   -.173E-01 -.454E-01 -.110E+01   -.136E-01 0.451E-01 0.975E-03
   0.231E+00 -.159E-01 0.234E+04   -.285E+00 0.149E-01 -.233E+04   0.232E-01 -.156E-01 -.112E+01   0.235E-02 0.227E-02 -.165E-01
   0.278E+00 -.562E+00 0.234E+04   -.282E+00 0.575E+00 -.234E+04   -.442E-02 0.227E-01 -.117E+01   0.334E-01 0.937E-02 -.230E-02
   -.421E-01 0.113E+00 0.234E+04   0.273E-01 -.124E+00 -.234E+04   0.163E-02 0.256E-01 -.129E+01   0.210E-01 0.451E-03 0.204E-01
   -.416E+00 0.100E+00 0.234E+04   0.428E+00 -.165E+00 -.234E+04   0.202E-01 0.151E-01 -.122E+01   -.184E-01 0.525E-01 0.200E-01
   0.384E+00 -.981E+00 0.234E+04   -.277E+00 0.877E+00 -.233E+04   -.767E-01 0.993E-01 -.108E+01   -.160E-01 -.455E-01 -.533E-02
   -.545E+00 -.638E-01 0.234E+04   0.584E+00 0.154E+00 -.234E+04   -.131E-01 -.191E-01 -.126E+01   -.195E-01 -.548E-01 0.135E-01
   -.312E+00 -.150E+00 0.234E+04   0.375E+00 0.155E+00 -.233E+04   -.230E-01 0.101E-01 -.104E+01   -.231E-01 -.182E-02 0.844E-02
   0.117E+01 -.195E+01 0.848E+03   -.127E+01 0.192E+01 -.848E+03   0.863E-01 0.257E-01 -.228E+00   -.312E-01 0.437E-02 0.178E-01
   -.667E+00 -.386E+01 0.857E+03   0.557E+00 0.395E+01 -.857E+03   0.112E+00 0.110E+00 -.170E+00   -.133E-01 -.765E-01 0.392E-01
   -.306E+01 0.856E+00 0.853E+03   0.318E+01 -.962E+00 -.853E+03   0.205E-01 0.104E+00 -.176E+00   -.243E-01 -.447E-01 0.268E-01
   0.150E+01 0.819E+01 0.860E+03   -.157E+01 -.829E+01 -.860E+03   -.174E-01 -.685E-01 -.313E+00   0.457E-01 0.374E-01 0.244E-01
   -.128E+00 0.365E+01 0.857E+03   0.557E-01 -.371E+01 -.857E+03   0.959E-01 -.518E-01 -.226E+00   -.137E-01 0.851E-01 0.414E-01
   0.429E+01 -.155E+00 0.859E+03   -.436E+01 0.141E+00 -.858E+03   -.719E-01 0.521E-01 -.267E+00   0.414E-01 0.429E-02 0.266E-01
   0.276E+01 -.542E+01 0.860E+03   -.276E+01 0.561E+01 -.860E+03   -.133E+00 -.340E-01 -.335E+00   0.377E-01 -.406E-01 0.254E-01
   -.384E+01 0.624E+00 0.860E+03   0.388E+01 -.572E+00 -.860E+03   0.254E-01 -.159E-01 -.332E+00   -.119E-01 -.913E-02 0.461E-01
   -.137E+01 -.183E+01 0.855E+03   0.148E+01 0.195E+01 -.855E+03   -.180E-01 -.367E-01 -.180E+00   -.303E-01 0.391E-01 0.302E-01
   0.280E+01 -.218E+00 -.616E+03   -.297E+01 0.117E+00 0.616E+03   0.499E-01 0.170E+00 0.824E+00   0.757E-01 0.118E-04 -.169E-01
   -.116E+01 -.151E+01 -.620E+03   0.114E+01 0.166E+01 0.620E+03   0.125E+00 -.191E+00 0.553E+00   0.561E-02 -.520E-01 0.220E-01
   -.325E+01 0.815E+00 -.647E+03   0.300E+01 -.400E+00 0.647E+03   0.296E+00 -.344E+00 0.360E+00   -.287E-01 -.533E-01 0.384E-02
   -.165E+01 0.121E+02 -.650E+03   0.118E+01 -.114E+02 0.650E+03   0.436E+00 -.563E+00 -.611E+00   -.785E-03 -.122E-01 0.185E-01
   0.110E+02 0.328E+01 -.637E+03   -.103E+02 -.333E+01 0.637E+03   -.678E+00 -.466E-01 -.122E+00   0.757E-02 0.442E-02 0.710E-01
   -.535E+01 -.124E+02 -.639E+03   0.516E+01 0.122E+02 0.639E+03   0.241E+00 0.146E+00 0.353E-01   -.125E-01 -.130E-01 0.514E-01
   -.600E+01 -.202E+01 -.635E+03   0.613E+01 0.208E+01 0.635E+03   0.270E-01 -.170E+00 0.243E+00   -.770E-01 -.333E-02 0.451E-01
   0.396E+00 0.133E+01 -.621E+03   -.437E+00 -.146E+01 0.621E+03   0.193E-01 0.279E-01 0.430E+00   0.347E-01 0.749E-01 0.197E-01
   -.533E+00 0.278E+01 -.635E+03   0.528E+00 -.301E+01 0.634E+03   -.987E-02 0.161E-01 0.711E-01   -.179E-01 0.821E-01 0.780E-01
   -.216E+02 -.150E+02 -.213E+04   0.221E+02 0.151E+02 0.213E+04   -.561E+00 0.141E-01 0.136E+01   0.522E-01 -.132E-01 -.222E-01
   0.142E+02 0.244E+02 -.214E+04   -.146E+02 -.249E+02 0.214E+04   0.509E+00 0.681E+00 0.135E+01   -.404E-01 -.526E-01 0.648E-02
   0.289E+02 -.503E+01 -.214E+04   -.295E+02 0.500E+01 0.214E+04   0.496E+00 0.386E-01 0.991E+00   0.235E-01 0.321E-01 0.318E-01
   -.343E+01 0.937E+01 -.219E+04   0.336E+01 -.956E+01 0.219E+04   0.918E-01 0.130E+00 0.946E+00   -.340E-01 -.239E-03 0.174E-01
   0.172E+02 0.151E+02 -.216E+04   -.173E+02 -.155E+02 0.216E+04   -.725E-01 0.434E+00 0.101E+01   0.261E-01 -.400E-01 -.354E-02
   0.609E+02 0.659E+02 -.197E+04   -.639E+02 -.641E+02 0.197E+04   0.281E+01 -.170E+01 -.335E+01   0.972E-02 -.632E-02 0.867E-02
   -.500E+02 -.565E+02 -.206E+04   0.516E+02 0.589E+02 0.206E+04   -.174E+01 -.230E+01 0.233E+01   0.166E-01 0.431E-02 0.937E-03
   -.504E+02 0.882E+02 -.204E+04   0.509E+02 -.891E+02 0.204E+04   -.692E+00 0.824E+00 -.102E+01   0.325E-01 0.986E-02 -.830E-02
   0.671E+01 -.621E+02 -.211E+04   -.657E+01 0.633E+02 0.210E+04   -.295E-01 -.125E+01 0.128E+01   -.343E-01 0.369E-01 -.286E-01
 -----------------------------------------------------------------------------------------------
   -.797E+01 0.252E+02 0.760E+02   -.391E-13 0.711E-14 0.455E-11   0.796E+01 -.251E+02 -.765E+02   0.608E-01 0.767E-02 0.581E+00
 
 
 POSITION                                       TOTAL-FORCE (eV/Angst)
 -----------------------------------------------------------------------------------
      5.01457      0.67477     10.38485        -0.418534     -0.505618     -0.025493
      6.66365     -0.50118     10.14655         0.752403      0.317617     -0.102816
      4.92420      1.07059     11.47171         0.183847      0.047129      0.065989
      7.20031     -1.38846      1.62732         0.023138     -0.055393      0.124445
      2.33567      1.42014      1.62732        -0.047542     -0.018867      0.149558
      4.76799      0.01584      1.62732        -0.028875     -0.017266      0.157699
      7.20031      1.42015      1.62732         0.023990      0.042575      0.129185
      2.33567      4.22875      1.62732         0.006740      0.012774      0.093109
      4.76799      2.82445      1.62732         0.012670      0.000177      0.141201
      2.33567      7.03734      1.62732         0.013977     -0.052711      0.067791
      4.76799      5.63304      1.62732         0.005274      0.013829      0.107557
      7.20031      4.22874      1.62732         0.015667      0.010592      0.056773
      1.52490      0.01584      3.92052        -0.047907     -0.000506      0.116501
      3.95722     -1.38846      3.92052        -0.012302      0.118881     -0.042688
      6.38953     -2.79276      3.92052         0.112380     -0.049498      0.011403
      1.52490      2.82445      3.92052        -0.037190     -0.142510     -0.096064
      3.95722      1.42015      3.92052         0.008683     -0.028007      0.048717
      6.38953      0.01585      3.92052        -0.095043      0.038780      0.042921
      1.52490      5.63305      3.92052        -0.094592      0.120077     -0.176181
      3.95722      4.22874      3.92052         0.061017      0.024354     -0.117434
      6.38953      2.82445      3.92052         0.055602      0.122555     -0.047484
      0.71032      4.19813      6.17248        -0.043901      0.065556      0.262459
      3.13008      5.64299      6.17679         0.105495     -0.094780      0.056737
      5.56496     -1.37308      6.22103         0.015088      0.014480      0.235561
      0.69117      1.42502      6.24967        -0.035951      0.129143     -0.047016
      3.15773      0.01930      6.23078        -0.058304     -0.092381     -0.155241
      0.69762      7.03431      6.22440         0.042203     -0.032170     -0.143713
      5.57271      4.24377      6.21262         0.079885     -0.107172     -0.167255
      3.14669      2.81108      6.18884         0.011850     -0.033911      0.043547
      5.58510      1.42695      6.22518        -0.034163     -0.132263     -0.173442
      2.37696      4.18912      8.45080        -0.021545      0.159934      0.029085
      4.75278      5.60860      8.48174         0.069936      0.071761     -0.102079
      2.32887      1.38368      8.52613        -0.077473      0.034946     -0.246181
      7.20833      4.18863      8.56246        -0.015225     -0.063518     -0.175825
      2.34859      6.99205      8.50671        -0.089223      0.025338     -0.019496
      4.67595      0.05983      8.62780        -0.220014      0.045559     -0.141161
      7.28672      1.40276      8.48175        -0.156042      0.055681      0.039547
      7.27722     -1.50737      8.60924        -0.145882     -0.097736      0.121111
      4.78658      2.85245      8.49431         0.079861      0.052569     -0.121327
 -----------------------------------------------------------------------------------
    total drift:                                0.042016      0.114395      0.009307
  FORCES: max atom, RMS     0.823142    0.215392
  Number: max atom                 2
  FORCE total and by dimension    1.345124    0.752403


--------------------------------------------------------------------------------------------------------



  FREE ENERGIE OF THE ION-ELECTRON SYSTEM (eV)
  ---------------------------------------------------
  free  energy   TOTEN  =      -230.68764444 eV

  energy  without entropy=     -230.66930748  energy(sigma->0) =     -230.68153212
 
 d Force = 0.8160542E-01[ 0.690E-01, 0.942E-01]  d Energy = 0.8193797E-01-0.333E-03
 d Force =-0.5045537E+02[-0.502E+02,-0.507E+02]  d Ewald  =-0.5045686E+02 0.149E-02


--------------------------------------------------------------------------------------------------------


    POTLOK:  cpu time    0.1415: real time    0.3618


--------------------------------------------------------------------------------------------------------


 stress matrix after NEB project (eV)
    -36.76175      0.09381      1.01695
      0.09382    -40.02781      0.21694
      1.01695      0.21694     -6.24841
  FORCES: max atom, RMS     0.823142    0.215392
  FORCE total and by dimension    1.345124    0.752403
  Stress total and by dimension   54.725445   40.027807
 Quasi-Newton relaxation of ions (Broydens 2nd method)
  g(Force)  = 0.349E-01   g(Stress)= 0.000E+00

 retain information from N=  3 steps
 eigenvalues of (default step * inverse Hessian matrix)
  average eigenvalue of G=   5.2562
 eigenvalue spectrum of G is  0.6133  7.5776  7.5776
  RESET_HESSIAN           0


--------------------------------------------------------------------------------------------------------


    WAVPRE:  cpu time    0.0691: real time    0.4337
    FEWALD:  cpu time    0.0009: real time    0.0009

 real space projection operators:
  total allocation   :      13551.09 KBytes
  max/ min on nodes  :       6786.00       6765.09

    ORTHCH:  cpu time    0.9031: real time    0.9099
     LOOP+:  cpu time   65.5521: real time   67.0424


--------------------------------------- Iteration      6(   1)  ---------------------------------------


    POTLOK:  cpu time    0.1317: real time    0.1369
    SETDIJ:  cpu time    0.0100: real time    0.0101
