 running on    8 total cores
 distrk:  each k-point on    8 cores,    1 groups
 distr:  one band on    2 cores,    4 groups
 using from now: INCAR     
 vasp.5.4.4 16052018 (build Apr 24 2014 20:13:14) complex standard
 Contain Constrained Minimization Technique (TS), Periodic NBO, VASPsol, libbeef, VASP2WANNIER90, Constrained Cell Relaxation
 POSCAR found type information on POSCAR  C  O  Pt
 POSCAR found :  3 types and      39 ions
 scaLAPACK will be used
 LDA part: xc-table for Pade appr. of Perdew
 POSCAR found type information on POSCAR  C  O  Pt
 POSCAR found :  3 types and      39 ions
 POSCAR, INCAR and KPOINTS ok, starting setup
 FFT: planning ...
 WAVECAR not read
 entering main loop
       N       E                     dE             d eps       ncg     rms          rms(c)
DAV:   1     0.241907271417E+04    0.24191E+04   -0.15948E+05  1824   0.129E+03
DAV:   2    -0.630573442407E+02   -0.24821E+04   -0.23020E+04  2112   0.286E+02
DAV:   3    -0.239796584589E+03   -0.17674E+03   -0.16026E+03  2160   0.690E+01
DAV:   4    -0.247657423722E+03   -0.78608E+01   -0.75497E+01  2304   0.138E+01
DAV:   5    -0.247897666845E+03   -0.24024E+00   -0.23832E+00  2400   0.248E+00    0.271E+01
RMM:   6    -0.244148204943E+03    0.37495E+01   -0.53963E+01  1832   0.148E+01    0.271E+01
RMM:   7    -0.240624175590E+03    0.35240E+01   -0.30584E+01  1831   0.871E+00    0.198E+01
RMM:   8    -0.243752151817E+03   -0.31280E+01   -0.88425E+00  1826   0.472E+00    0.229E+01
RMM:   9    -0.231822864544E+03    0.11929E+02   -0.39689E+00  1831   0.320E+00    0.901E+00
RMM:  10    -0.230492170454E+03    0.13307E+01   -0.14308E+00  1831   0.195E+00    0.464E+00
RMM:  11    -0.230225395017E+03    0.26678E+00   -0.37295E-01  1830   0.975E-01    0.315E+00
RMM:  12    -0.230087535019E+03    0.13786E+00   -0.17144E-01  1837   0.658E-01    0.187E+00
RMM:  13    -0.230093054894E+03   -0.55199E-02   -0.13996E-01  1831   0.614E-01    0.193E+00
RMM:  14    -0.230040292369E+03    0.52763E-01   -0.71766E-02  1832   0.463E-01    0.761E-01
RMM:  15    -0.230035826620E+03    0.44657E-02   -0.25704E-02  1831   0.273E-01    0.571E-01
RMM:  16    -0.230031903137E+03    0.39235E-02   -0.68571E-03  1830   0.140E-01    0.302E-01
RMM:  17    -0.230030655584E+03    0.12476E-02   -0.19569E-03  1820   0.765E-02    0.130E-01
RMM:  18    -0.230030761752E+03   -0.10617E-03   -0.64316E-04  1678   0.438E-02    0.115E-01
RMM:  19    -0.230030682297E+03    0.79456E-04   -0.32727E-04  1219   0.326E-02
   1 F= -.23003068E+03 E0= -.23002600E+03  d E =-.230031E+03
 BRION: g(F)=  0.383E+00 g(S)=  0.000E+00
 bond charge predicted
       N       E                     dE             d eps       ncg     rms          rms(c)
DAV:   1    -0.230274897590E+03   -0.24414E+00   -0.36108E+01  1856   0.113E+01    0.989E-01
RMM:   2    -0.230424286464E+03   -0.14939E+00   -0.81887E-01  1833   0.178E+00    0.271E+00
RMM:   3    -0.230357566965E+03    0.66719E-01   -0.65290E-02  1856   0.435E-01    0.125E+00
RMM:   4    -0.230340822565E+03    0.16744E-01   -0.23740E-02  1841   0.257E-01    0.801E-01
RMM:   5    -0.230332120193E+03    0.87024E-02   -0.85423E-03  1838   0.152E-01    0.449E-01
RMM:   6    -0.230330712783E+03    0.14074E-02   -0.68444E-03  1830   0.144E-01    0.258E-01
RMM:   7    -0.230330968103E+03   -0.25532E-03   -0.44001E-03  1830   0.114E-01    0.255E-01
RMM:   8    -0.230329996624E+03    0.97148E-03   -0.16089E-03  1817   0.687E-02    0.958E-02
RMM:   9    -0.230329989389E+03    0.72349E-05   -0.30637E-04  1147   0.314E-02
   2 F= -.23032999E+03 E0= -.23032559E+03  d E =-.299307E+00
 BRION: g(F)=  0.221E+00 g(S)=  0.000E+00 retain N=  1 mean eig= 1.48
 eig:   1.482
 bond charge predicted
       N       E                     dE             d eps       ncg     rms          rms(c)
DAV:   1    -0.230386931520E+03   -0.56935E-01   -0.20774E+01  1840   0.869E+00    0.720E-01
RMM:   2    -0.230452515975E+03   -0.65584E-01   -0.66872E-01  1845   0.138E+00    0.855E-01
RMM:   3    -0.230448715377E+03    0.38006E-02   -0.29488E-02  1852   0.285E-01    0.825E-01
RMM:   4    -0.230444938179E+03    0.37772E-02   -0.66194E-03  1857   0.134E-01    0.654E-01
RMM:   5    -0.230439553668E+03    0.53845E-02   -0.52821E-03  1836   0.118E-01    0.418E-01
RMM:   6    -0.230438877107E+03    0.67656E-03   -0.84159E-03  1832   0.148E-01    0.332E-01
RMM:   7    -0.230437055960E+03    0.18211E-02   -0.35806E-03  1831   0.101E-01    0.138E-01
RMM:   8    -0.230436804513E+03    0.25145E-03   -0.67199E-04  1659   0.451E-02    0.697E-02
RMM:   9    -0.230436766678E+03    0.37835E-04   -0.16253E-04  1014   0.238E-02
   3 F= -.23043677E+03 E0= -.23043202E+03  d E =-.106777E+00
 BRION: g(F)=  0.493E+00 g(S)=  0.000E+00 retain N=  2 mean eig= 0.86
 eig:   0.856  0.856
 bond charge predicted
       N       E                     dE             d eps       ncg     rms          rms(c)
DAV:   1    -0.230566978740E+03   -0.13017E+00   -0.26606E+01  1824   0.967E+00    0.877E-01
RMM:   2    -0.230618182542E+03   -0.51204E-01   -0.58437E-01  1841   0.152E+00    0.818E-01
RMM:   3    -0.230614075170E+03    0.41074E-02   -0.40877E-02  1845   0.356E-01    0.737E-01
RMM:   4    -0.230610000602E+03    0.40746E-02   -0.11084E-02  1836   0.179E-01    0.538E-01
RMM:   5    -0.230618522152E+03   -0.85216E-02   -0.72980E-03  1833   0.140E-01    0.888E-01
RMM:   6    -0.230608021718E+03    0.10500E-01   -0.51683E-03  1832   0.117E-01    0.345E-01
RMM:   7    -0.230606164645E+03    0.18571E-02   -0.30695E-03  1825   0.923E-02    0.172E-01
RMM:   8    -0.230605766953E+03    0.39769E-03   -0.99951E-04  1798   0.541E-02    0.917E-02
RMM:   9    -0.230605706472E+03    0.60481E-04   -0.19672E-04  1031   0.256E-02
   4 F= -.23060571E+03 E0= -.23060020E+03  d E =-.168940E+00
 BRION: g(F)=  0.719E-01 g(S)=  0.000E+00 retain N=  3 mean eig= 4.14
 eig:   1.217  5.601  5.601
 bond charge predicted
       N       E                     dE             d eps       ncg     rms          rms(c)
DAV:   1    -0.230661753833E+03   -0.55987E-01   -0.14403E+01  1832   0.764E+00    0.570E-01
RMM:   2    -0.230702993693E+03   -0.41240E-01   -0.31244E-01  1836   0.107E+00    0.930E-01
RMM:   3    -0.230696941149E+03    0.60525E-02   -0.17845E-02  1868   0.233E-01    0.751E-01
RMM:   4    -0.230689722204E+03    0.72189E-02   -0.62322E-03  1837   0.134E-01    0.364E-01
RMM:   5    -0.230688041628E+03    0.16806E-02   -0.23488E-03  1836   0.831E-02    0.212E-01
RMM:   6    -0.230688173727E+03   -0.13210E-03   -0.21833E-03  1827   0.781E-02    0.209E-01
RMM:   7    -0.230687794331E+03    0.37940E-03   -0.13859E-03  1823   0.638E-02    0.100E-01
RMM:   8    -0.230687655399E+03    0.13893E-03   -0.25194E-04  1061   0.289E-02    0.441E-02
RMM:   9    -0.230687644439E+03    0.10959E-04   -0.63577E-05   960   0.156E-02
   5 F= -.23068764E+03 E0= -.23068153E+03  d E =-.819380E-01
 BRION: g(F)=  0.349E-01 g(S)=  0.000E+00 retain N=  3 mean eig= 5.26
 eig:   0.613  7.578  7.578
 bond charge predicted
       N       E                     dE             d eps       ncg     rms          rms(c)
[mpiexec@node06] Sending Ctrl-C to processes as requested
[mpiexec@node06] Press Ctrl-C again to force abort
Ctrl-C caught... cleaning up processes
APPLICATION TERMINATED WITH THE EXIT STRING: Hangup (signal 1)
