metal                                   
           1
     7.296955   -4.212899    0.000000
     0.000000    8.425798    0.000000
     0.000000    0.000000   21.879635
   C    O    Pt
   1   2  36
Direct configuration=     1
   0.69741347  0.43619245  0.47656685
   0.90470340  0.38746278  0.46198069
   0.66927692  0.46304833  0.52645538
   0.98675500  0.32859100  0.07437600
   0.32008800  0.32859100  0.07437600
   0.65342200  0.32859100  0.07437600
   0.98675500  0.66192500  0.07437600
   0.32008800  0.66192500  0.07437600
   0.65342200  0.66192500  0.07437600
   0.32008800  0.99525800  0.07437600
   0.65342200  0.99525800  0.07437600
   0.98675500  0.99525800  0.07437600
   0.20897700  0.10636900  0.17918600
   0.54231100  0.10636900  0.17918600
   0.87564400  0.10636900  0.17918600
   0.20897700  0.43970300  0.17918600
   0.54231100  0.43970300  0.17918600
   0.87564400  0.43970300  0.17918600
   0.20897700  0.77303600  0.17918600
   0.54231100  0.77303600  0.17918600
   0.87564400  0.77303600  0.17918600
   0.09998589  0.54609654  0.27843301
   0.42639487  0.88604062  0.28134878
   0.75949910  0.21754281  0.28210170
   0.09556662  0.21360683  0.28511753
   0.43616418  0.21973072  0.28724655
   0.09603056  0.88348276  0.28554514
   0.76025308  0.88504245  0.28572678
   0.43194212  0.55191576  0.28319297
   0.76396327  0.55402811  0.28704216
   0.32869221  0.65658716  0.38618415
   0.64923721  0.98806471  0.38856284
   0.32291610  0.32454970  0.39104350
   0.98803872  0.99193226  0.39241285
   0.32562635  0.99443662  0.38837518
   0.64026626  0.32274863  0.39073035
   0.99887121  0.66453742  0.38800705
   0.99812755  0.32506482  0.39478487
   0.65253959  0.66540683  0.38738519
Direct configuration=     2
   0.69472476  0.43316313  0.47539412
   0.90576992  0.38978070  0.46313356
   0.67063196  0.46340948  0.52617062
   0.98675500  0.32859100  0.07437600
   0.32008800  0.32859100  0.07437600
   0.65342200  0.32859100  0.07437600
   0.98675500  0.66192500  0.07437600
   0.32008800  0.66192500  0.07437600
   0.65342200  0.66192500  0.07437600
   0.32008800  0.99525800  0.07437600
   0.65342200  0.99525800  0.07437600
   0.98675500  0.99525800  0.07437600
   0.20897700  0.10636900  0.17918600
   0.54231100  0.10636900  0.17918600
   0.87564400  0.10636900  0.17918600
   0.20897700  0.43970300  0.17918600
   0.54231100  0.43970300  0.17918600
   0.87564400  0.43970300  0.17918600
   0.20897700  0.77303600  0.17918600
   0.54231100  0.77303600  0.17918600
   0.87564400  0.77303600  0.17918600
   0.09917169  0.54627241  0.27952775
   0.42699207  0.88541541  0.28161488
   0.76073170  0.21775094  0.28262648
   0.09531897  0.21436204  0.28535865
   0.43492879  0.21958624  0.28640018
   0.09573031  0.88316034  0.28530764
   0.76133731  0.88547697  0.28521119
   0.43155424  0.55094540  0.28299034
   0.76465062  0.55374254  0.28627524
   0.32763601  0.65748426  0.38619623
   0.64975984  0.98891194  0.38835877
   0.32144331  0.32429094  0.39076224
   0.98804861  0.99191693  0.39216291
   0.32429805  0.99296810  0.38855309
   0.64113699  0.32476482  0.39217431
   0.99917877  0.66515886  0.38784595
   0.99906848  0.32310788  0.39379890
   0.65353804  0.66551431  0.38780772
Direct configuration=     3
   0.69229355  0.43115322  0.47583551
   0.90729891  0.39162148  0.46351222
   0.67223185  0.46308721  0.52470537
   0.98675500  0.32859100  0.07437600
   0.32008800  0.32859100  0.07437600
   0.65342200  0.32859100  0.07437600
   0.98675500  0.66192500  0.07437600
   0.32008800  0.66192500  0.07437600
   0.65342200  0.66192500  0.07437600
   0.32008800  0.99525800  0.07437600
   0.65342200  0.99525800  0.07437600
   0.98675500  0.99525800  0.07437600
   0.20897700  0.10636900  0.17918600
   0.54231100  0.10636900  0.17918600
   0.87564400  0.10636900  0.17918600
   0.20897700  0.43970300  0.17918600
   0.54231100  0.43970300  0.17918600
   0.87564400  0.43970300  0.17918600
   0.20897700  0.77303600  0.17918600
   0.54231100  0.77303600  0.17918600
   0.87564400  0.77303600  0.17918600
   0.09858522  0.54644249  0.28032751
   0.42753209  0.88501316  0.28183034
   0.76144789  0.21791747  0.28309082
   0.09513927  0.21496568  0.28548684
   0.43417407  0.21940530  0.28586112
   0.09560097  0.88297357  0.28509279
   0.76207674  0.88562195  0.28483299
   0.43140206  0.55035865  0.28290526
   0.76500321  0.55338047  0.28572955
   0.32696366  0.65820353  0.38620081
   0.65020744  0.98961061  0.38816460
   0.32062754  0.32412702  0.39049488
   0.98801930  0.99174821  0.39194955
   0.32348595  0.99213313  0.38865283
   0.64141635  0.32596448  0.39308785
   0.99920212  0.66543658  0.38776144
   0.99882733  0.32203698  0.39353456
   0.65427633  0.66570341  0.38803139
Direct configuration=     4
   0.68959483  0.42692196  0.47444288
   0.90972406  0.39420168  0.46388805
   0.67358520  0.46400273  0.52476615
   0.98675500  0.32859100  0.07437600
   0.32008800  0.32859100  0.07437600
   0.65342200  0.32859100  0.07437600
   0.98675500  0.66192500  0.07437600
   0.32008800  0.66192500  0.07437600
   0.65342200  0.66192500  0.07437600
   0.32008800  0.99525800  0.07437600
   0.65342200  0.99525800  0.07437600
   0.98675500  0.99525800  0.07437600
   0.20897700  0.10636900  0.17918600
   0.54231100  0.10636900  0.17918600
   0.87564400  0.10636900  0.17918600
   0.20897700  0.43970300  0.17918600
   0.54231100  0.43970300  0.17918600
   0.87564400  0.43970300  0.17918600
   0.20897700  0.77303600  0.17918600
   0.54231100  0.77303600  0.17918600
   0.87564400  0.77303600  0.17918600
   0.09782124  0.54668869  0.28138044
   0.42826624  0.88450109  0.28211418
   0.76232924  0.21814646  0.28373074
   0.09489980  0.21579033  0.28563900
   0.43322241  0.21911494  0.28517695
   0.09547416  0.88274335  0.28479282
   0.76304461  0.88574812  0.28433091
   0.43122295  0.54960902  0.28281364
   0.76541822  0.55282848  0.28501153
   0.32611633  0.65919514  0.38621193
   0.65081382  0.99055337  0.38789822
   0.31960803  0.32391867  0.39010998
   0.98796558  0.99147936  0.39165067
   0.32244268  0.99110317  0.38877161
   0.64170306  0.32752200  0.39427154
   0.99914775  0.66575993  0.38765671
   0.99836891  0.32065283  0.39327677
   0.65525386  0.66601116  0.38827566
Direct configuration=     5
   0.68721336  0.42369024  0.47463557
   0.91320965  0.39712288  0.46374413
   0.67482908  0.46447601  0.52430992
   0.98675500  0.32859100  0.07437600
   0.32008800  0.32859100  0.07437600
   0.65342200  0.32859100  0.07437600
   0.98675500  0.66192500  0.07437600
   0.32008800  0.66192500  0.07437600
   0.65342200  0.66192500  0.07437600
   0.32008800  0.99525800  0.07437600
   0.65342200  0.99525800  0.07437600
   0.98675500  0.99525800  0.07437600
   0.20897700  0.10636900  0.17918600
   0.54231100  0.10636900  0.17918600
   0.87564400  0.10636900  0.17918600
   0.20897700  0.43970300  0.17918600
   0.54231100  0.43970300  0.17918600
   0.87564400  0.43970300  0.17918600
   0.20897700  0.77303600  0.17918600
   0.54231100  0.77303600  0.17918600
   0.87564400  0.77303600  0.17918600
   0.09734533  0.54691958  0.28211055
   0.42895753  0.88420620  0.28230750
   0.76264116  0.21835863  0.28432959
   0.09472097  0.21648582  0.28563886
   0.43274581  0.21866310  0.28477530
   0.09560488  0.88265642  0.28448372
   0.76370305  0.88551590  0.28394545
   0.43123338  0.54924399  0.28285861
   0.76540206  0.55205573  0.28451921
   0.32574667  0.66005131  0.38624033
   0.65133717  0.99131532  0.38765452
   0.31915673  0.32379805  0.38968350
   0.98785482  0.99104731  0.39134379
   0.32185834  0.99076772  0.38879560
   0.64080872  0.32750499  0.39432998
   0.99859737  0.66578299  0.38765521
   0.99729512  0.31974808  0.39348208
   0.65596998  0.66652254  0.38822924
