       N       E                     dE             d eps       ncg     rms          rms(c)
DAV:   1     0.242248459644E+04    0.24225E+04   -0.15950E+05  1824   0.129E+03
DAV:   2    -0.646685283549E+02   -0.24872E+04   -0.23097E+04  2128   0.286E+02
DAV:   3    -0.240681161137E+03   -0.17601E+03   -0.15996E+03  2128   0.690E+01
DAV:   4    -0.248453654407E+03   -0.77725E+01   -0.74910E+01  2376   0.138E+01
DAV:   5    -0.248677025226E+03   -0.22337E+00   -0.22122E+00  2376   0.239E+00    0.275E+01
RMM:   6    -0.244969285285E+03    0.37077E+01   -0.55885E+01  1828   0.150E+01    0.285E+01
RMM:   7    -0.241329658852E+03    0.36396E+01   -0.32036E+01  1831   0.893E+00    0.199E+01
RMM:   8    -0.244391784359E+03   -0.30621E+01   -0.90289E+00  1826   0.473E+00    0.231E+01
RMM:   9    -0.231773449433E+03    0.12618E+02   -0.41738E+00  1831   0.330E+00    0.864E+00
RMM:  10    -0.230677237767E+03    0.10962E+01   -0.14790E+00  1831   0.196E+00    0.501E+00
RMM:  11    -0.230289118403E+03    0.38812E+00   -0.40409E-01  1831   0.101E+00    0.291E+00
RMM:  12    -0.230176973763E+03    0.11214E+00   -0.18186E-01  1842   0.669E-01    0.200E+00
RMM:  13    -0.230173377511E+03    0.35963E-02   -0.13748E-01  1831   0.606E-01    0.201E+00
RMM:  14    -0.230123347112E+03    0.50030E-01   -0.83934E-02  1831   0.499E-01    0.877E-01
RMM:  15    -0.230115151976E+03    0.81951E-02   -0.31160E-02  1832   0.307E-01    0.559E-01
RMM:  16    -0.230111941876E+03    0.32101E-02   -0.76550E-03  1831   0.148E-01    0.331E-01
RMM:  17    -0.230110611298E+03    0.13306E-02   -0.21859E-03  1820   0.812E-02    0.153E-01
RMM:  18    -0.230110874992E+03   -0.26369E-03   -0.85839E-04  1764   0.498E-02    0.126E-01
RMM:  19    -0.230110991967E+03   -0.11698E-03   -0.42080E-04  1352   0.365E-02    0.589E-02
RMM:  20    -0.230111150420E+03   -0.15845E-03   -0.12894E-04  1015   0.211E-02    0.353E-02
RMM:  21    -0.230111330901E+03   -0.18048E-03   -0.48921E-05   995   0.125E-02    0.232E-02
RMM:  22    -0.230111490792E+03   -0.15989E-03   -0.30778E-05   964   0.906E-03    0.215E-02
RMM:  23    -0.230111713782E+03   -0.22299E-03   -0.35073E-05   974   0.899E-03    0.160E-02
RMM:  24    -0.230111892009E+03   -0.17823E-03   -0.24162E-05   795   0.722E-03    0.103E-02
RMM:  25    -0.230112074419E+03   -0.18241E-03   -0.21249E-05   737   0.674E-03    0.839E-03
RMM:  26    -0.230112208823E+03   -0.13440E-03   -0.13654E-05   597   0.563E-03    0.744E-03
RMM:  27    -0.230112350264E+03   -0.14144E-03   -0.15578E-05   615   0.565E-03    0.562E-03
RMM:  28    -0.230112392394E+03   -0.42130E-04   -0.35583E-06   292   0.419E-03
   1 F= -.23011239E+03 E0= -.23010798E+03  d E =-.230112E+03
       N       E                     dE             d eps       ncg     rms          rms(c)
DAV:   1    -0.230337369975E+03   -0.22502E+00   -0.33028E+01  1840   0.103E+01    0.637E-01
RMM:   2    -0.230398440348E+03   -0.61070E-01   -0.52601E-01  1833   0.160E+00    0.106E+00
RMM:   3    -0.230398419970E+03    0.20378E-04   -0.38941E-02  1874   0.349E-01    0.102E+00
RMM:   4    -0.230384416557E+03    0.14003E-01   -0.93270E-03  1844   0.163E-01    0.460E-01
RMM:   5    -0.230381429905E+03    0.29867E-02   -0.29082E-03  1837   0.884E-02    0.306E-01
RMM:   6    -0.230381109336E+03    0.32057E-03   -0.33175E-03  1829   0.954E-02    0.286E-01
RMM:   7    -0.230380649870E+03    0.45947E-03   -0.50644E-03  1829   0.119E-01    0.187E-01
RMM:   8    -0.230380188257E+03    0.46161E-03   -0.11021E-03  1812   0.572E-02    0.908E-02
RMM:   9    -0.230380058319E+03    0.12994E-03   -0.23049E-04  1023   0.276E-02    0.554E-02
RMM:  10    -0.230379998380E+03    0.59938E-04   -0.11251E-04   957   0.204E-02
   2 F= -.23038000E+03 E0= -.23037586E+03  d E =-.267606E+00
       N       E                     dE             d eps       ncg     rms          rms(c)
DAV:   1    -0.230476606008E+03   -0.96548E-01   -0.48499E+01  1824   0.129E+01    0.844E-01
RMM:   2    -0.230568103030E+03   -0.91497E-01   -0.92717E-01  1836   0.203E+00    0.897E-01
RMM:   3    -0.230558979700E+03    0.91233E-02   -0.59105E-02  1854   0.441E-01    0.700E-01
RMM:   4    -0.230559772498E+03   -0.79280E-03   -0.92349E-03  1884   0.163E-01    0.783E-01
RMM:   5    -0.230552037878E+03    0.77346E-02   -0.52984E-03  1840   0.118E-01    0.465E-01
RMM:   6    -0.230551865264E+03    0.17261E-03   -0.95416E-03  1831   0.163E-01    0.494E-01
RMM:   7    -0.230548924107E+03    0.29412E-02   -0.58120E-03  1832   0.130E-01    0.220E-01
RMM:   8    -0.230548351526E+03    0.57258E-03   -0.14657E-03  1824   0.659E-02    0.124E-01
RMM:   9    -0.230548186657E+03    0.16487E-03   -0.28876E-04  1091   0.313E-02    0.669E-02
RMM:  10    -0.230548162692E+03    0.23965E-04   -0.14689E-04   983   0.235E-02
   3 F= -.23054816E+03 E0= -.23054379E+03  d E =-.168164E+00
       N       E                     dE             d eps       ncg     rms          rms(c)
DAV:   1    -0.230639117939E+03   -0.90931E-01   -0.14060E+01  1824   0.704E+00    0.503E-01
RMM:   2    -0.230672097460E+03   -0.32980E-01   -0.32089E-01  1847   0.114E+00    0.636E-01
RMM:   3    -0.230672049206E+03    0.48254E-04   -0.17600E-02  1855   0.238E-01    0.714E-01
RMM:   4    -0.230665525877E+03    0.65233E-02   -0.38453E-03  1858   0.104E-01    0.361E-01
RMM:   5    -0.230664088979E+03    0.14369E-02   -0.28580E-03  1832   0.895E-02    0.261E-01
RMM:   6    -0.230664184442E+03   -0.95463E-04   -0.44933E-03  1831   0.114E-01    0.289E-01
RMM:   7    -0.230662949515E+03    0.12349E-02   -0.21469E-03  1826   0.793E-02    0.110E-01
RMM:   8    -0.230662796804E+03    0.15271E-03   -0.42798E-04  1365   0.366E-02    0.763E-02
RMM:   9    -0.230662721221E+03    0.75583E-04   -0.11662E-04   980   0.208E-02
   4 F= -.23066272E+03 E0= -.23065810E+03  d E =-.114559E+00
       N       E                     dE             d eps       ncg     rms          rms(c)
DAV:   1    -0.230709923465E+03   -0.47127E-01   -0.10866E+01  1824   0.635E+00    0.440E-01
RMM:   2    -0.230733037681E+03   -0.23114E-01   -0.19227E-01  1833   0.916E-01    0.633E-01
RMM:   3    -0.230732954242E+03    0.83439E-04   -0.12692E-02  1872   0.200E-01    0.644E-01
RMM:   4    -0.230727489180E+03    0.54651E-02   -0.40208E-03  1842   0.106E-01    0.296E-01
RMM:   5    -0.230726360370E+03    0.11288E-02   -0.16465E-03  1827   0.682E-02    0.168E-01
RMM:   6    -0.230726716541E+03   -0.35617E-03   -0.19314E-03  1823   0.730E-02    0.203E-01
RMM:   7    -0.230726192032E+03    0.52451E-03   -0.11548E-03  1818   0.584E-02    0.747E-02
RMM:   8    -0.230726092639E+03    0.99393E-04   -0.16264E-04   995   0.235E-02
   5 F= -.23072609E+03 E0= -.23072160E+03  d E =-.633714E-01
       N       E                     dE             d eps       ncg     rms          rms(c)
