 vasp.5.4.4 16052018 (build Apr 24 2014 20:13:14) complex standard
 Contain Constrained Minimization Technique (TS), Periodic NBO, VASPsol, libbeef, VASP2WANNIER90, Constrained Cell Relaxation
 executed on Center for Computational Chemistry by phu@node06 date 2025.09.27 23:49:52
 running on    8 total cores
 distrk:  each k-point on    8 cores,    1 groups
 distr:  one band on NCORES_PER_BAND=   2 cores,    4 groups


--------------------------------------------------------------------------------------------------------


 INCAR:
 POTCAR:   PAW_PBE C 08Apr2002                    
 POTCAR:   PAW_PBE O 08Apr2002                    
 POTCAR:    PAW_PBE Pt 04Feb2005                  
 POTCAR:   PAW_PBE C 08Apr2002                    
   VRHFIN =C: s2p2                                                              
   LEXCH  = PE                                                                  
   EATOM  =   147.1560 eV,   10.8157 Ry                                         
                                                                                
   TITEL  = PAW_PBE C 08Apr2002                                                 
   LULTRA =        F    use ultrasoft PP ?                                      
   IUNSCR =        0    unscreen: 0-lin 1-nonlin 2-no                           
   RPACOR =     .000    partial core radius                                     
   POMASS =   12.011; ZVAL   =    4.000    mass and valenz                      
   RCORE  =    1.500    outmost cutoff radius                                   
   RWIGS  =    1.630; RWIGS  =     .863    wigner-seitz radius (au A)           
   ENMAX  =  400.000; ENMIN  =  300.000 eV                                      
   ICORE  =        2    local potential                                         
   LCOR   =        T    correct aug charges                                     
   LPAW   =        T    paw PP                                                  
   EAUG   =  644.873                                                            
   DEXC   =     .000                                                            
   RMAX   =    2.266    core radius for proj-oper                               
   RAUG   =    1.300    factor for augmentation sphere                          
   RDEP   =    1.501    radius for radial grids                                 
   RDEPT  =    1.300    core radius for aug-charge                              
   QCUT   =   -5.516; QGAM   =   11.032    optimization parameters              
                                                                                
   Description                                                                  
     l     E      TYP  RCUT    TYP  RCUT                                        
     0   .000     23  1.200                                                     
     0   .000     23  1.200                                                     
     1   .000     23  1.500                                                     
     1  2.500     23  1.500                                                     
     2   .000      7  1.500                                                     
  local pseudopotential read in
  atomic valenz-charges read in
  non local Contribution for L=           0  read in
    real space projection operators read in
  non local Contribution for L=           0  read in
    real space projection operators read in
  non local Contribution for L=           1  read in
    real space projection operators read in
  non local Contribution for L=           1  read in
    real space projection operators read in
    PAW grid and wavefunctions read in
 
   number of l-projection  operators is LMAX  =           4
   number of lm-projection operators is LMMAX =           8
 
 POTCAR:   PAW_PBE O 08Apr2002                    
   VRHFIN =O: s2p4                                                              
   LEXCH  = PE                                                                  
   EATOM  =   432.3788 eV,   31.7789 Ry                                         
                                                                                
   TITEL  = PAW_PBE O 08Apr2002                                                 
   LULTRA =        F    use ultrasoft PP ?                                      
   IUNSCR =        0    unscreen: 0-lin 1-nonlin 2-no                           
   RPACOR =     .000    partial core radius                                     
   POMASS =   16.000; ZVAL   =    6.000    mass and valenz                      
   RCORE  =    1.520    outmost cutoff radius                                   
   RWIGS  =    1.550; RWIGS  =     .820    wigner-seitz radius (au A)           
   ENMAX  =  400.000; ENMIN  =  300.000 eV                                      
   ICORE  =        2    local potential                                         
   LCOR   =        T    correct aug charges                                     
   LPAW   =        T    paw PP                                                  
   EAUG   =  605.392                                                            
   DEXC   =     .000                                                            
   RMAX   =    2.264    core radius for proj-oper                               
   RAUG   =    1.300    factor for augmentation sphere                          
   RDEP   =    1.550    radius for radial grids                                 
   QCUT   =   -5.520; QGAM   =   11.041    optimization parameters              
                                                                                
   Description                                                                  
     l     E      TYP  RCUT    TYP  RCUT                                        
     0   .000     23  1.200                                                     
     0  -.700     23  1.200                                                     
     1   .000     23  1.520                                                     
     1   .600     23  1.520                                                     
     2   .000      7  1.500                                                     
  local pseudopotential read in
  atomic valenz-charges read in
  non local Contribution for L=           0  read in
    real space projection operators read in
  non local Contribution for L=           0  read in
    real space projection operators read in
  non local Contribution for L=           1  read in
    real space projection operators read in
  non local Contribution for L=           1  read in
    real space projection operators read in
    PAW grid and wavefunctions read in
 
   number of l-projection  operators is LMAX  =           4
   number of lm-projection operators is LMMAX =           8
 
 POTCAR:    PAW_PBE Pt 04Feb2005                  
   VRHFIN =Pt: s1d9                                                             
   LEXCH  = PE                                                                  
   EATOM  =   729.1182 eV,   53.5887 Ry                                         
                                                                                
   TITEL  = PAW_PBE Pt 04Feb2005                                                
   LULTRA =        F    use ultrasoft PP ?                                      
   IUNSCR =        1    unscreen: 0-lin 1-nonlin 2-no                           
   RPACOR =    2.330    partial core radius                                     
   POMASS =  195.080; ZVAL   =   10.000    mass and valenz                      
   RCORE  =    2.600    outmost cutoff radius                                   
   RWIGS  =    2.750; RWIGS  =    1.455    wigner-seitz radius (au A)           
   ENMAX  =  230.283; ENMIN  =  172.712 eV                                      
   ICORE  =        3    local potential                                         
   LCOR   =        T    correct aug charges                                     
   LPAW   =        T    paw PP                                                  
   EAUG   =  358.966                                                            
   DEXC   =     .000                                                            
   RMAX   =    3.038    core radius for proj-oper                               
   RAUG   =    1.300    factor for augmentation sphere                          
   RDEP   =    2.761    radius for radial grids                                 
   QCUT   =   -4.114; QGAM   =    8.228    optimization parameters              
                                                                                
   Description                                                                  
     l     E      TYP  RCUT    TYP  RCUT                                        
     2   .000     23  2.500                                                     
     2   .000     23  2.500                                                     
     0   .000     23  2.500                                                     
     0   .000     23  2.500                                                     
     1  -.200     23  2.600                                                     
     1  1.500     23  2.600                                                     
     3   .000     23  2.500                                                     
  local pseudopotential read in
  partial core-charges read in
  atomic valenz-charges read in
  non local Contribution for L=           2  read in
    real space projection operators read in
  non local Contribution for L=           2  read in
    real space projection operators read in
  non local Contribution for L=           0  read in
    real space projection operators read in
  non local Contribution for L=           0  read in
    real space projection operators read in
  non local Contribution for L=           1  read in
    real space projection operators read in
  non local Contribution for L=           1  read in
    real space projection operators read in
    PAW grid and wavefunctions read in
 
   number of l-projection  operators is LMAX  =           6
   number of lm-projection operators is LMMAX =          18
 
 Optimization of the real space projectors (new method)

 maximal supplied QI-value         = 25.13
 optimisation between [QCUT,QGAM] = [ 10.81, 21.61] = [ 32.71,130.83] Ry 
 Optimized for a Real-space Cutoff    1.23 Angstroem

   l    n(q)    QCUT    max X(q) W(low)/X(q) W(high)/X(q)  e(spline) 
   0      8    10.807     5.582    0.53E-04    0.84E-04    0.44E-07
   0      8    10.807    69.432    0.35E-03    0.71E-03    0.24E-06
   1      7    10.807     2.780    0.44E-04    0.88E-04    0.89E-07
   1      7    10.807     4.549    0.14E-03    0.28E-03    0.13E-06
 Optimization of the real space projectors (new method)

 maximal supplied QI-value         = 24.76
 optimisation between [QCUT,QGAM] = [ 10.64, 21.54] = [ 31.73,129.89] Ry 
 Optimized for a Real-space Cutoff    1.23 Angstroem

   l    n(q)    QCUT    max X(q) W(low)/X(q) W(high)/X(q)  e(spline) 
   0      8    10.645     4.192    0.69E-04    0.93E-04    0.58E-07
   0      8    10.645     8.473    0.40E-03    0.65E-03    0.17E-06
   1      7    10.645     2.474    0.80E-04    0.12E-03    0.30E-07
   1      7    10.645     3.912    0.24E-03    0.53E-03    0.16E-06
 Optimization of the real space projectors (new method)

 maximal supplied QI-value         = 14.36
 optimisation between [QCUT,QGAM] = [ 10.77, 21.69] = [ 32.49,131.70] Ry 
 Optimized for a Real-space Cutoff    1.46 Angstroem

   l    n(q)    QCUT    max X(q) W(low)/X(q) W(high)/X(q)  e(spline) 
   2      9    10.771     3.903    0.38E-04    0.12E-03    0.82E-07
   2      9    10.771    18.372    0.13E-03    0.32E-03    0.28E-06
   0     10    10.771    13.697    0.11E-04    0.86E-05    0.85E-08
   0     10    10.771    65.529    0.40E-04    0.12E-03    0.14E-06
   1      9    10.771     7.604    0.48E-04    0.31E-04    0.38E-07
   1      9    10.771    12.136    0.35E-03    0.16E-03    0.23E-06
 PAW_PBE C 08Apr2002                    :
 energy of atom  1       EATOM= -147.1560
 kinetic energy error for atom=    0.0116 (will be added to EATOM!!)
 PAW_PBE O 08Apr2002                    :
 energy of atom  2       EATOM= -432.3788
 kinetic energy error for atom=    0.0389 (will be added to EATOM!!)
  PAW_PBE Pt 04Feb2005                  :
 energy of atom  3       EATOM= -729.1182
 kinetic energy error for atom=    0.0051 (will be added to EATOM!!)
 
 
 POSCAR: C    O    Pt                            
  positions in direct lattice
  No initial velocities read in
 exchange correlation table for  LEXCH =        8
   RHO(1)=    0.500       N(1)  =     2000
   RHO(2)=  100.500       N(2)  =     4000

 VTST: version 3.2, (02/03/18)

 CHAIN: initializing optimizer
 
 OPT: Using VASP QUASI-newton optimizer
 CHAIN: Read ICHAIN            0
 
 POSCAR: C    O    Pt                            
  positions in direct lattice
  No initial velocities read in
 


--------------------------------------------------------------------------------------------------------


 ion  position               nearest neighbor table
   1  0.699  0.433  0.471-   3 1.16  36 1.86   2 1.96  39 2.78
   2  0.904  0.386  0.468-  38 1.92   1 1.96  36 2.54
   3  0.670  0.460  0.521-   1 1.16
   4  0.987  0.329  0.074-  15 2.81  16 2.81  12 2.81   5 2.81  11 2.81   6 2.81  18 2.81   8 2.81
                             7 2.81
   5  0.320  0.329  0.074-  13 2.81  10 2.81   4 2.81  12 2.81  16 2.81  17 2.81   8 2.81   9 2.81
                             6 2.81
   6  0.653  0.329  0.074-  14 2.81  18 2.81  11 2.81   4 2.81  17 2.81   7 2.81  10 2.81   9 2.81
                             5 2.81
   7  0.987  0.662  0.074-  18 2.81  21 2.81  19 2.81  12 2.81   8 2.81  10 2.81   9 2.81   6 2.81
                             4 2.81
   8  0.320  0.662  0.074-  16 2.81  19 2.81  10 2.81   7 2.81  20 2.81   4 2.81  11 2.81   5 2.81
                             9 2.81
   9  0.653  0.662  0.074-  17 2.81  20 2.81  21 2.81  11 2.81  12 2.81   7 2.81   6 2.81   5 2.81
                             8 2.81
  10  0.320  0.995  0.074-  13 2.81  19 2.81   5 2.81   8 2.81  12 2.81   7 2.81  14 2.81   6 2.81
                            11 2.81
  11  0.653  0.995  0.074-  14 2.81  20 2.81  15 2.81   9 2.81   6 2.81  12 2.81   4 2.81   8 2.81
                            10 2.81
  12  0.987  0.995  0.074-  15 2.81  21 2.81  13 2.81   7 2.81   4 2.81  10 2.81   5 2.81  11 2.81
                             9 2.81
  13  0.209  0.106  0.179-  25 2.80  10 2.81   5 2.81  12 2.81  19 2.81  15 2.81  21 2.81  16 2.81
                            17 2.81  14 2.81  27 2.84  26 2.85
  14  0.542  0.106  0.179-  23 2.76  11 2.81   6 2.81  20 2.81  15 2.81  10 2.81  18 2.81  19 2.81
                            17 2.81  13 2.81  26 2.85  24 2.88
  15  0.876  0.106  0.179-  28 2.72  25 2.74   4 2.81  12 2.81  11 2.81  21 2.81  13 2.81  20 2.81
                            14 2.81  16 2.81  18 2.81  24 2.85
  16  0.209  0.440  0.179-  25 2.77   8 2.81   4 2.81  19 2.81  18 2.81   5 2.81  15 2.81  20 2.81
                            13 2.81  17 2.81  29 2.81  22 2.85
  17  0.542  0.440  0.179-  30 2.78  29 2.78   9 2.81  20 2.81  21 2.81  18 2.81   6 2.81   5 2.81
                            14 2.81  16 2.81  13 2.81  26 2.88
  18  0.876  0.440  0.179-  30 2.78   7 2.81   6 2.81  21 2.81  16 2.81  19 2.81  17 2.81   4 2.81
                            14 2.81  15 2.81  22 2.81  24 2.86
  19  0.209  0.773  0.179-  23 2.77  10 2.81   8 2.81   7 2.81  16 2.81  13 2.81  21 2.81  18 2.81
                            14 2.81  20 2.81  27 2.81  22 2.82
  20  0.542  0.773  0.179-  28 2.71  23 2.77  29 2.80  11 2.81   9 2.81  17 2.81  14 2.81  21 2.81
                            15 2.81   8 2.81  16 2.81  19 2.81
  21  0.876  0.773  0.179-  28 2.72  12 2.81   7 2.81   9 2.81  18 2.81  15 2.81  19 2.81  13 2.81
                            17 2.81  20 2.81  30 2.81  27 2.84
  22  0.094  0.552  0.285-  37 2.69  27 2.74  30 2.77  24 2.78  25 2.81  18 2.81  19 2.82  23 2.83
                            16 2.85  31 2.86  29 2.88  38 2.95
  23  0.431  0.886  0.282-  35 2.74  14 2.76  26 2.76  19 2.77  27 2.77  20 2.77  32 2.80  28 2.80
                            24 2.82  22 2.83  29 2.84  31 2.92
  24  0.768  0.219  0.287-  32 2.72  25 2.73  30 2.78  22 2.78  28 2.80  23 2.82  26 2.83  15 2.85
                            18 2.86  14 2.88  38 2.88  36 2.89
  25  0.091  0.218  0.282-  24 2.73  15 2.74  16 2.77  28 2.79  13 2.80  22 2.81  29 2.85  26 2.87
                            34 2.87  27 2.88  38 2.91  33 2.95
  26  0.429  0.212  0.287-  35 2.68  23 2.76  33 2.78  27 2.78  30 2.80  24 2.83  29 2.83  36 2.84
                            14 2.85  13 2.85  25 2.87  17 2.88
  27  0.101  0.881  0.285-  37 2.67  35 2.70  22 2.74  23 2.77  26 2.78  34 2.78  19 2.81  21 2.84
                            13 2.84  30 2.85  28 2.86  25 2.88
  28  0.763  0.884  0.279-  20 2.71  15 2.72  21 2.72  25 2.79  29 2.79  23 2.80  24 2.80  32 2.84
                            30 2.85  27 2.86  34 2.90  39 2.93
  29  0.435  0.551  0.283-  30 2.77  17 2.78  28 2.79  20 2.80  16 2.81  26 2.83  39 2.84  23 2.84
                            31 2.85  25 2.85  22 2.88  33 2.91
  30  0.761  0.545  0.283-  22 2.77  29 2.77  17 2.78  24 2.78  18 2.78  37 2.78  26 2.80  21 2.81
                            27 2.85  28 2.85  39 2.86  36 2.93
  31  0.322  0.657  0.391-  39 2.78  35 2.81  38 2.82  32 2.82  33 2.83  37 2.84  29 2.85  22 2.86
                            23 2.92
  32  0.654  0.994  0.386-  24 2.72  35 2.78  38 2.80  23 2.80  39 2.80  34 2.82  36 2.82  31 2.82
                            28 2.84
  33  0.325  0.322  0.392-  36 2.69  26 2.78  35 2.79  39 2.83  38 2.83  31 2.83  34 2.84  29 2.91
                            25 2.95
  34  0.985  0.988  0.389-  37 2.73  39 2.76  27 2.78  38 2.79  32 2.82  35 2.83  33 2.84  25 2.87
                            28 2.90
  35  0.321  0.990  0.385-  26 2.68  27 2.70  23 2.74  37 2.75  32 2.78  36 2.78  33 2.79  31 2.81
                            34 2.83
  36  0.645  0.324  0.395-   1 1.86   2 2.54  33 2.69  35 2.78  39 2.81  32 2.82  26 2.84  24 2.89
                            38 2.91  37 2.91  30 2.93
  37  0.991  0.667  0.384-  27 2.67  22 2.69  34 2.73  35 2.75  30 2.78  39 2.81  31 2.84  36 2.91
                            38 2.92
  38  0.989  0.321  0.396-   2 1.92  34 2.79  32 2.80  31 2.82  33 2.83  24 2.88  25 2.91  36 2.91
                            37 2.92  22 2.95
  39  0.655  0.663  0.390-  34 2.76   1 2.78  31 2.78  32 2.80  36 2.81  37 2.81  33 2.83  29 2.84
                            30 2.86  28 2.93
 

IMPORTANT INFORMATION: All symmetrisations will be switched off!
NOSYMM: (Re-)initialisation of all symmetry stuff for point group C_1.

 
 
 KPOINTS: mesh auto                               

Automatic generation of k-mesh.
Space group operators:
 irot       det(A)        alpha          n_x          n_y          n_z        tau_x        tau_y        tau_z
    1     1.000000     0.000000     1.000000     0.000000     0.000000     0.000000     0.000000     0.000000
 
 Subroutine IBZKPT returns following result:
 ===========================================
 
 Found      4 irreducible k-points:
 
 Following reciprocal coordinates:
            Coordinates               Weight
  0.000000  0.000000  0.000000      1.000000
  0.500000  0.000000  0.000000      1.000000
 -0.000000  0.500000  0.000000      1.000000
  0.500000  0.500000  0.000000      1.000000
 
 Following cartesian coordinates:
            Coordinates               Weight
  0.000000  0.000000  0.000000      1.000000
  0.068522  0.000000  0.000000      1.000000
  0.034261  0.059342  0.000000      1.000000
  0.102783  0.059342  0.000000      1.000000
 


--------------------------------------------------------------------------------------------------------




 Dimension of arrays:
   k-points           NKPTS =      4   k-points in BZ     NKDIM =      4   number of bands    NBANDS=    228
   number of dos      NEDOS =    301   number of ions     NIONS =     39
   non local maximal  LDIM  =      6   non local SUM 2l+1 LMDIM =     18
   total plane-waves  NPLWV = 276480
   max r-space proj   IRMAX =   2756   max aug-charges    IRDMAX=  12646
   dimension x,y,z NGX =    48 NGY =   48 NGZ =  120
   dimension x,y,z NGXF=    96 NGYF=   96 NGZF=  240
   support grid    NGXF=    96 NGYF=   96 NGZF=  240
   ions per type =               1   2  36
   NGX,Y,Z   is equivalent  to a cutoff of   9.47,  9.47,  9.12 a.u.
   NGXF,Y,Z  is equivalent  to a cutoff of  18.94, 18.94, 18.24 a.u.

 SYSTEM =  metal                                   
 POSCAR =  C    O    Pt                            

 Startparameter for this run:
   NWRITE =      2    write-flag & timer
   PREC   = normal    normal or accurate (medium, high low for compatibility)
   ISTART =      0    job   : 0-new  1-cont  2-samecut
   ICHARG =      2    charge: 1-file 2-atom 10-const
   ISPIN  =      1    spin polarized calculation?
   LNONCOLLINEAR =      F non collinear calculations
   LSORBIT =      F    spin-orbit coupling
   INIWAV =      1    electr: 0-lowe 1-rand  2-diag
   LASPH  =      F    aspherical Exc in radial PAW
   METAGGA=      F    non-selfconsistent MetaGGA calc.

 Electronic Relaxation 1
   ENCUT  =  450.0 eV  33.07 Ry    5.75 a.u.  14.57 14.57 37.84*2*pi/ulx,y,z
   ENINI  =  450.0     initial cutoff
   ENAUG  =  644.9 eV  augmentation charge cutoff
   NELM   =     60;   NELMIN=  8; NELMDL= -5     # of ELM steps 
   EDIFF  = 0.1E-03   stopping-criterion for ELM
   LREAL  =      T    real-space projection
   NLSPLINE    = F    spline interpolate recip. space projectors
   LCOMPAT=      F    compatible to vasp.4.4
   GGA_COMPAT  = T    GGA compatible to vasp.4.4-vasp.4.6
   LMAXPAW     = -100 max onsite density
   LMAXMIX     =    2 max onsite mixed and CHGCAR
   VOSKOWN=      0    Vosko Wilk Nusair interpolation
   ROPT   =   -0.00050  -0.00050  -0.00050
 Ionic relaxation
   EDIFFG = -.5E-01   stopping-criterion for IOM
   NSW    =   5000    number of steps for IOM
   NBLOCK =      1;   KBLOCK =   5000    inner block; outer block 
   IBRION =      1    ionic relax: 0-MD 1-quasi-New 2-CG
   NFREE  =      0    steps in history (QN), initial steepest desc. (CG)
   ISIF   =      2    stress and relaxation
   IWAVPR =     11    prediction:  0-non 1-charg 2-wave 3-comb
   ISYM   =      0    0-nonsym 1-usesym 2-fastsym
   LCORR  =      T    Harris-Foulkes like correction to forces

   POTIM  = 0.2000    time-step for ionic-motion
   TEIN   =    0.0    initial temperature
   TEBEG  =    0.0;   TEEND  =   0.0 temperature during run
   SMASS  =  -3.00    Nose mass-parameter (am)
   estimated Nose-frequenzy (Omega)   =  0.10E-29 period in steps =****** mass=  -0.162E-26a.u.
   SCALEE = 1.0000    scale energy and forces
   NPACO  =    256;   APACO  = 16.0  distance and # of slots for P.C.
   PSTRESS=    0.0 pullay stress

  Mass of Ions in am
   POMASS =  12.01 16.00195.08
  Ionic Valenz
   ZVAL   =   4.00  6.00 10.00
  Atomic Wigner-Seitz radii
   RWIGS  =  -1.00 -1.00 -1.00
  virtual crystal weights 
   VCA    =   1.00  1.00  1.00
   NELECT =     376.0000    total number of electrons
   NUPDOWN=      -1.0000    fix difference up-down

 DOS related values:
   EMIN   =  10.00;   EMAX   =-10.00  energy-range for DOS
   EFERMI =   0.00
   ISMEAR =     1;   SIGMA  =   0.20  broadening in eV -4-tet -1-fermi 0-gaus

 Electronic relaxation 2 (details)
   IALGO  =     68    algorithm
   LDIAG  =      T    sub-space diagonalisation (order eigenvalues)
   LSUBROT=      F    optimize rotation matrix (better conditioning)
   TURBO    =      0    0=normal 1=particle mesh
   IRESTART =      0    0=no restart 2=restart with 2 vectors
   NREBOOT  =      0    no. of reboots
   NMIN     =      0    reboot dimension
   EREF     =   0.00    reference energy to select bands
   IMIX   =      4    mixing-type and parameters
     AMIX     =   0.40;   BMIX     =  1.00
     AMIX_MAG =   1.60;   BMIX_MAG =  1.00
     AMIN     =   0.10
     WC   =   100.;   INIMIX=   1;  MIXPRE=   1;  MAXMIX= -45

 Intra band minimization:
   WEIMIN = 0.0010     energy-eigenvalue tresh-hold
   EBREAK =  0.11E-06  absolut break condition
   DEPER  =   0.30     relativ break condition  

   TIME   =   0.40     timestep for ELM

  volume/ion in A,a.u.               =      34.49       232.77
  Fermi-wavevector in a.u.,A,eV,Ry     =   1.070385  2.022734 15.588510  1.145723
  Thomas-Fermi vector in A             =   2.206093
 
 Write flags
   LWAVE        =      F    write WAVECAR
   LDOWNSAMPLE  =      F    k-point downsampling of WAVECAR
   LCHARG       =      F    write CHGCAR
   LVTOT        =      F    write LOCPOT, total local potential
   LVHAR        =      F    write LOCPOT, Hartree potential only
   LELF         =      F    write electronic localiz. function (ELF)
   LORBIT       =      0    0 simple, 1 ext, 2 COOP (PROOUT), +10 PAW based schemes


 Dipole corrections
   LMONO  =      F    monopole corrections only (constant potential shift)
   LDIPOL =      F    correct potential (dipole corrections)
   IDIPOL =      0    1-x, 2-y, 3-z, 4-all directions 
   EPSILON=  1.0000000 bulk dielectric constant

 Exchange correlation treatment:
   GGA     =    --    GGA type
   LEXCH   =     8    internal setting for exchange type
   VOSKOWN=      0    Vosko Wilk Nusair interpolation
   LHFCALC =     F    Hartree Fock is set to
   LHFONE  =     F    Hartree Fock one center treatment
   AEXX    =    0.0000 exact exchange contribution

 Linear response parameters
   LEPSILON=     F    determine dielectric tensor
   LRPA    =     F    only Hartree local field effects (RPA)
   LNABLA  =     F    use nabla operator in PAW spheres
   LVEL    =     F    velocity operator in full k-point grid
   LINTERFAST=   F  fast interpolation
   KINTER  =     0    interpolate to denser k-point grid
   CSHIFT  =0.1000    complex shift for real part using Kramers Kronig
   OMEGAMAX=  -1.0    maximum frequency
   DEG_THRESHOLD= 0.2000000E-02 threshold for treating states as degnerate
   RTIME   =   -0.100 relaxation time in fs
  (WPLASMAI=    0.000 imaginary part of plasma frequency in eV, 0.658/RTIME)
   DFIELD  = 0.0000000 0.0000000 0.0000000 field for delta impulse in time
 
 Orbital magnetization related:
   ORBITALMAG=     F  switch on orbital magnetization
   LCHIMAG   =     F  perturbation theory with respect to B field
   DQ        =  0.001000  dq finite difference perturbation B field
   LLRAUG    =     F  two centre corrections for induced B field



--------------------------------------------------------------------------------------------------------


 quasi-Newton-method for relaxation of ions
   using selective dynamics as specified on POSCAR
 charge density and potential will be updated during run
 non-spin polarized calculation
 RMM-DIIS sequential band-by-band and
  variant of blocked Davidson during initial phase
 perform sub-space diagonalisation
    before iterative eigenvector-optimisation
 modified Broyden-mixing scheme, WC =      100.0
 initial mixing is a Kerker type mixing with AMIX =  0.4000 and BMIX =      1.0000
 Hartree-type preconditioning will be used
 using additional bands           40
 real space projection scheme for non local part
 use partial core corrections
 calculate Harris-corrections to forces 
   (improved forces if not selfconsistent)
 use gradient corrections 
 use of overlap-Matrix (Vanderbilt PP)
 Methfessel and Paxton  Order N= 1 SIGMA  =   0.20


--------------------------------------------------------------------------------------------------------


  energy-cutoff  :      450.00
  volume of cell :     1345.22
      direct lattice vectors                 reciprocal lattice vectors
     7.296955120 -4.212899000  0.000000000     0.137043463  0.000000000  0.000000000
     0.000000000  8.425798000  0.000000000     0.068521732  0.118683121  0.000000000
     0.000000000  0.000000000 21.879635000     0.000000000  0.000000000  0.045704602

  length of vectors
     8.425798004  8.425798000 21.879635000     0.137043463  0.137043463  0.045704602


 
 k-points in units of 2pi/SCALE and weight: mesh auto                               
   0.00000000  0.00000000  0.00000000       0.250
   0.06852173  0.00000000  0.00000000       0.250
   0.03426087  0.05934156  0.00000000       0.250
   0.10278260  0.05934156  0.00000000       0.250
 
 k-points in reciprocal lattice and weights: mesh auto                               
   0.00000000  0.00000000  0.00000000       0.250
   0.50000000  0.00000000  0.00000000       0.250
  -0.00000000  0.50000000  0.00000000       0.250
   0.50000000  0.50000000  0.00000000       0.250
 
 position of ions in fractional coordinates (direct lattice) 
   0.69862229  0.43324087  0.47147655
   0.90406583  0.38624030  0.46770478
   0.67048575  0.46009675  0.52136508
   0.98675500  0.32859100  0.07437600
   0.32008800  0.32859100  0.07437600
   0.65342200  0.32859100  0.07437600
   0.98675500  0.66192500  0.07437600
   0.32008800  0.66192500  0.07437600
   0.65342200  0.66192500  0.07437600
   0.32008800  0.99525800  0.07437600
   0.65342200  0.99525800  0.07437600
   0.98675500  0.99525800  0.07437600
   0.20897700  0.10636900  0.17918600
   0.54231100  0.10636900  0.17918600
   0.87564400  0.10636900  0.17918600
   0.20897700  0.43970300  0.17918600
   0.54231100  0.43970300  0.17918600
   0.87564400  0.43970300  0.17918600
   0.20897700  0.77303600  0.17918600
   0.54231100  0.77303600  0.17918600
   0.87564400  0.77303600  0.17918600
   0.09368611  0.55218988  0.28498636
   0.43139568  0.88601493  0.28158679
   0.76789332  0.21879616  0.28693859
   0.09129940  0.21781342  0.28187315
   0.42941562  0.21236375  0.28694197
   0.10059678  0.88131156  0.28533730
   0.76310575  0.88431861  0.27881589
   0.43508647  0.55074037  0.28321412
   0.76114253  0.54481947  0.28290842
   0.32211502  0.65704994  0.39109805
   0.65353798  0.99448908  0.38599754
   0.32494209  0.32202795  0.39193842
   0.98484603  0.98826784  0.38859254
   0.32099527  0.98964053  0.38451161
   0.64504442  0.32407646  0.39486700
   0.99089882  0.66727475  0.38431800
   0.98919983  0.32133653  0.39583769
   0.65493761  0.66254826  0.39036116
 
 position of ions in cartesian coordinates  (Angst):
   5.09781550  0.70717489 10.31573481
   6.59692781 -0.55435530 10.23320989
   4.89250439  1.05199355 11.40727768
   7.20030695 -1.38845776  1.62731973
   2.33566777  1.42014298  1.62731973
   4.76799101  0.01584050  1.62731973
   7.20030695  1.42014719  1.62731973
   2.33566777  4.22874793  1.62731973
   4.76799101  2.82444545  1.62731973
   2.33566777  7.03734445  1.62731973
   4.76799101  5.63304198  1.62731973
   7.20030695  4.22874371  1.62731973
   1.52489579  0.01584471  3.92052428
   3.95721903 -1.38845776  3.92052428
   6.38953497 -2.79275602  3.92052428
   1.52489579  2.82444966  3.92052428
   3.95721903  1.42014719  3.92052428
   6.38953497  0.01584893  3.92052428
   1.52489579  5.63304619  3.92052428
   3.95721903  4.22874371  3.92052428
   6.38953497  2.82444545  3.92052428
   0.68362332  4.25795026  6.23539744
   3.14787489  5.64795638  6.16101609
   5.60328312 -1.39152475  6.27811161
   0.66620765  1.45061671  6.16728156
   3.13342650 -0.01975057  6.27818550
   0.73405016  7.00194915  6.24307589
   5.56834843  4.23620250  6.10038998
   3.17480644  2.80745175  6.19662148
   5.55402286  1.38392219  6.18993297
   2.35045885  4.17913203  8.55708262
   4.76883731  5.62607463  8.44548519
   2.37108785  1.34439424  8.57546959
   7.18637728  4.17788837  8.50226302
   2.34228805  6.98619059  8.41297376
   4.70686020  0.01309582  8.63954575
   7.23054425  1.44776563  8.40873753
   7.21814677 -1.45988226  8.66078413
   4.77905032  2.82331181  8.54095966
 


--------------------------------------------------------------------------------------------------------


 k-point  1 :   0.0000 0.0000 0.0000  plane waves:   29241
 k-point  2 :   0.5000 0.0000 0.0000  plane waves:   29108
 k-point  3 :  -0.0000 0.5000 0.0000  plane waves:   29108
 k-point  4 :   0.5000 0.5000 0.0000  plane waves:   29108

 maximum and minimum number of plane-waves per node :     14624    14548

 maximum number of plane-waves:     29241
 maximum index in each direction: 
   IXMAX=   14   IYMAX=   14   IZMAX=   37
   IXMIN=  -15   IYMIN=  -15   IZMIN=  -37


 real space projection operators:
  total allocation   :      13548.97 KBytes
  max/ min on nodes  :       6781.70       6767.27


 parallel 3D FFT for wavefunctions:
    minimum data exchange during FFTs selected (reduces bandwidth)
 parallel 3D FFT for charge:
    minimum data exchange during FFTs selected (reduces bandwidth)


 total amount of memory used by VASP MPI-rank0   131949. kBytes
=======================================================================

   base      :      30000. kBytes
   nonlr-proj:      10141. kBytes
   fftplans  :      13556. kBytes
   grid      :      23353. kBytes
   one-center:        311. kBytes
   wavefun   :      54588. kBytes
 
     INWAV:  cpu time    0.0000: real time    0.0000
 Broyden mixing: mesh for mixing (old mesh)
   NGX = 29   NGY = 29   NGZ = 75
  (NGX  = 96   NGY  = 96   NGZ  =240)
  gives a total of  63075 points

 initial charge density was supplied:
 charge density of overlapping atoms calculated
 number of electron     376.0000000 magnetization 
 keeping initial charge density in first step


--------------------------------------------------------------------------------------------------------


 Maximum index for non-local projection operator         1322
 Maximum index for augmentation-charges         1558 (set IRDMAX)


--------------------------------------------------------------------------------------------------------


 First call to EWALD:  gamma=   0.161
 Maximum number of real-space cells 4x 4x 2
 Maximum number of reciprocal cells 2x 2x 5

    FEWALD:  cpu time    0.0022: real time    0.0022


--------------------------------------- Iteration      1(   1)  ---------------------------------------


    POTLOK:  cpu time    0.1374: real time    0.4289
    SETDIJ:  cpu time    0.0101: real time    0.0102
     EDDAV:  cpu time    8.0285: real time    8.0851
       DOS:  cpu time    0.0010: real time    0.0010
    --------------------------------------------
      LOOP:  cpu time    8.1771: real time    8.5252

 eigenvalue-minimisations  :  1824
 total energy-change (2. order) : 0.2422485E+04  (-0.1595008E+05)
 number of electron     376.0000000 magnetization 
 augmentation part      376.0000000 magnetization 

 Free energy of the ion-electron system (eV)
  ---------------------------------------------------
  alpha Z        PSCENC =       975.10247152
  Ewald energy   TEWEN  =     90967.52340517
  -Hartree energ DENC   =   -120056.66882381
  -exchange      EXHF   =         0.00000000
  -V(xc)+E(xc)   XCENC  =       189.61801031
  PAW double counting   =     24789.08602224   -23775.73976456
  entropy T*S    EENTRO =         0.01463667
  eigenvalues    EBANDS =      2073.65447804
  atomic energy  EATOM  =     27259.89416086
  Solvation  Ediel_sol  =         0.00000000
  ---------------------------------------------------
  free energy    TOTEN  =      2422.48459644 eV

  energy without entropy =     2422.46995977  energy(sigma->0) =     2422.47971755


--------------------------------------------------------------------------------------------------------




--------------------------------------- Iteration      1(   2)  ---------------------------------------


     EDDAV:  cpu time    9.2396: real time    9.3056
       DOS:  cpu time    0.0010: real time    0.0011
    --------------------------------------------
      LOOP:  cpu time    9.2406: real time    9.3066

 eigenvalue-minimisations  :  2128
 total energy-change (2. order) :-0.2487153E+04  (-0.2309724E+04)
 number of electron     376.0000000 magnetization 
 augmentation part      376.0000000 magnetization 

 Free energy of the ion-electron system (eV)
  ---------------------------------------------------
  alpha Z        PSCENC =       975.10247152
  Ewald energy   TEWEN  =     90967.52340517
  -Hartree energ DENC   =   -120056.66882381
  -exchange      EXHF   =         0.00000000
  -V(xc)+E(xc)   XCENC  =       189.61801031
  PAW double counting   =     24789.08602224   -23775.73976456
  entropy T*S    EENTRO =        -0.00198471
  eigenvalues    EBANDS =      -413.48202538
  atomic energy  EATOM  =     27259.89416086
  Solvation  Ediel_sol  =         0.00000000
  ---------------------------------------------------
  free energy    TOTEN  =       -64.66852835 eV

  energy without entropy =      -64.66654364  energy(sigma->0) =      -64.66786678


--------------------------------------------------------------------------------------------------------




--------------------------------------- Iteration      1(   3)  ---------------------------------------


     EDDAV:  cpu time    9.2138: real time    9.2800
       DOS:  cpu time    0.0010: real time    0.0010
    --------------------------------------------
      LOOP:  cpu time    9.2148: real time    9.2811

 eigenvalue-minimisations  :  2128
 total energy-change (2. order) :-0.1760126E+03  (-0.1599637E+03)
 number of electron     376.0000000 magnetization 
 augmentation part      376.0000000 magnetization 

 Free energy of the ion-electron system (eV)
  ---------------------------------------------------
  alpha Z        PSCENC =       975.10247152
  Ewald energy   TEWEN  =     90967.52340517
  -Hartree energ DENC   =   -120056.66882381
  -exchange      EXHF   =         0.00000000
  -V(xc)+E(xc)   XCENC  =       189.61801031
  PAW double counting   =     24789.08602224   -23775.73976456
  entropy T*S    EENTRO =        -0.01923830
  eigenvalues    EBANDS =      -589.47740457
  atomic energy  EATOM  =     27259.89416086
  Solvation  Ediel_sol  =         0.00000000
  ---------------------------------------------------
  free energy    TOTEN  =      -240.68116114 eV

  energy without entropy =     -240.66192284  energy(sigma->0) =     -240.67474837


--------------------------------------------------------------------------------------------------------




--------------------------------------- Iteration      1(   4)  ---------------------------------------


     EDDAV:  cpu time    9.4775: real time    9.5436
       DOS:  cpu time    0.0010: real time    0.0010
    --------------------------------------------
      LOOP:  cpu time    9.4785: real time    9.5447

 eigenvalue-minimisations  :  2376
 total energy-change (2. order) :-0.7772493E+01  (-0.7491010E+01)
 number of electron     376.0000000 magnetization 
 augmentation part      376.0000000 magnetization 

 Free energy of the ion-electron system (eV)
  ---------------------------------------------------
  alpha Z        PSCENC =       975.10247152
  Ewald energy   TEWEN  =     90967.52340517
  -Hartree energ DENC   =   -120056.66882381
  -exchange      EXHF   =         0.00000000
  -V(xc)+E(xc)   XCENC  =       189.61801031
  PAW double counting   =     24789.08602224   -23775.73976456
  entropy T*S    EENTRO =        -0.01314514
  eigenvalues    EBANDS =      -597.25599100
  atomic energy  EATOM  =     27259.89416086
  Solvation  Ediel_sol  =         0.00000000
  ---------------------------------------------------
  free energy    TOTEN  =      -248.45365441 eV

  energy without entropy =     -248.44050927  energy(sigma->0) =     -248.44927270


--------------------------------------------------------------------------------------------------------




--------------------------------------- Iteration      1(   5)  ---------------------------------------


     EDDAV:  cpu time    9.8484: real time    9.9182
       DOS:  cpu time    0.0011: real time    0.0011
    CHARGE:  cpu time    0.3859: real time    0.3886
    MIXING:  cpu time    0.0074: real time    0.0074
    --------------------------------------------
      LOOP:  cpu time   10.2428: real time   10.3154

 eigenvalue-minimisations  :  2376
 total energy-change (2. order) :-0.2233708E+00  (-0.2212192E+00)
 number of electron     376.0000020 magnetization 
 augmentation part      105.8060935 magnetization 

 Broyden mixing:
  rms(total) = 0.27454E+01    rms(broyden)= 0.27450E+01
  rms(prec ) = 0.30565E+01
  weight for this iteration     100.00

 Free energy of the ion-electron system (eV)
  ---------------------------------------------------
  alpha Z        PSCENC =       975.10247152
  Ewald energy   TEWEN  =     90967.52340517
  -Hartree energ DENC   =   -120056.66882381
  -exchange      EXHF   =         0.00000000
  -V(xc)+E(xc)   XCENC  =       189.61801031
  PAW double counting   =     24789.08602224   -23775.73976456
  entropy T*S    EENTRO =        -0.01320324
  eigenvalues    EBANDS =      -597.47930372
  atomic energy  EATOM  =     27259.89416086
  Solvation  Ediel_sol  =         0.00000000
  ---------------------------------------------------
  free energy    TOTEN  =      -248.67702523 eV

  energy without entropy =     -248.66382198  energy(sigma->0) =     -248.67262414


--------------------------------------------------------------------------------------------------------




--------------------------------------- Iteration      1(   6)  ---------------------------------------


    POTLOK:  cpu time    0.1278: real time    0.1286
    SETDIJ:  cpu time    0.0101: real time    0.0101
    EDDIAG:  cpu time    1.2575: real time    1.2667
  RMM-DIIS:  cpu time    4.5084: real time    4.5420
    ORTHCH:  cpu time    0.2196: real time    0.2210
       DOS:  cpu time    0.0011: real time    0.0011
    CHARGE:  cpu time    0.3988: real time    0.4015
    MIXING:  cpu time    0.0050: real time    0.0050
    --------------------------------------------
      LOOP:  cpu time    6.5283: real time    6.5761

 eigenvalue-minimisations  :  1828
 total energy-change (2. order) : 0.3707740E+01  (-0.5588518E+01)
 number of electron     376.0000018 magnetization 
 augmentation part      112.9034273 magnetization 

 Broyden mixing:
  rms(total) = 0.28492E+01    rms(broyden)= 0.28483E+01
  rms(prec ) = 0.37819E+01
  weight for this iteration     100.00

 eigenvalues of (default mixing * dielectric matrix)
  average eigenvalue GAMMA=   0.5028
  0.5028

 Free energy of the ion-electron system (eV)
  ---------------------------------------------------
  alpha Z        PSCENC =       975.10247152
  Ewald energy   TEWEN  =     90967.52340517
  -Hartree energ DENC   =   -119593.88633703
  -exchange      EXHF   =         0.00000000
  -V(xc)+E(xc)   XCENC  =       182.51275338
  PAW double counting   =     26720.10985135   -25760.40804971
  entropy T*S    EENTRO =        -0.14856342
  eigenvalues    EBANDS =      -995.66897741
  atomic energy  EATOM  =     27259.89416086
  Solvation  Ediel_sol  =         0.00000000
  ---------------------------------------------------
  free energy    TOTEN  =      -244.96928529 eV

  energy without entropy =     -244.82072186  energy(sigma->0) =     -244.91976414


--------------------------------------------------------------------------------------------------------




--------------------------------------- Iteration      1(   7)  ---------------------------------------


    POTLOK:  cpu time    0.1187: real time    0.1195
    SETDIJ:  cpu time    0.0101: real time    0.0102
    EDDIAG:  cpu time    1.2558: real time    1.2648
  RMM-DIIS:  cpu time    4.4781: real time    4.5104
    ORTHCH:  cpu time    0.2110: real time    0.2124
       DOS:  cpu time    0.0010: real time    0.0010
    CHARGE:  cpu time    0.3771: real time    0.3799
    MIXING:  cpu time    0.0039: real time    0.0829
    --------------------------------------------
      LOOP:  cpu time    6.4558: real time    6.5811

 eigenvalue-minimisations  :  1831
 total energy-change (2. order) : 0.3639626E+01  (-0.3203555E+01)
 number of electron     376.0000034 magnetization 
 augmentation part      111.3876500 magnetization 

 Broyden mixing:
  rms(total) = 0.19911E+01    rms(broyden)= 0.19902E+01
  rms(prec ) = 0.31174E+01
  weight for this iteration     100.00

 eigenvalues of (default mixing * dielectric matrix)
  average eigenvalue GAMMA=   0.6147
  0.9710  0.2585

 Free energy of the ion-electron system (eV)
  ---------------------------------------------------
  alpha Z        PSCENC =       975.10247152
  Ewald energy   TEWEN  =     90967.52340517
  -Hartree energ DENC   =   -119789.87347514
  -exchange      EXHF   =         0.00000000
  -V(xc)+E(xc)   XCENC  =       180.13696430
  PAW double counting   =     27383.30513074   -26431.15276569
  entropy T*S    EENTRO =        -0.08050679
  eigenvalues    EBANDS =      -786.18504382
  atomic energy  EATOM  =     27259.89416086
  Solvation  Ediel_sol  =         0.00000000
  ---------------------------------------------------
  free energy    TOTEN  =      -241.32965885 eV

  energy without entropy =     -241.24915206  energy(sigma->0) =     -241.30282325


--------------------------------------------------------------------------------------------------------




--------------------------------------- Iteration      1(   8)  ---------------------------------------


    POTLOK:  cpu time    0.1214: real time    0.1222
    SETDIJ:  cpu time    0.0102: real time    0.0103
    EDDIAG:  cpu time    1.3014: real time    1.3108
  RMM-DIIS:  cpu time    4.1985: real time    4.2288
    ORTHCH:  cpu time    0.1986: real time    0.1998
       DOS:  cpu time    0.0010: real time    0.0010
    CHARGE:  cpu time    0.3363: real time    0.3383
    MIXING:  cpu time    0.0038: real time    0.0039
    --------------------------------------------
      LOOP:  cpu time    6.1712: real time    6.2150

 eigenvalue-minimisations  :  1826
 total energy-change (2. order) :-0.3062126E+01  (-0.9028933E+00)
 number of electron     376.0000018 magnetization 
 augmentation part      112.1869233 magnetization 

 Broyden mixing:
  rms(total) = 0.23058E+01    rms(broyden)= 0.23056E+01
  rms(prec ) = 0.42889E+01
  weight for this iteration     100.00

 eigenvalues of (default mixing * dielectric matrix)
  average eigenvalue GAMMA=   0.5432
  1.1840  0.2930  0.1526

 Free energy of the ion-electron system (eV)
  ---------------------------------------------------
  alpha Z        PSCENC =       975.10247152
  Ewald energy   TEWEN  =     90967.52340517
  -Hartree energ DENC   =   -119717.02377447
  -exchange      EXHF   =         0.00000000
  -V(xc)+E(xc)   XCENC  =       179.02305809
  PAW double counting   =     28098.40297095   -27157.57660597
  entropy T*S    EENTRO =        -0.10250928
  eigenvalues    EBANDS =      -849.63496124
  atomic energy  EATOM  =     27259.89416086
  Solvation  Ediel_sol  =         0.00000000
  ---------------------------------------------------
  free energy    TOTEN  =      -244.39178436 eV

  energy without entropy =     -244.28927508  energy(sigma->0) =     -244.35761460


--------------------------------------------------------------------------------------------------------




--------------------------------------- Iteration      1(   9)  ---------------------------------------


    POTLOK:  cpu time    0.1070: real time    0.1076
    SETDIJ:  cpu time    0.0094: real time    0.0094
    EDDIAG:  cpu time    1.1045: real time    1.1121
  RMM-DIIS:  cpu time    4.3887: real time    4.4216
    ORTHCH:  cpu time    0.2137: real time    0.2151
       DOS:  cpu time    0.0011: real time    0.0011
    CHARGE:  cpu time    0.3898: real time    0.3926
    MIXING:  cpu time    0.0046: real time    0.0046
    --------------------------------------------
      LOOP:  cpu time    6.2188: real time    6.2642

 eigenvalue-minimisations  :  1831
 total energy-change (2. order) : 0.1261833E+02  (-0.4173787E+00)
 number of electron     376.0000024 magnetization 
 augmentation part      112.7020579 magnetization 

 Broyden mixing:
  rms(total) = 0.86435E+00    rms(broyden)= 0.86399E+00
  rms(prec ) = 0.12573E+01
  weight for this iteration     100.00

 eigenvalues of (default mixing * dielectric matrix)
  average eigenvalue GAMMA=   0.5310
  1.3049  0.3467  0.3467  0.1256

 Free energy of the ion-electron system (eV)
  ---------------------------------------------------
  alpha Z        PSCENC =       975.10247152
  Ewald energy   TEWEN  =     90967.52340517
  -Hartree energ DENC   =   -119682.07586410
  -exchange      EXHF   =         0.00000000
  -V(xc)+E(xc)   XCENC  =       178.53023215
  PAW double counting   =     28684.06071560   -27752.31610792
  entropy T*S    EENTRO =        -0.02301734
  eigenvalues    EBANDS =      -862.46944539
  atomic energy  EATOM  =     27259.89416086
  Solvation  Ediel_sol  =         0.00000000
  ---------------------------------------------------
  free energy    TOTEN  =      -231.77344943 eV

  energy without entropy =     -231.75043210  energy(sigma->0) =     -231.76577699


--------------------------------------------------------------------------------------------------------




--------------------------------------- Iteration      1(  10)  ---------------------------------------


    POTLOK:  cpu time    0.1271: real time    0.1279
    SETDIJ:  cpu time    0.0100: real time    0.0100
    EDDIAG:  cpu time    1.3000: real time    1.3099
  RMM-DIIS:  cpu time    4.5448: real time    4.5789
    ORTHCH:  cpu time    0.2156: real time    0.2170
       DOS:  cpu time    0.0011: real time    0.0011
    CHARGE:  cpu time    0.3958: real time    0.3987
    MIXING:  cpu time    0.0053: real time    0.0053
    --------------------------------------------
      LOOP:  cpu time    6.5997: real time    6.6487

 eigenvalue-minimisations  :  1831
 total energy-change (2. order) : 0.1096212E+01  (-0.1478965E+00)
 number of electron     376.0000025 magnetization 
 augmentation part      112.7903217 magnetization 

 Broyden mixing:
  rms(total) = 0.50070E+00    rms(broyden)= 0.50061E+00
  rms(prec ) = 0.65156E+00
  weight for this iteration     100.00

 eigenvalues of (default mixing * dielectric matrix)
  average eigenvalue GAMMA=   0.5622
  1.4158  0.5496  0.4606  0.2571  0.1276

 Free energy of the ion-electron system (eV)
  ---------------------------------------------------
  alpha Z        PSCENC =       975.10247152
  Ewald energy   TEWEN  =     90967.52340517
  -Hartree energ DENC   =   -119679.36077595
  -exchange      EXHF   =         0.00000000
  -V(xc)+E(xc)   XCENC  =       178.41510268
  PAW double counting   =     29031.20242239   -28104.25508944
  entropy T*S    EENTRO =         0.00690111
  eigenvalues    EBANDS =      -859.20583611
  atomic energy  EATOM  =     27259.89416086
  Solvation  Ediel_sol  =         0.00000000
  ---------------------------------------------------
  free energy    TOTEN  =      -230.67723777 eV

  energy without entropy =     -230.68413887  energy(sigma->0) =     -230.67953814


--------------------------------------------------------------------------------------------------------




--------------------------------------- Iteration      1(  11)  ---------------------------------------


    POTLOK:  cpu time    0.1309: real time    0.1318
    SETDIJ:  cpu time    0.0099: real time    0.0100
    EDDIAG:  cpu time    1.3194: real time    1.3285
  RMM-DIIS:  cpu time    4.5436: real time    4.5775
    ORTHCH:  cpu time    0.2167: real time    0.2181
       DOS:  cpu time    0.0010: real time    0.0010
    CHARGE:  cpu time    0.3965: real time    0.3995
    MIXING:  cpu time    0.0047: real time    0.0047
    --------------------------------------------
      LOOP:  cpu time    6.6227: real time    6.6712

 eigenvalue-minimisations  :  1831
 total energy-change (2. order) : 0.3881194E+00  (-0.4040915E-01)
 number of electron     376.0000024 magnetization 
 augmentation part      112.9177032 magnetization 

 Broyden mixing:
  rms(total) = 0.29111E+00    rms(broyden)= 0.29094E+00
  rms(prec ) = 0.37405E+00
  weight for this iteration     100.00

 eigenvalues of (default mixing * dielectric matrix)
  average eigenvalue GAMMA=   0.5885
  1.5404  0.8036  0.4046  0.4046  0.2508  0.1267

 Free energy of the ion-electron system (eV)
  ---------------------------------------------------
  alpha Z        PSCENC =       975.10247152
  Ewald energy   TEWEN  =     90967.52340517
  -Hartree energ DENC   =   -119668.97173109
  -exchange      EXHF   =         0.00000000
  -V(xc)+E(xc)   XCENC  =       178.41125133
  PAW double counting   =     29352.33665898   -28429.49040903
  entropy T*S    EENTRO =        -0.02594333
  eigenvalues    EBANDS =      -865.06898284
  atomic energy  EATOM  =     27259.89416086
  Solvation  Ediel_sol  =         0.00000000
  ---------------------------------------------------
  free energy    TOTEN  =      -230.28911840 eV

  energy without entropy =     -230.26317508  energy(sigma->0) =     -230.28047063


--------------------------------------------------------------------------------------------------------




--------------------------------------- Iteration      1(  12)  ---------------------------------------


    POTLOK:  cpu time    0.1318: real time    0.1327
    SETDIJ:  cpu time    0.0103: real time    0.0103
    EDDIAG:  cpu time    1.3110: real time    1.3208
  RMM-DIIS:  cpu time    4.5547: real time    4.5886
    ORTHCH:  cpu time    0.2181: real time    0.2195
       DOS:  cpu time    0.0011: real time    0.0011
    CHARGE:  cpu time    0.3930: real time    0.3958
    MIXING:  cpu time    0.0051: real time    0.0052
    --------------------------------------------
      LOOP:  cpu time    6.6251: real time    6.6739

 eigenvalue-minimisations  :  1842
 total energy-change (2. order) : 0.1121446E+00  (-0.1818630E-01)
 number of electron     376.0000023 magnetization 
 augmentation part      112.9678789 magnetization 

 Broyden mixing:
  rms(total) = 0.20023E+00    rms(broyden)= 0.20021E+00
  rms(prec ) = 0.26090E+00
  weight for this iteration     100.00

 eigenvalues of (default mixing * dielectric matrix)
  average eigenvalue GAMMA=   0.6667
  1.8684  1.0636  0.5417  0.5417  0.1270  0.2622  0.2622

 Free energy of the ion-electron system (eV)
  ---------------------------------------------------
  alpha Z        PSCENC =       975.10247152
  Ewald energy   TEWEN  =     90967.52340517
  -Hartree energ DENC   =   -119659.71923096
  -exchange      EXHF   =         0.00000000
  -V(xc)+E(xc)   XCENC  =       178.37138905
  PAW double counting   =     29573.33710702   -28653.18124518
  entropy T*S    EENTRO =        -0.01968999
  eigenvalues    EBANDS =      -871.48534126
  atomic energy  EATOM  =     27259.89416086
  Solvation  Ediel_sol  =         0.00000000
  ---------------------------------------------------
  free energy    TOTEN  =      -230.17697376 eV

  energy without entropy =     -230.15728377  energy(sigma->0) =     -230.17041043


--------------------------------------------------------------------------------------------------------




--------------------------------------- Iteration      1(  13)  ---------------------------------------


    POTLOK:  cpu time    0.1313: real time    0.1323
    SETDIJ:  cpu time    0.0099: real time    0.0100
    EDDIAG:  cpu time    1.2570: real time    1.2659
  RMM-DIIS:  cpu time    4.4385: real time    4.4714
    ORTHCH:  cpu time    0.2183: real time    0.2198
       DOS:  cpu time    0.0011: real time    0.0011
    CHARGE:  cpu time    0.3822: real time    0.3847
    MIXING:  cpu time    0.0050: real time    0.0051
    --------------------------------------------
      LOOP:  cpu time    6.4433: real time    6.4902

 eigenvalue-minimisations  :  1831
 total energy-change (2. order) : 0.3596252E-02  (-0.1374827E-01)
 number of electron     376.0000023 magnetization 
 augmentation part      112.9911264 magnetization 

 Broyden mixing:
  rms(total) = 0.20141E+00    rms(broyden)= 0.20140E+00
  rms(prec ) = 0.24664E+00
  weight for this iteration     100.00

 eigenvalues of (default mixing * dielectric matrix)
  average eigenvalue GAMMA=   0.6977
  2.1222  1.1572  0.8672  0.4529  0.1270  0.3589  0.2702  0.2257

 Free energy of the ion-electron system (eV)
  ---------------------------------------------------
  alpha Z        PSCENC =       975.10247152
  Ewald energy   TEWEN  =     90967.52340517
  -Hartree energ DENC   =   -119657.63621039
  -exchange      EXHF   =         0.00000000
  -V(xc)+E(xc)   XCENC  =       178.28405331
  PAW double counting   =     29841.20321793   -28924.25335372
  entropy T*S    EENTRO =        -0.01762583
  eigenvalues    EBANDS =      -870.27349636
  atomic energy  EATOM  =     27259.89416086
  Solvation  Ediel_sol  =         0.00000000
  ---------------------------------------------------
  free energy    TOTEN  =      -230.17337751 eV

  energy without entropy =     -230.15575168  energy(sigma->0) =     -230.16750224


--------------------------------------------------------------------------------------------------------




--------------------------------------- Iteration      1(  14)  ---------------------------------------


    POTLOK:  cpu time    0.1278: real time    0.1287
    SETDIJ:  cpu time    0.0103: real time    0.0104
    EDDIAG:  cpu time    1.1248: real time    1.1322
  RMM-DIIS:  cpu time    4.2358: real time    4.2657
    ORTHCH:  cpu time    0.2142: real time    0.2156
       DOS:  cpu time    0.0011: real time    0.0011
    CHARGE:  cpu time    0.3738: real time    0.3763
    MIXING:  cpu time    0.0052: real time    0.0052
    --------------------------------------------
      LOOP:  cpu time    6.0930: real time    6.1351

 eigenvalue-minimisations  :  1831
 total energy-change (2. order) : 0.5003040E-01  (-0.8393355E-02)
 number of electron     376.0000023 magnetization 
 augmentation part      112.9706029 magnetization 

 Broyden mixing:
  rms(total) = 0.87671E-01    rms(broyden)= 0.87662E-01
  rms(prec ) = 0.10792E+00
  weight for this iteration     100.00

 eigenvalues of (default mixing * dielectric matrix)
  average eigenvalue GAMMA=   0.7286
  2.3814  1.2685  0.9603  0.5092  0.5092  0.1270  0.3187  0.2630  0.2201

 Free energy of the ion-electron system (eV)
  ---------------------------------------------------
  alpha Z        PSCENC =       975.10247152
  Ewald energy   TEWEN  =     90967.52340517
  -Hartree energ DENC   =   -119661.32628175
  -exchange      EXHF   =         0.00000000
  -V(xc)+E(xc)   XCENC  =       178.21347684
  PAW double counting   =     30005.55603343   -29090.50336668
  entropy T*S    EENTRO =        -0.01394275
  eigenvalues    EBANDS =      -864.56930375
  atomic energy  EATOM  =     27259.89416086
  Solvation  Ediel_sol  =         0.00000000
  ---------------------------------------------------
  free energy    TOTEN  =      -230.12334711 eV

  energy without entropy =     -230.10940437  energy(sigma->0) =     -230.11869953


--------------------------------------------------------------------------------------------------------




--------------------------------------- Iteration      1(  15)  ---------------------------------------


    POTLOK:  cpu time    0.1268: real time    0.1277
    SETDIJ:  cpu time    0.0099: real time    0.0099
    EDDIAG:  cpu time    1.2310: real time    1.2401
  RMM-DIIS:  cpu time    4.4606: real time    4.4932
    ORTHCH:  cpu time    0.2154: real time    0.2169
       DOS:  cpu time    0.0011: real time    0.0011
    CHARGE:  cpu time    0.3790: real time    0.3815
    MIXING:  cpu time    0.0060: real time    0.0061
    --------------------------------------------
      LOOP:  cpu time    6.4298: real time    6.4765

 eigenvalue-minimisations  :  1832
 total energy-change (2. order) : 0.8195136E-02  (-0.3116011E-02)
 number of electron     376.0000023 magnetization 
 augmentation part      112.9628242 magnetization 

 Broyden mixing:
  rms(total) = 0.55911E-01    rms(broyden)= 0.55880E-01
  rms(prec ) = 0.66987E-01
  weight for this iteration     100.00

 eigenvalues of (default mixing * dielectric matrix)
  average eigenvalue GAMMA=   0.7165
  2.5069  1.2894  0.8765  0.7250  0.4789  0.1270  0.3808  0.2993  0.2614  0.2196

 Free energy of the ion-electron system (eV)
  ---------------------------------------------------
  alpha Z        PSCENC =       975.10247152
  Ewald energy   TEWEN  =     90967.52340517
  -Hartree energ DENC   =   -119661.73593724
  -exchange      EXHF   =         0.00000000
  -V(xc)+E(xc)   XCENC  =       178.18848302
  PAW double counting   =     30084.86804419   -29170.66499211
  entropy T*S    EENTRO =        -0.01009074
  eigenvalues    EBANDS =      -863.28069666
  atomic energy  EATOM  =     27259.89416086
  Solvation  Ediel_sol  =         0.00000000
  ---------------------------------------------------
  free energy    TOTEN  =      -230.11515198 eV

  energy without entropy =     -230.10506123  energy(sigma->0) =     -230.11178840


--------------------------------------------------------------------------------------------------------




--------------------------------------- Iteration      1(  16)  ---------------------------------------


    POTLOK:  cpu time    0.1278: real time    0.1287
    SETDIJ:  cpu time    0.0099: real time    0.0100
    EDDIAG:  cpu time    1.1352: real time    1.1428
  RMM-DIIS:  cpu time    4.0755: real time    4.1039
    ORTHCH:  cpu time    0.2072: real time    0.2084
       DOS:  cpu time    0.0010: real time    0.0011
    CHARGE:  cpu time    0.3439: real time    0.3459
    MIXING:  cpu time    0.0052: real time    0.0052
    --------------------------------------------
      LOOP:  cpu time    5.9058: real time    5.9459

 eigenvalue-minimisations  :  1831
 total energy-change (2. order) : 0.3210100E-02  (-0.7654980E-03)
 number of electron     376.0000023 magnetization 
 augmentation part      112.9677152 magnetization 

 Broyden mixing:
  rms(total) = 0.33097E-01    rms(broyden)= 0.33091E-01
  rms(prec ) = 0.40405E-01
  weight for this iteration     100.00

 eigenvalues of (default mixing * dielectric matrix)
  average eigenvalue GAMMA=   0.6932
  2.5279  1.2787  0.8373  0.8373  0.4753  0.4753  0.1270  0.3146  0.2802  0.2532
  0.2187

 Free energy of the ion-electron system (eV)
  ---------------------------------------------------
  alpha Z        PSCENC =       975.10247152
  Ewald energy   TEWEN  =     90967.52340517
  -Hartree energ DENC   =   -119662.29741951
  -exchange      EXHF   =         0.00000000
  -V(xc)+E(xc)   XCENC  =       178.19740796
  PAW double counting   =     30108.49884983   -29194.53067534
  entropy T*S    EENTRO =        -0.01342298
  eigenvalues    EBANDS =      -862.48671939
  atomic energy  EATOM  =     27259.89416086
  Solvation  Ediel_sol  =         0.00000000
  ---------------------------------------------------
  free energy    TOTEN  =      -230.11194188 eV

  energy without entropy =     -230.09851889  energy(sigma->0) =     -230.10746755


--------------------------------------------------------------------------------------------------------




--------------------------------------- Iteration      1(  17)  ---------------------------------------


    POTLOK:  cpu time    0.1139: real time    0.1145
    SETDIJ:  cpu time    0.0087: real time    0.0087
    EDDIAG:  cpu time    1.1098: real time    1.1171
  RMM-DIIS:  cpu time    4.2187: real time    4.2494
    ORTHCH:  cpu time    0.2088: real time    0.2102
       DOS:  cpu time    0.0010: real time    0.0010
    CHARGE:  cpu time    0.3766: real time    0.3788
    MIXING:  cpu time    0.0061: real time    0.0061
    --------------------------------------------
      LOOP:  cpu time    6.0436: real time    6.0859

 eigenvalue-minimisations  :  1820
 total energy-change (2. order) : 0.1330578E-02  (-0.2185871E-03)
 number of electron     376.0000023 magnetization 
 augmentation part      112.9681963 magnetization 

 Broyden mixing:
  rms(total) = 0.15267E-01    rms(broyden)= 0.15263E-01
  rms(prec ) = 0.18447E-01
  weight for this iteration     100.00

 eigenvalues of (default mixing * dielectric matrix)
  average eigenvalue GAMMA=   0.7247
  2.4900  1.1261  1.1261  1.1239  0.7835  0.4786  0.1270  0.4053  0.3158  0.2632
  0.2390  0.2183

 Free energy of the ion-electron system (eV)
  ---------------------------------------------------
  alpha Z        PSCENC =       975.10247152
  Ewald energy   TEWEN  =     90967.52340517
  -Hartree energ DENC   =   -119662.60792699
  -exchange      EXHF   =         0.00000000
  -V(xc)+E(xc)   XCENC  =       178.20320143
  PAW double counting   =     30111.26502621   -29197.30014924
  entropy T*S    EENTRO =        -0.01380777
  eigenvalues    EBANDS =      -862.17699250
  atomic energy  EATOM  =     27259.89416086
  Solvation  Ediel_sol  =         0.00000000
  ---------------------------------------------------
  free energy    TOTEN  =      -230.11061130 eV

  energy without entropy =     -230.09680353  energy(sigma->0) =     -230.10600871


--------------------------------------------------------------------------------------------------------




--------------------------------------- Iteration      1(  18)  ---------------------------------------


    POTLOK:  cpu time    0.1154: real time    0.1163
    SETDIJ:  cpu time    0.0088: real time    0.0089
    EDDIAG:  cpu time    1.1993: real time    1.2085
  RMM-DIIS:  cpu time    4.3839: real time    4.4159
    ORTHCH:  cpu time    0.2138: real time    0.2152
       DOS:  cpu time    0.0010: real time    0.0010
    CHARGE:  cpu time    0.3778: real time    0.3804
    MIXING:  cpu time    0.0059: real time    0.0060
    --------------------------------------------
      LOOP:  cpu time    6.3061: real time    6.3521

 eigenvalue-minimisations  :  1764
 total energy-change (2. order) :-0.2636937E-03  (-0.8583932E-04)
 number of electron     376.0000023 magnetization 
 augmentation part      112.9643208 magnetization 

 Broyden mixing:
  rms(total) = 0.12619E-01    rms(broyden)= 0.12615E-01
  rms(prec ) = 0.15069E-01
  weight for this iteration     100.00

 eigenvalues of (default mixing * dielectric matrix)
  average eigenvalue GAMMA=   0.7466
  2.4665  1.5616  1.4711  0.8962  0.8962  0.4548  0.4548  0.1270  0.3525  0.3109
  0.2609  0.2182  0.2355

 Free energy of the ion-electron system (eV)
  ---------------------------------------------------
  alpha Z        PSCENC =       975.10247152
  Ewald energy   TEWEN  =     90967.52340517
  -Hartree energ DENC   =   -119663.55603696
  -exchange      EXHF   =         0.00000000
  -V(xc)+E(xc)   XCENC  =       178.20819962
  PAW double counting   =     30105.73771334   -29191.65357348
  entropy T*S    EENTRO =        -0.01267580
  eigenvalues    EBANDS =      -861.35453928
  atomic energy  EATOM  =     27259.89416086
  Solvation  Ediel_sol  =         0.00000000
  ---------------------------------------------------
  free energy    TOTEN  =      -230.11087499 eV

  energy without entropy =     -230.09819919  energy(sigma->0) =     -230.10664972


--------------------------------------------------------------------------------------------------------




--------------------------------------- Iteration      1(  19)  ---------------------------------------


    POTLOK:  cpu time    0.1243: real time    0.1252
    SETDIJ:  cpu time    0.0095: real time    0.0096
    EDDIAG:  cpu time    1.3168: real time    1.3254
  RMM-DIIS:  cpu time    3.2806: real time    3.3021
    ORTHCH:  cpu time    0.2055: real time    0.2066
       DOS:  cpu time    0.0011: real time    0.0011
    CHARGE:  cpu time    0.3670: real time    0.3694
    MIXING:  cpu time    0.0062: real time    0.0062
    --------------------------------------------
      LOOP:  cpu time    5.3110: real time    5.3456

 eigenvalue-minimisations  :  1352
 total energy-change (2. order) :-0.1169752E-03  (-0.4207987E-04)
 number of electron     376.0000023 magnetization 
 augmentation part      112.9634545 magnetization 

 Broyden mixing:
  rms(total) = 0.58914E-02    rms(broyden)= 0.58903E-02
  rms(prec ) = 0.80769E-02
  weight for this iteration     100.00

 eigenvalues of (default mixing * dielectric matrix)
  average eigenvalue GAMMA=   0.7527
  2.5476  1.8917  1.3021  0.9215  0.9215  0.5279  0.5279  0.1270  0.4173  0.3364
  0.3028  0.2615  0.2180  0.2351

 Free energy of the ion-electron system (eV)
  ---------------------------------------------------
  alpha Z        PSCENC =       975.10247152
  Ewald energy   TEWEN  =     90967.52340517
  -Hartree energ DENC   =   -119664.60120015
  -exchange      EXHF   =         0.00000000
  -V(xc)+E(xc)   XCENC  =       178.21535152
  PAW double counting   =     30103.80880504   -29189.65535553
  entropy T*S    EENTRO =        -0.01312871
  eigenvalues    EBANDS =      -860.38550169
  atomic energy  EATOM  =     27259.89416086
  Solvation  Ediel_sol  =         0.00000000
  ---------------------------------------------------
  free energy    TOTEN  =      -230.11099197 eV

  energy without entropy =     -230.09786325  energy(sigma->0) =     -230.10661573


--------------------------------------------------------------------------------------------------------




--------------------------------------- Iteration      1(  20)  ---------------------------------------


    POTLOK:  cpu time    0.1337: real time    0.1346
    SETDIJ:  cpu time    0.0095: real time    0.0095
    EDDIAG:  cpu time    1.1862: real time    1.1945
  RMM-DIIS:  cpu time    2.6160: real time    2.6353
    ORTHCH:  cpu time    0.2127: real time    0.2143
       DOS:  cpu time    0.0011: real time    0.0011
    CHARGE:  cpu time    0.3807: real time    0.3832
    MIXING:  cpu time    0.0069: real time    0.0070
    --------------------------------------------
      LOOP:  cpu time    4.5468: real time    4.5796

 eigenvalue-minimisations  :  1015
 total energy-change (2. order) :-0.1584532E-03  (-0.1289417E-04)
 number of electron     376.0000023 magnetization 
 augmentation part      112.9636323 magnetization 

 Broyden mixing:
  rms(total) = 0.35319E-02    rms(broyden)= 0.35316E-02
  rms(prec ) = 0.48308E-02
  weight for this iteration     100.00

 eigenvalues of (default mixing * dielectric matrix)
  average eigenvalue GAMMA=   0.7637
  2.6163  2.1123  1.2462  0.9857  0.9857  0.7230  0.1270  0.4686  0.4686  0.3911
  0.3178  0.3001  0.2610  0.2180  0.2348

 Free energy of the ion-electron system (eV)
  ---------------------------------------------------
  alpha Z        PSCENC =       975.10247152
  Ewald energy   TEWEN  =     90967.52340517
  -Hartree energ DENC   =   -119664.99109659
  -exchange      EXHF   =         0.00000000
  -V(xc)+E(xc)   XCENC  =       178.21854605
  PAW double counting   =     30104.91480785   -29190.75432665
  entropy T*S    EENTRO =        -0.01328721
  eigenvalues    EBANDS =      -860.00583142
  atomic energy  EATOM  =     27259.89416086
  Solvation  Ediel_sol  =         0.00000000
  ---------------------------------------------------
  free energy    TOTEN  =      -230.11115042 eV

  energy without entropy =     -230.09786321  energy(sigma->0) =     -230.10672135


--------------------------------------------------------------------------------------------------------




--------------------------------------- Iteration      1(  21)  ---------------------------------------


    POTLOK:  cpu time    0.1253: real time    0.1261
    SETDIJ:  cpu time    0.0097: real time    0.0097
    EDDIAG:  cpu time    1.2892: real time    1.2986
  RMM-DIIS:  cpu time    3.3772: real time    3.3997
    ORTHCH:  cpu time    0.2195: real time    0.2210
       DOS:  cpu time    0.0012: real time    0.0012
    CHARGE:  cpu time    0.4011: real time    0.4040
    MIXING:  cpu time    0.0069: real time    0.0070
    --------------------------------------------
      LOOP:  cpu time    5.4300: real time    5.4672

 eigenvalue-minimisations  :   995
 total energy-change (2. order) :-0.1804812E-03  (-0.4892050E-05)
 number of electron     376.0000023 magnetization 
 augmentation part      112.9640447 magnetization 

 Broyden mixing:
  rms(total) = 0.23168E-02    rms(broyden)= 0.23154E-02
  rms(prec ) = 0.38197E-02
  weight for this iteration     100.00

 eigenvalues of (default mixing * dielectric matrix)
  average eigenvalue GAMMA=   0.7701
  2.6085  2.2581  1.2524  1.0628  1.0628  0.7714  0.5349  0.5349  0.1270  0.4319
  0.3567  0.3155  0.2912  0.2608  0.2180  0.2349

 Free energy of the ion-electron system (eV)
  ---------------------------------------------------
  alpha Z        PSCENC =       975.10247152
  Ewald energy   TEWEN  =     90967.52340517
  -Hartree energ DENC   =   -119665.46362647
  -exchange      EXHF   =         0.00000000
  -V(xc)+E(xc)   XCENC  =       178.22195930
  PAW double counting   =     30104.68351047   -29190.50773876
  entropy T*S    EENTRO =        -0.01349466
  eigenvalues    EBANDS =      -859.55197834
  atomic energy  EATOM  =     27259.89416086
  Solvation  Ediel_sol  =         0.00000000
  ---------------------------------------------------
  free energy    TOTEN  =      -230.11133090 eV

  energy without entropy =     -230.09783624  energy(sigma->0) =     -230.10683268


--------------------------------------------------------------------------------------------------------




--------------------------------------- Iteration      1(  22)  ---------------------------------------


    POTLOK:  cpu time    0.1256: real time    0.1264
    SETDIJ:  cpu time    0.0098: real time    0.0098
    EDDIAG:  cpu time    1.4569: real time    1.4672
  RMM-DIIS:  cpu time    3.0601: real time    3.0816
    ORTHCH:  cpu time    0.2349: real time    0.2363
       DOS:  cpu time    0.0011: real time    0.0011
    CHARGE:  cpu time    0.3681: real time    0.3706
    MIXING:  cpu time    0.0071: real time    0.0071
    --------------------------------------------
      LOOP:  cpu time    5.2635: real time    5.3002

 eigenvalue-minimisations  :   964
 total energy-change (2. order) :-0.1598904E-03  (-0.3077817E-05)
 number of electron     376.0000023 magnetization 
 augmentation part      112.9637340 magnetization 

 Broyden mixing:
  rms(total) = 0.21533E-02    rms(broyden)= 0.21532E-02
  rms(prec ) = 0.33181E-02
  weight for this iteration     100.00

 eigenvalues of (default mixing * dielectric matrix)
  average eigenvalue GAMMA=   0.7887
  2.5462  2.5462  1.3186  1.1997  1.1997  0.8204  0.7022  0.4952  0.1270  0.4520
  0.3796  0.3297  0.2180  0.3001  0.2348  0.2601  0.2790

 Free energy of the ion-electron system (eV)
  ---------------------------------------------------
  alpha Z        PSCENC =       975.10247152
  Ewald energy   TEWEN  =     90967.52340517
  -Hartree energ DENC   =   -119665.84862858
  -exchange      EXHF   =         0.00000000
  -V(xc)+E(xc)   XCENC  =       178.22382279
  PAW double counting   =     30103.56780190   -29189.37536039
  entropy T*S    EENTRO =        -0.01349949
  eigenvalues    EBANDS =      -859.18566458
  atomic energy  EATOM  =     27259.89416086
  Solvation  Ediel_sol  =         0.00000000
  ---------------------------------------------------
  free energy    TOTEN  =      -230.11149079 eV

  energy without entropy =     -230.09799130  energy(sigma->0) =     -230.10699096


--------------------------------------------------------------------------------------------------------




--------------------------------------- Iteration      1(  23)  ---------------------------------------


    POTLOK:  cpu time    0.1228: real time    0.1235
    SETDIJ:  cpu time    0.0093: real time    0.0093
    EDDIAG:  cpu time    1.4655: real time    1.4753
  RMM-DIIS:  cpu time    3.1426: real time    3.1638
    ORTHCH:  cpu time    0.2089: real time    0.2101
       DOS:  cpu time    0.0011: real time    0.0011
    CHARGE:  cpu time    0.3642: real time    0.3667
    MIXING:  cpu time    0.0071: real time    0.0071
    --------------------------------------------
      LOOP:  cpu time    5.3214: real time    5.3570

 eigenvalue-minimisations  :   974
 total energy-change (2. order) :-0.2229906E-03  (-0.3507332E-05)
 number of electron     376.0000023 magnetization 
 augmentation part      112.9633013 magnetization 

 Broyden mixing:
  rms(total) = 0.16012E-02    rms(broyden)= 0.16009E-02
  rms(prec ) = 0.23318E-02
  weight for this iteration     100.00

 eigenvalues of (default mixing * dielectric matrix)
  average eigenvalue GAMMA=   0.8003
  2.6726  2.6726  1.4898  1.2283  1.2283  0.8341  0.7741  0.5008  0.5008  0.1270
  0.4215  0.3729  0.3154  0.2991  0.2180  0.2348  0.2606  0.2552

 Free energy of the ion-electron system (eV)
  ---------------------------------------------------
  alpha Z        PSCENC =       975.10247152
  Ewald energy   TEWEN  =     90967.52340517
  -Hartree energ DENC   =   -119666.35852859
  -exchange      EXHF   =         0.00000000
  -V(xc)+E(xc)   XCENC  =       178.22569592
  PAW double counting   =     30102.10133171   -29187.89050441
  entropy T*S    EENTRO =        -0.01322386
  eigenvalues    EBANDS =      -858.69652210
  atomic energy  EATOM  =     27259.89416086
  Solvation  Ediel_sol  =         0.00000000
  ---------------------------------------------------
  free energy    TOTEN  =      -230.11171378 eV

  energy without entropy =     -230.09848992  energy(sigma->0) =     -230.10730583


--------------------------------------------------------------------------------------------------------




--------------------------------------- Iteration      1(  24)  ---------------------------------------


    POTLOK:  cpu time    0.1171: real time    0.1179
    SETDIJ:  cpu time    0.0097: real time    0.0097
    EDDIAG:  cpu time    1.1742: real time    1.1823
  RMM-DIIS:  cpu time    2.2899: real time    2.3068
    ORTHCH:  cpu time    0.2173: real time    0.2187
       DOS:  cpu time    0.0011: real time    0.0011
    CHARGE:  cpu time    0.3695: real time    0.3720
    MIXING:  cpu time    0.0076: real time    0.0076
    --------------------------------------------
      LOOP:  cpu time    4.1863: real time    4.2162

 eigenvalue-minimisations  :   795
 total energy-change (2. order) :-0.1782263E-03  (-0.2416222E-05)
 number of electron     376.0000023 magnetization 
 augmentation part      112.9632720 magnetization 

 Broyden mixing:
  rms(total) = 0.10340E-02    rms(broyden)= 0.10339E-02
  rms(prec ) = 0.15497E-02
  weight for this iteration     100.00

 eigenvalues of (default mixing * dielectric matrix)
  average eigenvalue GAMMA=   0.8279
  3.2004  2.4874  1.8233  1.1569  1.1569  1.0618  0.7204  0.7204  0.4799  0.4799
  0.1270  0.3823  0.3671  0.3110  0.2962  0.2180  0.2607  0.2347  0.2462

 Free energy of the ion-electron system (eV)
  ---------------------------------------------------
  alpha Z        PSCENC =       975.10247152
  Ewald energy   TEWEN  =     90967.52340517
  -Hartree energ DENC   =   -119666.72026084
  -exchange      EXHF   =         0.00000000
  -V(xc)+E(xc)   XCENC  =       178.22680505
  PAW double counting   =     30101.63567819   -29187.42137457
  entropy T*S    EENTRO =        -0.01323552
  eigenvalues    EBANDS =      -858.33954187
  atomic energy  EATOM  =     27259.89416086
  Solvation  Ediel_sol  =         0.00000000
  ---------------------------------------------------
  free energy    TOTEN  =      -230.11189201 eV

  energy without entropy =     -230.09865649  energy(sigma->0) =     -230.10748017


--------------------------------------------------------------------------------------------------------




--------------------------------------- Iteration      1(  25)  ---------------------------------------


    POTLOK:  cpu time    0.1264: real time    0.1272
    SETDIJ:  cpu time    0.0097: real time    0.0098
    EDDIAG:  cpu time    1.2236: real time    1.2324
  RMM-DIIS:  cpu time    2.5525: real time    2.5706
    ORTHCH:  cpu time    0.2285: real time    0.2299
[...]
     89      -2.1812      2.00000
     90      -2.1631      2.00000
     91      -2.1308      2.00000
     92      -2.1210      2.00000
     93      -2.0914      2.00000
     94      -2.0146      2.00000
     95      -1.9988      2.00000
     96      -1.9706      2.00000
     97      -1.9285      2.00000
     98      -1.8972      2.00000
     99      -1.8734      2.00000
    100      -1.8374      2.00000
    101      -1.7964      2.00000
    102      -1.7748      2.00000
    103      -1.7555      2.00000
    104      -1.7429      2.00000
    105      -1.7231      2.00000
    106      -1.6916      2.00000
    107      -1.6836      2.00000
    108      -1.6444      2.00000
    109      -1.6356      2.00000
    110      -1.5849      2.00000
    111      -1.5304      2.00000
    112      -1.4748      2.00000
    113      -1.4716      2.00000
    114      -1.3933      2.00000
    115      -1.3258      2.00000
    116      -1.3085      2.00000
    117      -1.2380      2.00000
    118      -1.2015      2.00000
    119      -1.1570      2.00000
    120      -1.1103      2.00000
    121      -1.0934      2.00000
    122      -1.0647      2.00000
    123      -1.0514      2.00000
    124      -1.0375      2.00000
    125      -1.0103      2.00000
    126      -0.9942      2.00000
    127      -0.9706      2.00000
    128      -0.9551      2.00000
    129      -0.9291      2.00000
    130      -0.9237      2.00000
    131      -0.8694      2.00000
    132      -0.8442      2.00000
    133      -0.7853      2.00000
    134      -0.7701      2.00000
    135      -0.7500      2.00000
    136      -0.7244      2.00000
    137      -0.7070      2.00000
    138      -0.6702      2.00000
    139      -0.6194      2.00000
    140      -0.5740      2.00000
    141      -0.5119      2.00000
    142      -0.4779      2.00000
    143      -0.4226      2.00000
    144      -0.3155      2.00000
    145      -0.2737      2.00000
    146      -0.2141      2.00000
    147      -0.2048      2.00000
    148      -0.1567      2.00000
    149      -0.1354      2.00000
    150      -0.0807      2.00000
    151      -0.0684      2.00000
    152       0.0070      2.00000
    153       0.0196      2.00000
    154       0.0497      2.00000
    155       0.0694      2.00000
    156       0.0770      2.00000
    157       0.0837      2.00000
    158       0.1481      2.00000
    159       0.1770      2.00000
    160       0.1914      2.00000
    161       0.2223      2.00000
    162       0.2598      2.00000
    163       0.2898      2.00000
    164       0.3283      2.00000
    165       0.3399      2.00000
    166       0.3678      2.00001
    167       0.4852      2.00032
    168       0.5588      2.00199
    169       0.5747      2.00283
    170       0.6002      2.00484
    171       0.6196      2.00710
    172       0.6510      2.01255
    173       0.6833      2.02108
    174       0.7601      2.05281
    175       0.7624      2.05388
    176       0.7899      2.06505
    177       0.8180      2.07086
    178       0.8386      2.06813
    179       0.8838      2.02590
    180       0.8961      2.00233
    181       0.9098      1.96884
    182       0.9797      1.65796
    183       1.0109      1.44408
    184       1.0584      1.06079
    185       1.0743      0.92608
    186       1.0799      0.87945
    187       1.1082      0.64791
    188       1.1262      0.51201
    189       1.1286      0.49510
    190       1.1439      0.39050
    191       1.2856     -0.06528
    192       1.3110     -0.07091
    193       1.3335     -0.06746
    194       1.3645     -0.05577
    195       1.3930     -0.04274
    196       1.4745     -0.01380
    197       1.5801     -0.00167
    198       1.6998     -0.00007
    199       1.7908     -0.00000
    200       1.9606     -0.00000
    201       2.2135     -0.00000
    202       2.3096     -0.00000
    203       2.7649     -0.00000
    204       2.9219     -0.00000
    205       2.9386     -0.00000
    206       2.9668     -0.00000
    207       2.9836     -0.00000
    208       3.2176     -0.00000
    209       3.3746     -0.00000
    210       3.4863     -0.00000
    211       3.5294     -0.00000
    212       3.5876     -0.00000
    213       3.6943     -0.00000
    214       3.7906     -0.00000
    215       3.9451     -0.00000
    216       4.1360     -0.00000
    217       4.1883     -0.00000
    218       4.3883     -0.00000
    219       4.3977     -0.00000
    220       4.5743     -0.00000
    221       4.6415     -0.00000
    222       4.8264     -0.00000
    223       5.1780     -0.00000
    224       5.5176     -0.00000
    225       5.9958     -0.00000
    226       6.4861     -0.00000
    227       6.5208     -0.00000
    228       6.5746      0.00000


--------------------------------------------------------------------------------------------------------


 soft charge-density along one line, spin component           1
         0         1         2         3         4         5         6         7         8         9
 total charge-density along one line
 
 pseudopotential strength for first ion, spin component:           1
 10.088   0.015   0.004   0.009  -0.000  -0.004  -0.008   0.000
  0.015  -0.002  -0.000  -0.000  -0.000  -0.000  -0.000   0.000
  0.004  -0.000  -4.243  -0.006   0.001  -0.010  -0.003   0.000
  0.009  -0.000  -0.006  -4.255   0.004  -0.003  -0.015   0.001
 -0.000  -0.000   0.001   0.004  -4.240   0.000   0.001  -0.009
 -0.004  -0.000  -0.010  -0.003   0.000  -0.770  -0.000   0.000
 -0.008  -0.000  -0.003  -0.015   0.001  -0.000  -0.770   0.000
  0.000   0.000   0.000   0.001  -0.009   0.000   0.000  -0.770
 total augmentation occupancy for first ion, spin component:           1
  1.625  -0.839   0.014  -0.002  -0.061   0.037   0.078  -0.025
 -0.839   1.164  -0.229  -0.505   0.097  -0.091  -0.212   0.035
  0.014  -0.229   0.857   0.203  -0.003   0.117   0.058  -0.007
 -0.002  -0.505   0.203   1.286  -0.012   0.058   0.237  -0.012
 -0.061   0.097  -0.003  -0.012   0.792  -0.007  -0.012   0.098
  0.037  -0.091   0.117   0.058  -0.007   0.021   0.023  -0.004
  0.078  -0.212   0.058   0.237  -0.012   0.023   0.066  -0.007
 -0.025   0.035  -0.007  -0.012   0.098  -0.004  -0.007   0.014


------------------------ aborting loop because EDIFF is reached ----------------------------------------


    CHARGE:  cpu time    0.3545: real time    0.3568
    FORLOC:  cpu time    0.0397: real time    0.0399
    FORNL :  cpu time    1.9286: real time    1.9419
    STRESS:  cpu time    5.6400: real time    5.6783
    FORCOR:  cpu time    0.1401: real time    0.1409
    FORHAR:  cpu time    0.0636: real time    0.0640
    MIXING:  cpu time    0.0041: real time    0.0041
    OFIELD:  cpu time    0.0001: real time    0.0001

  FORCE on cell =-STRESS in cart. coord.  units (eV):
  Direction    XX          YY          ZZ          XY          YZ          ZX
  --------------------------------------------------------------------------------------
  Alpha Z   975.10247   975.10247   975.10247
  Ewald  110894.75098110885.25223************  -219.46695   256.20707   -85.78760
  Hartree117643.39013117609.49116************  -145.94623   106.68084   -47.88033
  E(xc)   -1665.55017 -1665.34274 -1673.03968    -0.48113     0.77276    -0.25409
  Local  ************************239202.63817   355.33762  -337.54259   126.64551
  n-local   122.63580   121.34738    87.96391    -1.13380     0.85740     0.49204
  augment  1894.83893  1893.57834  1933.47286     2.56638    -4.54319     0.90878
  Kinetic  5521.42303  5512.59562  5601.68246    10.17036   -23.22995     7.57272
  Fock        0.00000     0.00000     0.00000     0.00000     0.00000     0.00000
  -------------------------------------------------------------------------------------
  Total     -37.81514   -40.19416    -5.42008     1.04624    -0.79766     1.69702
  in kB     -45.03845   -47.87191    -6.45541     1.24609    -0.95003     2.02118
  external pressure =      -33.12 kB  Pullay stress =        0.00 kB


 VOLUME and BASIS-vectors are now :
 -----------------------------------------------------------------------------
  energy-cutoff  :      450.00
  volume of cell :     1345.22
      direct lattice vectors                 reciprocal lattice vectors
     7.296955120 -4.212899000  0.000000000     0.137043463  0.000000000  0.000000000
     0.000000000  8.425798000  0.000000000     0.068521732  0.118683121  0.000000000
     0.000000000  0.000000000 21.879635000     0.000000000  0.000000000  0.045704602

  length of vectors
     8.425798004  8.425798000 21.879635000     0.137043463  0.137043463  0.045704602


 FORCES acting on ions
    electron-ion (+dipol)            ewald-force                    non-local-force                 convergence-correction
 -----------------------------------------------------------------------------------------------
   0.130E+02 0.239E+02 -.888E+03   -.136E+02 -.287E+02 0.877E+03   0.684E+00 0.391E+01 0.104E+02   0.655E-02 -.135E-01 0.752E-02
   -.822E+02 0.470E+02 -.159E+04   0.840E+02 -.434E+02 0.162E+04   -.142E+01 -.327E+01 -.231E+02   0.198E-01 0.113E-01 0.166E-01
   0.632E+02 -.114E+03 -.155E+04   -.721E+02 0.137E+03 0.161E+04   0.905E+01 -.234E+02 -.555E+02   0.257E-01 -.201E-02 0.425E-02
   -.104E+00 0.266E+00 0.234E+04   0.937E-01 -.228E+00 -.234E+04   0.278E-01 -.377E-01 -.120E+01   -.115E-01 -.465E-01 -.318E-02
   0.412E+00 0.999E-01 0.234E+04   -.399E+00 -.105E+00 -.234E+04   -.156E-01 -.336E-01 -.111E+01   -.253E-01 -.704E-02 -.552E-02
   0.415E-01 0.339E+00 0.234E+04   -.897E-01 -.343E+00 -.234E+04   0.247E-01 -.350E-02 -.113E+01   -.259E-02 -.147E-01 -.298E-02
   -.973E-01 0.435E+00 0.234E+04   0.136E+00 -.410E+00 -.234E+04   -.191E-02 0.209E-01 -.115E+01   -.175E-01 0.952E-02 -.410E-02
   0.358E+00 0.378E+00 0.234E+04   -.376E+00 -.356E+00 -.234E+04   0.485E-02 0.231E-01 -.125E+01   0.111E-01 -.229E-01 -.224E-01
   0.312E+00 0.183E+00 0.234E+04   -.314E+00 -.196E+00 -.234E+04   0.153E-01 0.700E-02 -.122E+01   0.792E-02 0.159E-01 -.874E-02
   -.488E-01 -.604E+00 0.234E+04   0.122E+00 0.456E+00 -.234E+04   -.617E-01 0.867E-01 -.110E+01   0.581E-02 0.298E-01 -.124E-02
   -.337E+00 -.454E+00 0.234E+04   0.308E+00 0.540E+00 -.234E+04   -.954E-02 -.352E-01 -.123E+01   0.411E-01 -.109E-02 -.327E-02
   -.474E+00 -.676E+00 0.234E+04   0.518E+00 0.641E+00 -.234E+04   -.178E-01 0.146E-01 -.102E+01   -.910E-02 0.369E-01 0.118E-01
   -.861E+00 -.501E+01 0.854E+03   0.816E+00 0.497E+01 -.853E+03   0.459E-01 0.770E-01 -.375E+00   -.339E-01 0.184E-01 -.236E-01
   -.267E+01 -.246E+01 0.857E+03   0.256E+01 0.250E+01 -.857E+03   0.149E+00 0.507E-01 -.967E-01   0.155E-01 0.291E-02 -.303E-01
   -.271E+01 -.467E+01 0.856E+03   0.279E+01 0.461E+01 -.856E+03   0.124E-01 0.111E+00 -.230E+00   0.186E-01 -.203E-01 -.328E-01
   0.111E+01 0.261E+01 0.857E+03   -.111E+01 -.263E+01 -.856E+03   0.105E-01 0.356E-01 -.209E+00   -.335E-01 -.525E-01 -.461E-01
   0.427E+01 0.160E+01 0.860E+03   -.433E+01 -.160E+01 -.860E+03   -.265E-01 -.126E-02 -.271E+00   0.247E-02 -.142E-01 -.329E-01
   -.102E+01 0.425E+01 0.858E+03   0.102E+01 -.428E+01 -.857E+03   0.178E-01 0.367E-02 -.196E+00   -.184E-01 -.201E-01 -.251E-01
   0.147E+01 0.189E+01 0.860E+03   -.141E+01 -.179E+01 -.860E+03   -.102E+00 -.122E+00 -.328E+00   -.822E-02 0.335E-01 -.130E-01
   0.214E+01 0.175E+01 0.862E+03   -.218E+01 -.169E+01 -.862E+03   -.182E-01 -.110E+00 -.413E+00   0.512E-01 0.108E-01 -.343E-01
   -.114E+01 0.956E+00 0.863E+03   0.122E+01 -.852E+00 -.863E+03   -.232E-01 -.107E+00 -.422E+00   0.588E-02 0.413E-01 -.176E-01
   -.151E+01 0.235E+01 -.643E+03   0.149E+01 -.249E+01 0.643E+03   0.263E-01 0.783E-01 0.338E+00   -.569E-01 0.352E-01 0.325E-01
   0.331E+01 -.173E+01 -.624E+03   -.332E+01 0.170E+01 0.623E+03   -.586E-01 0.221E-01 0.528E+00   0.103E-01 0.545E-01 -.205E-01
   -.413E+01 0.437E+01 -.654E+03   0.392E+01 -.404E+01 0.654E+03   0.127E+00 -.360E+00 -.399E-01   0.266E-01 -.195E-02 0.363E-01
   -.195E+01 0.896E+01 -.650E+03   0.161E+01 -.818E+01 0.650E+03   0.320E+00 -.745E+00 -.381E+00   -.452E-01 -.350E-01 -.718E-01
   0.129E+02 0.284E+01 -.634E+03   -.123E+02 -.289E+01 0.634E+03   -.628E+00 0.286E-01 -.143E+00   -.123E-01 -.227E-01 0.451E-01
   -.687E+01 -.847E+01 -.623E+03   0.678E+01 0.835E+01 0.622E+03   0.107E+00 0.471E-01 0.391E+00   0.529E-02 0.138E-01 0.321E-01
   -.438E+01 -.453E+01 -.620E+03   0.437E+01 0.455E+01 0.620E+03   -.176E-01 0.776E-02 0.601E+00   0.413E-01 0.174E-01 -.811E-01
   0.470E+01 -.789E+00 -.641E+03   -.479E+01 0.772E+00 0.641E+03   0.425E-01 0.353E-01 0.152E+00   0.340E-01 -.275E-01 -.972E-02
   -.328E+01 -.750E+00 -.621E+03   0.320E+01 0.525E+00 0.621E+03   0.206E+00 0.293E+00 0.347E+00   0.839E-03 -.224E-01 0.298E-02
   -.205E+02 -.178E+02 -.217E+04   0.210E+02 0.179E+02 0.216E+04   -.563E+00 0.745E-01 0.125E+01   -.264E-01 -.300E-01 0.125E+00
   0.180E+02 0.267E+02 -.213E+04   -.184E+02 -.273E+02 0.213E+04   0.342E+00 0.649E+00 0.143E+01   0.386E-01 0.387E-01 0.290E-01
   0.349E+02 -.160E+01 -.215E+04   -.353E+02 0.163E+01 0.215E+04   0.284E+00 0.612E-01 0.108E+01   0.363E-01 -.216E-01 0.111E+00
   -.110E+02 0.733E+01 -.216E+04   0.109E+02 -.747E+01 0.216E+04   0.175E+00 0.128E+00 0.111E+01   -.444E-02 -.154E-01 0.338E-01
   0.205E+02 0.123E+02 -.216E+04   -.205E+02 -.127E+02 0.215E+04   -.709E-01 0.473E+00 0.112E+01   0.100E-02 0.235E-01 -.291E-01
   0.671E+02 0.598E+02 -.196E+04   -.696E+02 -.581E+02 0.197E+04   0.226E+01 -.144E+01 -.337E+01   0.534E-01 -.372E-01 0.663E-01
   -.571E+02 -.535E+02 -.206E+04   0.584E+02 0.557E+02 0.206E+04   -.123E+01 -.222E+01 0.240E+01   -.316E-01 -.346E-03 0.165E-02
   -.634E+02 0.959E+02 -.206E+04   0.636E+02 -.962E+02 0.206E+04   -.285E+00 0.393E+00 -.123E+01   -.197E-01 0.250E-01 0.437E-01
   0.872E+01 -.630E+02 -.211E+04   -.871E+01 0.642E+02 0.211E+04   -.295E-01 -.118E+01 0.124E+01   0.129E-01 -.433E-01 0.114E+00
 -----------------------------------------------------------------------------------------------
   -.941E+01 0.266E+02 0.742E+02   0.586E-13 -.156E-12 0.123E-10   0.935E+01 -.265E+02 -.744E+02   0.116E+00 -.541E-01 0.194E+00
 
 
 POSITION                                       TOTAL-FORCE (eV/Angst)
 -----------------------------------------------------------------------------------
      5.08369      0.62245     10.35532         0.054911     -0.846000      0.189691
      6.65082     -0.53094     10.25295         0.399547      0.364575      0.089511
      4.91719      1.07450     11.41997         0.208410     -0.084622     -0.256850
      7.20031     -1.38846      1.62732         0.004150     -0.048801      0.152500
      2.33567      1.42014      1.62732        -0.029500     -0.049308      0.163969
      4.76799      0.01584      1.62732        -0.027602     -0.024942      0.124343
      7.20031      1.42015      1.62732         0.017389      0.052195      0.128458
      2.33567      4.22875      1.62732        -0.003155      0.019364      0.146516
      4.76799      2.82445      1.62732         0.019860      0.006422      0.152353
      2.33567      7.03734      1.62732         0.015475     -0.035762      0.035416
      4.76799      5.63304      1.62732         0.000263      0.045898      0.107300
      7.20031      4.22874      1.62732         0.016325      0.012777      0.045077
      1.52490      0.01584      3.92052        -0.034256      0.044505     -0.067819
      3.95722     -1.38846      3.92052         0.047249      0.086642     -0.016906
      6.38953     -2.79276      3.92052         0.105544      0.032567     -0.045410
      1.52490      2.82445      3.92052        -0.026960     -0.035549      0.063169
      3.95722      1.42015      3.92052        -0.089275     -0.014170      0.005631
      6.38953      0.01585      3.92052        -0.000990     -0.049976      0.095731
      1.52490      5.63305      3.92052        -0.056692      0.003146     -0.142074
      3.95722      4.22874      3.92052        -0.009913     -0.040625     -0.142098
      6.38953      2.82445      3.92052         0.056657      0.034892     -0.256559
      0.71432      4.21001      6.21893        -0.050630     -0.032825     -0.039332
      3.14685      5.61545      6.17682        -0.061426      0.047541      0.048854
      5.57980     -1.37898      6.24102        -0.061742     -0.032290     -0.110444
      0.69688      1.45057      6.23258        -0.065566     -0.004599      0.110511
      3.14623      0.00759      6.21883        -0.022781     -0.052093     -0.148344
      0.70409      7.03399      6.18141         0.020455     -0.064143      0.015470
      5.57722      4.21864      6.17324         0.018595      0.039725      0.090833
      3.14131      2.80905      6.21786        -0.008802     -0.012672     -0.105848
      5.56197      1.40295      6.19358         0.128998      0.042230      0.014454
      2.35972      4.18818      8.50476        -0.046568      0.138279     -0.192137
      4.75491      5.59304      8.45271        -0.038669      0.082527      0.057105
      2.32209      1.37632      8.52451        -0.116332      0.069838     -0.226357
      7.19263      4.20193      8.48751         0.056296     -0.029486      0.052245
      2.33264      6.97886      8.47023        -0.089311      0.056557      0.051327
      4.67102      0.03298      8.58201        -0.193097      0.224765     -0.047608
      7.23500      1.43708      8.45284         0.052062     -0.046351      0.043273
      7.23897     -1.47645      8.65822        -0.184615      0.070659      0.066798
      4.77767      2.84504      8.49559        -0.004303      0.029108     -0.252750
 -----------------------------------------------------------------------------------
    total drift:                                0.060317      0.130707      0.024709
  FORCES: max atom, RMS     0.868743    0.205962
  Number: max atom                 1
  FORCE total and by dimension    1.286230    0.846000


--------------------------------------------------------------------------------------------------------



  FREE ENERGIE OF THE ION-ELECTRON SYSTEM (eV)
  ---------------------------------------------------
  free  energy   TOTEN  =      -230.72609264 eV

  energy  without entropy=     -230.71260777  energy(sigma->0) =     -230.72159768
 
 d Force = 0.6323990E-01[ 0.551E-01, 0.714E-01]  d Energy = 0.6337142E-01-0.132E-03
 d Force =-0.3800876E+02[-0.379E+02,-0.382E+02]  d Ewald  =-0.3800899E+02 0.231E-03


--------------------------------------------------------------------------------------------------------


    POTLOK:  cpu time    0.1237: real time    0.2692


--------------------------------------------------------------------------------------------------------


 stress matrix after NEB project (eV)
    -37.81514      1.04624      1.69702
      1.04624    -40.19416     -0.79766
      1.69702     -0.79766     -5.42008
  FORCES: max atom, RMS     0.868743    0.205962
  FORCE total and by dimension    1.286230    0.846000
  Stress total and by dimension   55.535160   40.194163
 Quasi-Newton relaxation of ions (Broydens 2nd method)
  g(Force)  = 0.319E-01   g(Stress)= 0.000E+00

 retain information from N=  3 steps
 eigenvalues of (default step * inverse Hessian matrix)
  average eigenvalue of G=   2.3540
 eigenvalue spectrum of G is  2.2153  1.6897  3.1572
  RESET_HESSIAN           0


--------------------------------------------------------------------------------------------------------


    WAVPRE:  cpu time    0.0614: real time    0.2174
    FEWALD:  cpu time    0.0024: real time    0.0024

 real space projection operators:
  total allocation   :      13550.17 KBytes
  max/ min on nodes  :       6781.27       6768.91

    ORTHCH:  cpu time    0.8084: real time    0.8137
     LOOP+:  cpu time   59.3324: real time   60.3524


--------------------------------------- Iteration      6(   1)  ---------------------------------------


    POTLOK:  cpu time    0.1197: real time    0.2671
    SETDIJ:  cpu time    0.0093: real time    0.0094
