metal                                   
           1
     7.296955   -4.212899    0.000000
     0.000000    8.425798    0.000000
     0.000000    0.000000   21.879635
   C    O    Pt
   1   2  36
Direct configuration=     1
   0.69862229  0.43324087  0.47147655
   0.90406583  0.38624030  0.46770478
   0.67048575  0.46009675  0.52136508
   0.98675500  0.32859100  0.07437600
   0.32008800  0.32859100  0.07437600
   0.65342200  0.32859100  0.07437600
   0.98675500  0.66192500  0.07437600
   0.32008800  0.66192500  0.07437600
   0.65342200  0.66192500  0.07437600
   0.32008800  0.99525800  0.07437600
   0.65342200  0.99525800  0.07437600
   0.98675500  0.99525800  0.07437600
   0.20897700  0.10636900  0.17918600
   0.54231100  0.10636900  0.17918600
   0.87564400  0.10636900  0.17918600
   0.20897700  0.43970300  0.17918600
   0.54231100  0.43970300  0.17918600
   0.87564400  0.43970300  0.17918600
   0.20897700  0.77303600  0.17918600
   0.54231100  0.77303600  0.17918600
   0.87564400  0.77303600  0.17918600
   0.09368611  0.55218988  0.28498636
   0.43139568  0.88601493  0.28158679
   0.76789332  0.21879616  0.28693859
   0.09129940  0.21781342  0.28187315
   0.42941562  0.21236375  0.28694197
   0.10059678  0.88131156  0.28533730
   0.76310575  0.88431861  0.27881589
   0.43508647  0.55074037  0.28321412
   0.76114253  0.54481947  0.28290842
   0.32211502  0.65704994  0.39109805
   0.65353798  0.99448908  0.38599754
   0.32494209  0.32202795  0.39193842
   0.98484603  0.98826784  0.38859254
   0.32099527  0.98964053  0.38451161
   0.64504442  0.32407646  0.39486700
   0.99089882  0.66727475  0.38431800
   0.98919983  0.32133653  0.39583769
   0.65493761  0.66254826  0.39036116
Direct configuration=     2
   0.69811026  0.43159995  0.47222670
   0.90557359  0.38742237  0.46806826
   0.67117284  0.46134195  0.52171118
   0.98675500  0.32859100  0.07437600
   0.32008800  0.32859100  0.07437600
   0.65342200  0.32859100  0.07437600
   0.98675500  0.66192500  0.07437600
   0.32008800  0.66192500  0.07437600
   0.65342200  0.66192500  0.07437600
   0.32008800  0.99525800  0.07437600
   0.65342200  0.99525800  0.07437600
   0.98675500  0.99525800  0.07437600
   0.20897700  0.10636900  0.17918600
   0.54231100  0.10636900  0.17918600
   0.87564400  0.10636900  0.17918600
   0.20897700  0.43970300  0.17918600
   0.54231100  0.43970300  0.17918600
   0.87564400  0.43970300  0.17918600
   0.20897700  0.77303600  0.17918600
   0.54231100  0.77303600  0.17918600
   0.87564400  0.77303600  0.17918600
   0.09513793  0.55100847  0.28475152
   0.43158839  0.88469394  0.28174309
   0.76702680  0.21894661  0.28650011
   0.09270924  0.21853184  0.28270120
   0.43017836  0.21402002  0.28617975
   0.09911180  0.88205473  0.28435610
   0.76345590  0.88380745  0.27978734
   0.43368486  0.55010732  0.28356608
   0.76105963  0.54535801  0.28293080
   0.32260861  0.65736384  0.39050009
   0.65302897  0.99289466  0.38607373
   0.32315906  0.32221777  0.39138743
   0.98492118  0.98928551  0.38836537
   0.32091116  0.98924905  0.38538851
   0.64356147  0.32327274  0.39373356
   0.99088185  0.66691825  0.38498622
   0.99056623  0.32109982  0.39564160
   0.65485591  0.66331318  0.38988112
Direct configuration=     3
   0.69758342  0.42740652  0.47201700
   0.90802474  0.38940636  0.46835221
   0.67192292  0.46338807  0.52268560
   0.98675500  0.32859100  0.07437600
   0.32008800  0.32859100  0.07437600
   0.65342200  0.32859100  0.07437600
   0.98675500  0.66192500  0.07437600
   0.32008800  0.66192500  0.07437600
   0.65342200  0.66192500  0.07437600
   0.32008800  0.99525800  0.07437600
   0.65342200  0.99525800  0.07437600
   0.98675500  0.99525800  0.07437600
   0.20897700  0.10636900  0.17918600
   0.54231100  0.10636900  0.17918600
   0.87564400  0.10636900  0.17918600
   0.20897700  0.43970300  0.17918600
   0.54231100  0.43970300  0.17918600
   0.87564400  0.43970300  0.17918600
   0.20897700  0.77303600  0.17918600
   0.54231100  0.77303600  0.17918600
   0.87564400  0.77303600  0.17918600
   0.09675359  0.54972945  0.28448657
   0.43155891  0.88321562  0.28201048
   0.76586217  0.21893963  0.28588981
   0.09434216  0.21934861  0.28379144
   0.43082089  0.21556662  0.28521292
   0.09758167  0.88272807  0.28331610
   0.76390847  0.88321576  0.28102311
   0.43194781  0.54933302  0.28396837
   0.76139542  0.54634229  0.28298563
   0.32312520  0.65791664  0.38964979
   0.65234887  0.99102284  0.38617704
   0.32072325  0.32236434  0.39057089
   0.98520237  0.99052283  0.38809544
   0.32045800  0.98865257  0.38632782
   0.64203650  0.32339211  0.39292442
   0.99107065  0.66657852  0.38571192
   0.99175245  0.32094716  0.39559978
   0.65477883  0.66422475  0.38916936
Direct configuration=     4
   0.69699521  0.42564133  0.47299835
   0.90943791  0.39069818  0.46850654
   0.67289864  0.46374801  0.52211499
   0.98675500  0.32859100  0.07437600
   0.32008800  0.32859100  0.07437600
   0.65342200  0.32859100  0.07437600
   0.98675500  0.66192500  0.07437600
   0.32008800  0.66192500  0.07437600
   0.65342200  0.66192500  0.07437600
   0.32008800  0.99525800  0.07437600
   0.65342200  0.99525800  0.07437600
   0.98675500  0.99525800  0.07437600
   0.20897700  0.10636900  0.17918600
   0.54231100  0.10636900  0.17918600
   0.87564400  0.10636900  0.17918600
   0.20897700  0.43970300  0.17918600
   0.54231100  0.43970300  0.17918600
   0.87564400  0.43970300  0.17918600
   0.20897700  0.77303600  0.17918600
   0.54231100  0.77303600  0.17918600
   0.87564400  0.77303600  0.17918600
   0.09751223  0.54909698  0.28435248
   0.43149136  0.88251059  0.28215749
   0.76525095  0.21888220  0.28556344
   0.09512182  0.21973762  0.28436226
   0.43109138  0.21624801  0.28470339
   0.09686368  0.88301461  0.28281875
   0.76413602  0.88294175  0.28164664
   0.43108824  0.54894296  0.28414809
   0.76166688  0.54691756  0.28302289
   0.32335096  0.65826294  0.38918677
   0.65198498  0.99012102  0.38623918
   0.31942751  0.32243356  0.39011316
   0.98539550  0.99113618  0.38796811
   0.32016056  0.98834848  0.38678997
   0.64110390  0.32345438  0.39246066
   0.99122024  0.66641986  0.38607265
   0.99220689  0.32086001  0.39560066
   0.65474368  0.66467829  0.38876713
Direct configuration=     5
   0.69668648  0.42221721  0.47328589
   0.91145114  0.39271201  0.46860678
   0.67386920  0.46446004  0.52194509
   0.98675500  0.32859100  0.07437600
   0.32008800  0.32859100  0.07437600
   0.65342200  0.32859100  0.07437600
   0.98675500  0.66192500  0.07437600
   0.32008800  0.66192500  0.07437600
   0.65342200  0.66192500  0.07437600
   0.32008800  0.99525800  0.07437600
   0.65342200  0.99525800  0.07437600
   0.98675500  0.99525800  0.07437600
   0.20897700  0.10636900  0.17918600
   0.54231100  0.10636900  0.17918600
   0.87564400  0.10636900  0.17918600
   0.20897700  0.43970300  0.17918600
   0.54231100  0.43970300  0.17918600
   0.87564400  0.43970300  0.17918600
   0.20897700  0.77303600  0.17918600
   0.54231100  0.77303600  0.17918600
   0.87564400  0.77303600  0.17918600
   0.09789224  0.54860335  0.28423370
   0.43125557  0.88208749  0.28230921
   0.76467542  0.21867583  0.28524341
   0.09550335  0.21991027  0.28485764
   0.43117033  0.21648630  0.28422894
   0.09649158  0.88306129  0.28251886
   0.76432203  0.88284217  0.28214526
   0.43049586  0.54863524  0.28418489
   0.76223205  0.54762257  0.28307505
   0.32338459  0.65875911  0.38870670
   0.65162889  0.98961445  0.38632773
   0.31822734  0.32246019  0.38960916
   0.98570344  0.99155006  0.38791830
   0.31967260  0.98810892  0.38712835
   0.64013337  0.32398116  0.39223748
   0.99150886  0.66631151  0.38633379
   0.99205382  0.32079773  0.39572031
   0.65474892  0.66503295  0.38828735
