       N       E                     dE             d eps       ncg     rms          rms(c)
DAV:   1     0.242449385490E+04    0.24245E+04   -0.15954E+05  1824   0.129E+03
DAV:   2    -0.622415801280E+02   -0.24867E+04   -0.23077E+04  2112   0.286E+02
DAV:   3    -0.240390447446E+03   -0.17815E+03   -0.16189E+03  2200   0.692E+01
DAV:   4    -0.247970155743E+03   -0.75797E+01   -0.73028E+01  2344   0.136E+01
DAV:   5    -0.248186996541E+03   -0.21684E+00   -0.21466E+00  2440   0.235E+00    0.273E+01
RMM:   6    -0.244443657972E+03    0.37433E+01   -0.55885E+01  1829   0.149E+01    0.278E+01
RMM:   7    -0.246518656667E+03   -0.20750E+01   -0.31227E+01  1831   0.885E+00    0.222E+01
RMM:   8    -0.243088527465E+03    0.34301E+01   -0.10283E+01  1827   0.486E+00    0.226E+01
RMM:   9    -0.231754131440E+03    0.11334E+02   -0.61430E+00  1831   0.408E+00    0.860E+00
RMM:  10    -0.230655347053E+03    0.10988E+01   -0.19008E+00  1831   0.226E+00    0.534E+00
RMM:  11    -0.230339439375E+03    0.31591E+00   -0.50668E-01  1831   0.114E+00    0.316E+00
RMM:  12    -0.230188332177E+03    0.15111E+00   -0.21537E-01  1844   0.742E-01    0.178E+00
RMM:  13    -0.230198509560E+03   -0.10177E-01   -0.11068E-01  1833   0.542E-01    0.194E+00
RMM:  14    -0.230153245571E+03    0.45264E-01   -0.70460E-02  1831   0.456E-01    0.951E-01
RMM:  15    -0.230146663383E+03    0.65822E-02   -0.28264E-02  1831   0.288E-01    0.618E-01
RMM:  16    -0.230140570802E+03    0.60926E-02   -0.66368E-03  1827   0.142E-01    0.222E-01
RMM:  17    -0.230140032308E+03    0.53849E-03   -0.14594E-03  1816   0.653E-02    0.131E-01
RMM:  18    -0.230140160693E+03   -0.12839E-03   -0.69343E-04  1709   0.443E-02    0.111E-01
RMM:  19    -0.230140137044E+03    0.23650E-04   -0.33826E-04  1216   0.329E-02
   1 F= -.23014014E+03 E0= -.23013280E+03  d E =-.230140E+03
       N       E                     dE             d eps       ncg     rms          rms(c)
DAV:   1    -0.230342360455E+03   -0.20220E+00   -0.38368E+01  1844   0.122E+01    0.108E+00
RMM:   2    -0.230696084388E+03   -0.35372E+00   -0.10861E+00  1832   0.189E+00    0.481E+00
RMM:   3    -0.230445635553E+03    0.25045E+00   -0.95094E-02  1834   0.523E-01    0.134E+00
RMM:   4    -0.230424591704E+03    0.21044E-01   -0.29114E-02  1838   0.286E-01    0.711E-01
RMM:   5    -0.230417022859E+03    0.75688E-02   -0.74000E-03  1829   0.142E-01    0.456E-01
RMM:   6    -0.230415426636E+03    0.15962E-02   -0.47541E-03  1828   0.120E-01    0.302E-01
RMM:   7    -0.230415777445E+03   -0.35081E-03   -0.59099E-03  1827   0.135E-01    0.286E-01
RMM:   8    -0.230414496220E+03    0.12812E-02   -0.17267E-03  1823   0.708E-02    0.849E-02
RMM:   9    -0.230414433082E+03    0.63137E-04   -0.21867E-04  1064   0.266E-02
   2 F= -.23041443E+03 E0= -.23040829E+03  d E =-.274296E+00
       N       E                     dE             d eps       ncg     rms          rms(c)
DAV:   1    -0.230522911291E+03   -0.10842E+00   -0.23109E+01  1832   0.930E+00    0.593E-01
RMM:   2    -0.230598133840E+03   -0.75223E-01   -0.45246E-01  1836   0.137E+00    0.157E+00
RMM:   3    -0.230569325879E+03    0.28808E-01   -0.29311E-02  1862   0.301E-01    0.701E-01
RMM:   4    -0.230563947275E+03    0.53786E-02   -0.91778E-03  1841   0.163E-01    0.451E-01
RMM:   5    -0.230561082805E+03    0.28645E-02   -0.24396E-03  1836   0.822E-02    0.274E-01
RMM:   6    -0.230561053738E+03    0.29067E-04   -0.25381E-03  1831   0.847E-02    0.232E-01
RMM:   7    -0.230560697097E+03    0.35664E-03   -0.27923E-03  1827   0.907E-02    0.130E-01
RMM:   8    -0.230560469342E+03    0.22775E-03   -0.51132E-04  1502   0.394E-02    0.564E-02
RMM:   9    -0.230560461222E+03    0.81202E-05   -0.10587E-04   973   0.195E-02
   3 F= -.23056046E+03 E0= -.23055466E+03  d E =-.146028E+00
       N       E                     dE             d eps       ncg     rms          rms(c)
DAV:   1    -0.230613420981E+03   -0.52952E-01   -0.10383E+01  1824   0.632E+00    0.481E-01
RMM:   2    -0.230639604588E+03   -0.26184E-01   -0.23360E-01  1837   0.955E-01    0.664E-01
RMM:   3    -0.230639160408E+03    0.44418E-03   -0.13338E-02  1860   0.204E-01    0.701E-01
RMM:   4    -0.230633166942E+03    0.59935E-02   -0.44988E-03  1838   0.113E-01    0.358E-01
RMM:   5    -0.230631365499E+03    0.18014E-02   -0.23565E-03  1832   0.832E-02    0.203E-01
RMM:   6    -0.230631699660E+03   -0.33416E-03   -0.27281E-03  1827   0.882E-02    0.256E-01
RMM:   7    -0.230630774394E+03    0.92527E-03   -0.12988E-03  1822   0.611E-02    0.800E-02
RMM:   8    -0.230630776663E+03   -0.22695E-05   -0.26852E-04  1097   0.294E-02
   4 F= -.23063078E+03 E0= -.23062527E+03  d E =-.703154E-01
       N       E                     dE             d eps       ncg     rms          rms(c)
