 vasp.5.4.4 16052018 (build Apr 24 2014 20:13:14) complex standard
 Contain Constrained Minimization Technique (TS), Periodic NBO, VASPsol, libbeef, VASP2WANNIER90, Constrained Cell Relaxation
 executed on Center for Computational Chemistry by phu@node11 date 2025.11.24 22:00:32
 running on    8 total cores
 distrk:  each k-point on    8 cores,    1 groups
 distr:  one band on NCORES_PER_BAND=   2 cores,    4 groups


--------------------------------------------------------------------------------------------------------


 INCAR:
 POTCAR:   PAW_PBE C 08Apr2002                    
 POTCAR:   PAW_PBE O 08Apr2002                    
 POTCAR:    PAW_PBE Pt 04Feb2005                  
 POTCAR:   PAW_PBE C 08Apr2002                    
   VRHFIN =C: s2p2                                                              
   LEXCH  = PE                                                                  
   EATOM  =   147.1560 eV,   10.8157 Ry                                         
                                                                                
   TITEL  = PAW_PBE C 08Apr2002                                                 
   LULTRA =        F    use ultrasoft PP ?                                      
   IUNSCR =        0    unscreen: 0-lin 1-nonlin 2-no                           
   RPACOR =     .000    partial core radius                                     
   POMASS =   12.011; ZVAL   =    4.000    mass and valenz                      
   RCORE  =    1.500    outmost cutoff radius                                   
   RWIGS  =    1.630; RWIGS  =     .863    wigner-seitz radius (au A)           
   ENMAX  =  400.000; ENMIN  =  300.000 eV                                      
   ICORE  =        2    local potential                                         
   LCOR   =        T    correct aug charges                                     
   LPAW   =        T    paw PP                                                  
   EAUG   =  644.873                                                            
   DEXC   =     .000                                                            
   RMAX   =    2.266    core radius for proj-oper                               
   RAUG   =    1.300    factor for augmentation sphere                          
   RDEP   =    1.501    radius for radial grids                                 
   RDEPT  =    1.300    core radius for aug-charge                              
   QCUT   =   -5.516; QGAM   =   11.032    optimization parameters              
                                                                                
   Description                                                                  
     l     E      TYP  RCUT    TYP  RCUT                                        
     0   .000     23  1.200                                                     
     0   .000     23  1.200                                                     
     1   .000     23  1.500                                                     
     1  2.500     23  1.500                                                     
     2   .000      7  1.500                                                     
  local pseudopotential read in
  atomic valenz-charges read in
  non local Contribution for L=           0  read in
    real space projection operators read in
  non local Contribution for L=           0  read in
    real space projection operators read in
  non local Contribution for L=           1  read in
    real space projection operators read in
  non local Contribution for L=           1  read in
    real space projection operators read in
    PAW grid and wavefunctions read in
 
   number of l-projection  operators is LMAX  =           4
   number of lm-projection operators is LMMAX =           8
 
 POTCAR:   PAW_PBE O 08Apr2002                    
   VRHFIN =O: s2p4                                                              
   LEXCH  = PE                                                                  
   EATOM  =   432.3788 eV,   31.7789 Ry                                         
                                                                                
   TITEL  = PAW_PBE O 08Apr2002                                                 
   LULTRA =        F    use ultrasoft PP ?                                      
   IUNSCR =        0    unscreen: 0-lin 1-nonlin 2-no                           
   RPACOR =     .000    partial core radius                                     
   POMASS =   16.000; ZVAL   =    6.000    mass and valenz                      
   RCORE  =    1.520    outmost cutoff radius                                   
   RWIGS  =    1.550; RWIGS  =     .820    wigner-seitz radius (au A)           
   ENMAX  =  400.000; ENMIN  =  300.000 eV                                      
   ICORE  =        2    local potential                                         
   LCOR   =        T    correct aug charges                                     
   LPAW   =        T    paw PP                                                  
   EAUG   =  605.392                                                            
   DEXC   =     .000                                                            
   RMAX   =    2.264    core radius for proj-oper                               
   RAUG   =    1.300    factor for augmentation sphere                          
   RDEP   =    1.550    radius for radial grids                                 
   QCUT   =   -5.520; QGAM   =   11.041    optimization parameters              
                                                                                
   Description                                                                  
     l     E      TYP  RCUT    TYP  RCUT                                        
     0   .000     23  1.200                                                     
     0  -.700     23  1.200                                                     
     1   .000     23  1.520                                                     
     1   .600     23  1.520                                                     
     2   .000      7  1.500                                                     
  local pseudopotential read in
  atomic valenz-charges read in
  non local Contribution for L=           0  read in
    real space projection operators read in
  non local Contribution for L=           0  read in
    real space projection operators read in
  non local Contribution for L=           1  read in
    real space projection operators read in
  non local Contribution for L=           1  read in
    real space projection operators read in
    PAW grid and wavefunctions read in
 
   number of l-projection  operators is LMAX  =           4
   number of lm-projection operators is LMMAX =           8
 
 POTCAR:    PAW_PBE Pt 04Feb2005                  
   VRHFIN =Pt: s1d9                                                             
   LEXCH  = PE                                                                  
   EATOM  =   729.1182 eV,   53.5887 Ry                                         
                                                                                
   TITEL  = PAW_PBE Pt 04Feb2005                                                
   LULTRA =        F    use ultrasoft PP ?                                      
   IUNSCR =        1    unscreen: 0-lin 1-nonlin 2-no                           
   RPACOR =    2.330    partial core radius                                     
   POMASS =  195.080; ZVAL   =   10.000    mass and valenz                      
   RCORE  =    2.600    outmost cutoff radius                                   
   RWIGS  =    2.750; RWIGS  =    1.455    wigner-seitz radius (au A)           
   ENMAX  =  230.283; ENMIN  =  172.712 eV                                      
   ICORE  =        3    local potential                                         
   LCOR   =        T    correct aug charges                                     
   LPAW   =        T    paw PP                                                  
   EAUG   =  358.966                                                            
   DEXC   =     .000                                                            
   RMAX   =    3.038    core radius for proj-oper                               
   RAUG   =    1.300    factor for augmentation sphere                          
   RDEP   =    2.761    radius for radial grids                                 
   QCUT   =   -4.114; QGAM   =    8.228    optimization parameters              
                                                                                
   Description                                                                  
     l     E      TYP  RCUT    TYP  RCUT                                        
     2   .000     23  2.500                                                     
     2   .000     23  2.500                                                     
     0   .000     23  2.500                                                     
     0   .000     23  2.500                                                     
     1  -.200     23  2.600                                                     
     1  1.500     23  2.600                                                     
     3   .000     23  2.500                                                     
  local pseudopotential read in
  partial core-charges read in
  atomic valenz-charges read in
  non local Contribution for L=           2  read in
    real space projection operators read in
  non local Contribution for L=           2  read in
    real space projection operators read in
  non local Contribution for L=           0  read in
    real space projection operators read in
  non local Contribution for L=           0  read in
    real space projection operators read in
  non local Contribution for L=           1  read in
    real space projection operators read in
  non local Contribution for L=           1  read in
    real space projection operators read in
    PAW grid and wavefunctions read in
 
   number of l-projection  operators is LMAX  =           6
   number of lm-projection operators is LMMAX =          18
 
 Optimization of the real space projectors (new method)

 maximal supplied QI-value         = 25.13
 optimisation between [QCUT,QGAM] = [ 10.81, 21.61] = [ 32.71,130.83] Ry 
 Optimized for a Real-space Cutoff    1.23 Angstroem

   l    n(q)    QCUT    max X(q) W(low)/X(q) W(high)/X(q)  e(spline) 
   0      8    10.807     5.582    0.53E-04    0.84E-04    0.44E-07
   0      8    10.807    69.432    0.35E-03    0.71E-03    0.24E-06
   1      7    10.807     2.780    0.44E-04    0.88E-04    0.89E-07
   1      7    10.807     4.549    0.14E-03    0.28E-03    0.13E-06
 Optimization of the real space projectors (new method)

 maximal supplied QI-value         = 24.76
 optimisation between [QCUT,QGAM] = [ 10.64, 21.54] = [ 31.73,129.89] Ry 
 Optimized for a Real-space Cutoff    1.23 Angstroem

   l    n(q)    QCUT    max X(q) W(low)/X(q) W(high)/X(q)  e(spline) 
   0      8    10.645     4.192    0.69E-04    0.93E-04    0.58E-07
   0      8    10.645     8.473    0.40E-03    0.65E-03    0.17E-06
   1      7    10.645     2.474    0.80E-04    0.12E-03    0.30E-07
   1      7    10.645     3.912    0.24E-03    0.53E-03    0.16E-06
 Optimization of the real space projectors (new method)

 maximal supplied QI-value         = 14.36
 optimisation between [QCUT,QGAM] = [ 10.77, 21.69] = [ 32.49,131.70] Ry 
 Optimized for a Real-space Cutoff    1.46 Angstroem

   l    n(q)    QCUT    max X(q) W(low)/X(q) W(high)/X(q)  e(spline) 
   2      9    10.771     3.903    0.38E-04    0.12E-03    0.82E-07
   2      9    10.771    18.372    0.13E-03    0.32E-03    0.28E-06
   0     10    10.771    13.697    0.11E-04    0.86E-05    0.85E-08
   0     10    10.771    65.529    0.40E-04    0.12E-03    0.14E-06
   1      9    10.771     7.604    0.48E-04    0.31E-04    0.38E-07
   1      9    10.771    12.136    0.35E-03    0.16E-03    0.23E-06
 PAW_PBE C 08Apr2002                    :
 energy of atom  1       EATOM= -147.1560
 kinetic energy error for atom=    0.0116 (will be added to EATOM!!)
 PAW_PBE O 08Apr2002                    :
 energy of atom  2       EATOM= -432.3788
 kinetic energy error for atom=    0.0389 (will be added to EATOM!!)
  PAW_PBE Pt 04Feb2005                  :
 energy of atom  3       EATOM= -729.1182
 kinetic energy error for atom=    0.0051 (will be added to EATOM!!)
 
 
 POSCAR: C    O    Pt                            
  positions in direct lattice
  No initial velocities read in
 exchange correlation table for  LEXCH =        8
   RHO(1)=    0.500       N(1)  =     2000
   RHO(2)=  100.500       N(2)  =     4000

 VTST: version 3.2, (02/03/18)

 CHAIN: initializing optimizer
 
 OPT: Using VASP QUASI-newton optimizer
 CHAIN: Read ICHAIN            0
 
 POSCAR: C    O    Pt                            
  positions in direct lattice
  No initial velocities read in
 


--------------------------------------------------------------------------------------------------------


 ion  position               nearest neighbor table
   1  0.706  0.432  0.475-   3 1.16  36 1.89   2 1.96
   2  0.910  0.388  0.460-  38 1.83   1 1.96  36 2.48  37 2.62
   3  0.678  0.458  0.525-   1 1.16
   4  0.987  0.329  0.074-  15 2.81  16 2.81  12 2.81   5 2.81  11 2.81   6 2.81  18 2.81   8 2.81
                             7 2.81
   5  0.320  0.329  0.074-  13 2.81  10 2.81   4 2.81  12 2.81  16 2.81  17 2.81   8 2.81   9 2.81
                             6 2.81
   6  0.653  0.329  0.074-  14 2.81  18 2.81  11 2.81   4 2.81  17 2.81   7 2.81  10 2.81   9 2.81
                             5 2.81
   7  0.987  0.662  0.074-  18 2.81  21 2.81  19 2.81  12 2.81   8 2.81  10 2.81   9 2.81   6 2.81
                             4 2.81
   8  0.320  0.662  0.074-  16 2.81  19 2.81  10 2.81   7 2.81  20 2.81   4 2.81  11 2.81   5 2.81
                             9 2.81
   9  0.653  0.662  0.074-  17 2.81  20 2.81  21 2.81  11 2.81  12 2.81   7 2.81   6 2.81   5 2.81
                             8 2.81
  10  0.320  0.995  0.074-  13 2.81  19 2.81   5 2.81   8 2.81  12 2.81   7 2.81  14 2.81   6 2.81
                            11 2.81
  11  0.653  0.995  0.074-  14 2.81  20 2.81  15 2.81   9 2.81   6 2.81  12 2.81   4 2.81   8 2.81
                            10 2.81
  12  0.987  0.995  0.074-  15 2.81  21 2.81  13 2.81   7 2.81   4 2.81  10 2.81   5 2.81  11 2.81
                             9 2.81
  13  0.209  0.106  0.179-  26 2.74  27 2.74   5 2.81  10 2.81  12 2.81  19 2.81  15 2.81  21 2.81
                            16 2.81  14 2.81  17 2.81  25 2.93
  14  0.542  0.106  0.179-  26 2.74  24 2.79   6 2.81  11 2.81  20 2.81  15 2.81  10 2.81  18 2.81
                            19 2.81  17 2.81  13 2.81  23 2.81
  15  0.876  0.106  0.179-  24 2.81  12 2.81   4 2.81  11 2.81  21 2.81  13 2.81  14 2.81  20 2.81
                            16 2.81  18 2.81  28 2.84  25 2.88
  16  0.209  0.440  0.179-   8 2.81   4 2.81  19 2.81  18 2.81   5 2.81  15 2.81  20 2.81  13 2.81
                            17 2.81  22 2.82  29 2.84  25 2.87
  17  0.542  0.440  0.179-  26 2.73   9 2.81  20 2.81  21 2.81  18 2.81   6 2.81   5 2.81  14 2.81
                            13 2.81  16 2.81  30 2.81  29 2.83
  18  0.876  0.440  0.179-  24 2.80   7 2.81   6 2.81  21 2.81  16 2.81  19 2.81  17 2.81   4 2.81
                            14 2.81  15 2.81  30 2.81  22 2.82
  19  0.209  0.773  0.179-  27 2.71  23 2.78   8 2.81  10 2.81   7 2.81  16 2.81  13 2.81  18 2.81
                            21 2.81  14 2.81  20 2.81  22 2.83
  20  0.542  0.773  0.179-  23 2.79  11 2.81   9 2.81  17 2.81  14 2.81  21 2.81  15 2.81   8 2.81
                            16 2.81  19 2.81  29 2.83  28 2.84
  21  0.876  0.773  0.179-  27 2.70  12 2.81   7 2.81   9 2.81  18 2.81  15 2.81  19 2.81  13 2.81
                            17 2.81  20 2.81  30 2.85  28 2.86
  22  0.097  0.549  0.285-  25 2.74  23 2.79  27 2.79  31 2.79  37 2.81  30 2.81  24 2.81  16 2.82
                            29 2.82  18 2.82  19 2.83  38 2.87
  23  0.428  0.880  0.283-  35 2.74  31 2.77  19 2.78  22 2.79  29 2.79  20 2.79  27 2.80  28 2.80
                            32 2.81  14 2.81  24 2.83  26 2.84
  24  0.762  0.217  0.283-  30 2.77  25 2.77  14 2.79  32 2.79  26 2.79  28 2.80  18 2.80  15 2.81
                            22 2.81  23 2.83  38 2.91  36 2.99
  25  0.094  0.223  0.289-  33 2.68  38 2.70  34 2.71  22 2.74  24 2.77  28 2.82  29 2.82  26 2.87
                            16 2.87  15 2.88  27 2.91  13 2.93
  26  0.431  0.219  0.280-  17 2.73  13 2.74  14 2.74  30 2.77  33 2.78  24 2.79  29 2.80  35 2.82
                            23 2.84  27 2.86  25 2.87  36 2.98
  27  0.094  0.878  0.279-  21 2.70  19 2.71  13 2.74  22 2.79  23 2.80  30 2.81  28 2.83  34 2.84
                            35 2.85  26 2.86  37 2.86  25 2.91
  28  0.762  0.885  0.286-  32 2.72  34 2.77  29 2.79  24 2.80  23 2.80  25 2.82  27 2.83  20 2.84
                            15 2.84  39 2.85  30 2.86  21 2.86
  29  0.434  0.552  0.285-  31 2.73  33 2.76  28 2.79  23 2.79  30 2.79  26 2.80  22 2.82  25 2.82
                            20 2.83  17 2.83  16 2.84  39 2.85
  30  0.762  0.546  0.285-  24 2.77  26 2.77  29 2.79  27 2.81  22 2.81  18 2.81  17 2.81  21 2.85
                            28 2.86  37 2.87  39 2.87  36 2.96
  31  0.327  0.663  0.387-  29 2.73  23 2.77  39 2.77  32 2.77  22 2.79  35 2.81  37 2.81  38 2.85
                            33 2.86
  32  0.654  0.994  0.387-  28 2.72  31 2.77  24 2.79  35 2.80  39 2.81  23 2.81  38 2.82  36 2.83
                            34 2.86
  33  0.320  0.321  0.385-  25 2.68  36 2.70  34 2.76  35 2.76  29 2.76  26 2.78  38 2.79  39 2.84
                            31 2.86
  34  0.993  0.994  0.387-  25 2.71  37 2.74  33 2.76  28 2.77  35 2.77  38 2.79  39 2.84  27 2.84
                            32 2.86
  35  0.322  0.994  0.385-  37 2.73  36 2.73  23 2.74  33 2.76  34 2.77  32 2.80  31 2.81  26 2.82
                            27 2.85
  36  0.640  0.321  0.397-   1 1.89   2 2.48  33 2.70  35 2.73  39 2.81  32 2.83  30 2.96  38 2.96
                            26 2.98  37 2.99  24 2.99
  37  0.998  0.672  0.390-   2 2.62  35 2.73  34 2.74  22 2.81  31 2.81  39 2.85  27 2.86  30 2.87
                            38 2.91  36 2.99
  38  0.992  0.324  0.392-   2 1.83  25 2.70  34 2.79  33 2.79  32 2.82  31 2.85  22 2.87  37 2.91
                            24 2.91  36 2.96
  39  0.654  0.661  0.393-  31 2.77  36 2.81  32 2.81  34 2.84  33 2.84  28 2.85  29 2.85  37 2.85
                            30 2.87
 

IMPORTANT INFORMATION: All symmetrisations will be switched off!
NOSYMM: (Re-)initialisation of all symmetry stuff for point group C_1.

 
 
 KPOINTS: mesh auto                               

Automatic generation of k-mesh.
Space group operators:
 irot       det(A)        alpha          n_x          n_y          n_z        tau_x        tau_y        tau_z
    1     1.000000     0.000000     1.000000     0.000000     0.000000     0.000000     0.000000     0.000000
 
 Subroutine IBZKPT returns following result:
 ===========================================
 
 Found      4 irreducible k-points:
 
 Following reciprocal coordinates:
            Coordinates               Weight
  0.000000  0.000000  0.000000      1.000000
  0.500000  0.000000  0.000000      1.000000
 -0.000000  0.500000  0.000000      1.000000
  0.500000  0.500000  0.000000      1.000000
 
 Following cartesian coordinates:
            Coordinates               Weight
  0.000000  0.000000  0.000000      1.000000
  0.068522  0.000000  0.000000      1.000000
  0.034261  0.059342  0.000000      1.000000
  0.102783  0.059342  0.000000      1.000000
 


--------------------------------------------------------------------------------------------------------




 Dimension of arrays:
   k-points           NKPTS =      4   k-points in BZ     NKDIM =      4   number of bands    NBANDS=    228
   number of dos      NEDOS =    301   number of ions     NIONS =     39
   non local maximal  LDIM  =      6   non local SUM 2l+1 LMDIM =     18
   total plane-waves  NPLWV = 276480
   max r-space proj   IRMAX =   2756   max aug-charges    IRDMAX=  12646
   dimension x,y,z NGX =    48 NGY =   48 NGZ =  120
   dimension x,y,z NGXF=    96 NGYF=   96 NGZF=  240
   support grid    NGXF=    96 NGYF=   96 NGZF=  240
   ions per type =               1   2  36
   NGX,Y,Z   is equivalent  to a cutoff of   9.47,  9.47,  9.12 a.u.
   NGXF,Y,Z  is equivalent  to a cutoff of  18.94, 18.94, 18.24 a.u.

 SYSTEM =  metal                                   
 POSCAR =  C    O    Pt                            

 Startparameter for this run:
   NWRITE =      2    write-flag & timer
   PREC   = normal    normal or accurate (medium, high low for compatibility)
   ISTART =      0    job   : 0-new  1-cont  2-samecut
   ICHARG =      2    charge: 1-file 2-atom 10-const
   ISPIN  =      1    spin polarized calculation?
   LNONCOLLINEAR =      F non collinear calculations
   LSORBIT =      F    spin-orbit coupling
   INIWAV =      1    electr: 0-lowe 1-rand  2-diag
   LASPH  =      F    aspherical Exc in radial PAW
   METAGGA=      F    non-selfconsistent MetaGGA calc.

 Electronic Relaxation 1
   ENCUT  =  450.0 eV  33.07 Ry    5.75 a.u.  14.57 14.57 37.84*2*pi/ulx,y,z
   ENINI  =  450.0     initial cutoff
   ENAUG  =  644.9 eV  augmentation charge cutoff
   NELM   =     60;   NELMIN=  8; NELMDL= -5     # of ELM steps 
   EDIFF  = 0.1E-03   stopping-criterion for ELM
   LREAL  =      T    real-space projection
   NLSPLINE    = F    spline interpolate recip. space projectors
   LCOMPAT=      F    compatible to vasp.4.4
   GGA_COMPAT  = T    GGA compatible to vasp.4.4-vasp.4.6
   LMAXPAW     = -100 max onsite density
   LMAXMIX     =    2 max onsite mixed and CHGCAR
   VOSKOWN=      0    Vosko Wilk Nusair interpolation
   ROPT   =   -0.00050  -0.00050  -0.00050
 Ionic relaxation
   EDIFFG = -.5E-01   stopping-criterion for IOM
   NSW    =   5000    number of steps for IOM
   NBLOCK =      1;   KBLOCK =   5000    inner block; outer block 
   IBRION =      1    ionic relax: 0-MD 1-quasi-New 2-CG
   NFREE  =      0    steps in history (QN), initial steepest desc. (CG)
   ISIF   =      2    stress and relaxation
   IWAVPR =     11    prediction:  0-non 1-charg 2-wave 3-comb
   ISYM   =      0    0-nonsym 1-usesym 2-fastsym
   LCORR  =      T    Harris-Foulkes like correction to forces

   POTIM  = 0.2000    time-step for ionic-motion
   TEIN   =    0.0    initial temperature
   TEBEG  =    0.0;   TEEND  =   0.0 temperature during run
   SMASS  =  -3.00    Nose mass-parameter (am)
   estimated Nose-frequenzy (Omega)   =  0.10E-29 period in steps =****** mass=  -0.162E-26a.u.
   SCALEE = 1.0000    scale energy and forces
   NPACO  =    256;   APACO  = 16.0  distance and # of slots for P.C.
   PSTRESS=    0.0 pullay stress

  Mass of Ions in am
   POMASS =  12.01 16.00195.08
  Ionic Valenz
   ZVAL   =   4.00  6.00 10.00
  Atomic Wigner-Seitz radii
   RWIGS  =  -1.00 -1.00 -1.00
  virtual crystal weights 
   VCA    =   1.00  1.00  1.00
   NELECT =     376.0000    total number of electrons
   NUPDOWN=      -1.0000    fix difference up-down

 DOS related values:
   EMIN   =  10.00;   EMAX   =-10.00  energy-range for DOS
   EFERMI =   0.00
   ISMEAR =     1;   SIGMA  =   0.20  broadening in eV -4-tet -1-fermi 0-gaus

 Electronic relaxation 2 (details)
   IALGO  =     68    algorithm
   LDIAG  =      T    sub-space diagonalisation (order eigenvalues)
   LSUBROT=      F    optimize rotation matrix (better conditioning)
   TURBO    =      0    0=normal 1=particle mesh
   IRESTART =      0    0=no restart 2=restart with 2 vectors
   NREBOOT  =      0    no. of reboots
   NMIN     =      0    reboot dimension
   EREF     =   0.00    reference energy to select bands
   IMIX   =      4    mixing-type and parameters
     AMIX     =   0.40;   BMIX     =  1.00
     AMIX_MAG =   1.60;   BMIX_MAG =  1.00
     AMIN     =   0.10
     WC   =   100.;   INIMIX=   1;  MIXPRE=   1;  MAXMIX= -45

 Intra band minimization:
   WEIMIN = 0.0010     energy-eigenvalue tresh-hold
   EBREAK =  0.11E-06  absolut break condition
   DEPER  =   0.30     relativ break condition  

   TIME   =   0.40     timestep for ELM

  volume/ion in A,a.u.               =      34.49       232.77
  Fermi-wavevector in a.u.,A,eV,Ry     =   1.070385  2.022734 15.588510  1.145723
  Thomas-Fermi vector in A             =   2.206093
 
 Write flags
   LWAVE        =      F    write WAVECAR
   LDOWNSAMPLE  =      F    k-point downsampling of WAVECAR
   LCHARG       =      F    write CHGCAR
   LVTOT        =      F    write LOCPOT, total local potential
   LVHAR        =      F    write LOCPOT, Hartree potential only
   LELF         =      F    write electronic localiz. function (ELF)
   LORBIT       =      0    0 simple, 1 ext, 2 COOP (PROOUT), +10 PAW based schemes


 Dipole corrections
   LMONO  =      F    monopole corrections only (constant potential shift)
   LDIPOL =      F    correct potential (dipole corrections)
   IDIPOL =      0    1-x, 2-y, 3-z, 4-all directions 
   EPSILON=  1.0000000 bulk dielectric constant

 Exchange correlation treatment:
   GGA     =    --    GGA type
   LEXCH   =     8    internal setting for exchange type
   VOSKOWN=      0    Vosko Wilk Nusair interpolation
   LHFCALC =     F    Hartree Fock is set to
   LHFONE  =     F    Hartree Fock one center treatment
   AEXX    =    0.0000 exact exchange contribution

 Linear response parameters
   LEPSILON=     F    determine dielectric tensor
   LRPA    =     F    only Hartree local field effects (RPA)
   LNABLA  =     F    use nabla operator in PAW spheres
   LVEL    =     F    velocity operator in full k-point grid
   LINTERFAST=   F  fast interpolation
   KINTER  =     0    interpolate to denser k-point grid
   CSHIFT  =0.1000    complex shift for real part using Kramers Kronig
   OMEGAMAX=  -1.0    maximum frequency
   DEG_THRESHOLD= 0.2000000E-02 threshold for treating states as degnerate
   RTIME   =   -0.100 relaxation time in fs
  (WPLASMAI=    0.000 imaginary part of plasma frequency in eV, 0.658/RTIME)
   DFIELD  = 0.0000000 0.0000000 0.0000000 field for delta impulse in time
 
 Orbital magnetization related:
   ORBITALMAG=     F  switch on orbital magnetization
   LCHIMAG   =     F  perturbation theory with respect to B field
   DQ        =  0.001000  dq finite difference perturbation B field
   LLRAUG    =     F  two centre corrections for induced B field



--------------------------------------------------------------------------------------------------------


 quasi-Newton-method for relaxation of ions
   using selective dynamics as specified on POSCAR
 charge density and potential will be updated during run
 non-spin polarized calculation
 RMM-DIIS sequential band-by-band and
  variant of blocked Davidson during initial phase
 perform sub-space diagonalisation
    before iterative eigenvector-optimisation
 modified Broyden-mixing scheme, WC =      100.0
 initial mixing is a Kerker type mixing with AMIX =  0.4000 and BMIX =      1.0000
 Hartree-type preconditioning will be used
 using additional bands           40
 real space projection scheme for non local part
 use partial core corrections
 calculate Harris-corrections to forces 
   (improved forces if not selfconsistent)
 use gradient corrections 
 use of overlap-Matrix (Vanderbilt PP)
 Methfessel and Paxton  Order N= 1 SIGMA  =   0.20


--------------------------------------------------------------------------------------------------------


  energy-cutoff  :      450.00
  volume of cell :     1345.22
      direct lattice vectors                 reciprocal lattice vectors
     7.296955120 -4.212899000  0.000000000     0.137043463  0.000000000  0.000000000
     0.000000000  8.425798000  0.000000000     0.068521732  0.118683121  0.000000000
     0.000000000  0.000000000 21.879635000     0.000000000  0.000000000  0.045704602

  length of vectors
     8.425798004  8.425798000 21.879635000     0.137043463  0.137043463  0.045704602


 
 k-points in units of 2pi/SCALE and weight: mesh auto                               
   0.00000000  0.00000000  0.00000000       0.250
   0.06852173  0.00000000  0.00000000       0.250
   0.03426087  0.05934156  0.00000000       0.250
   0.10278260  0.05934156  0.00000000       0.250
 
 k-points in reciprocal lattice and weights: mesh auto                               
   0.00000000  0.00000000  0.00000000       0.250
   0.50000000  0.00000000  0.00000000       0.250
  -0.00000000  0.50000000  0.00000000       0.250
   0.50000000  0.50000000  0.00000000       0.250
 
 position of ions in fractional coordinates (direct lattice) 
   0.70576703  0.43155253  0.47515579
   0.91007350  0.38797616  0.46036502
   0.67763048  0.45840842  0.52504432
   0.98675500  0.32859100  0.07437600
   0.32008800  0.32859100  0.07437600
   0.65342200  0.32859100  0.07437600
   0.98675500  0.66192500  0.07437600
   0.32008800  0.66192500  0.07437600
   0.65342200  0.66192500  0.07437600
   0.32008800  0.99525800  0.07437600
   0.65342200  0.99525800  0.07437600
   0.98675500  0.99525800  0.07437600
   0.20897700  0.10636900  0.17918600
   0.54231100  0.10636900  0.17918600
   0.87564400  0.10636900  0.17918600
   0.20897700  0.43970300  0.17918600
   0.54231100  0.43970300  0.17918600
   0.87564400  0.43970300  0.17918600
   0.20897700  0.77303600  0.17918600
   0.54231100  0.77303600  0.17918600
   0.87564400  0.77303600  0.17918600
   0.09731206  0.54917672  0.28499076
   0.42758521  0.88048376  0.28321886
   0.76190846  0.21694161  0.28343006
   0.09363804  0.22269867  0.28881764
   0.43146696  0.21921486  0.27997245
   0.09446127  0.87836661  0.27886728
   0.76244697  0.88514584  0.28620973
   0.43382693  0.55229660  0.28532235
   0.76198514  0.54555750  0.28482004
   0.32719033  0.66342568  0.38684186
   0.65381429  0.99374587  0.38702060
   0.32048701  0.32100867  0.38522420
   0.99319971  0.99420150  0.38655718
   0.32178618  0.99408994  0.38499569
   0.63966628  0.32121604  0.39725587
   0.99750580  0.67172740  0.38970544
   0.99163137  0.32367965  0.39216252
   0.65409780  0.66110706  0.39283366
 
 position of ions in cartesian coordinates  (Angst):
   5.14995034  0.66284925 10.39623518
   6.64076548 -0.56503901 10.07261863
   4.94463923  1.00766792 11.48777805
   7.20030695 -1.38845776  1.62731973
   2.33566777  1.42014298  1.62731973
   4.76799101  0.01584050  1.62731973
   7.20030695  1.42014719  1.62731973
   2.33566777  4.22874793  1.62731973
   4.76799101  2.82444545  1.62731973
   2.33566777  7.03734445  1.62731973
   4.76799101  5.63304198  1.62731973
   7.20030695  4.22874371  1.62731973
   1.52489579  0.01584471  3.92052428
   3.95721903 -1.38845776  3.92052428
   6.38953497 -2.79275602  3.92052428
   1.52489579  2.82444966  3.92052428
   3.95721903  1.42014719  3.92052428
   6.38953497  0.01584893  3.92052428
   1.52489579  5.63304619  3.92052428
   3.95721903  4.22874371  3.92052428
   6.38953497  2.82444545  3.92052428
   0.71008176  4.21728619  6.23549375
   3.12007011  5.61740496  6.19672524
   5.55961182 -1.38193721  6.20134627
   0.68327258  1.48192641  6.31922460
   3.14839502  0.02933341  6.12569509
   0.68927968  7.00298381  6.10151434
   5.56354133  4.24594800  6.26216435
   3.16561561  2.82587058  6.24274883
   5.56017138  1.38659085  6.23175842
   2.38749318  4.21147096  8.46395859
   4.77085356  5.61864836  8.46786944
   2.33857932  1.35457478  8.42856498
   7.24733373  4.19269098  8.45772991
   2.34805929  7.02034835  8.42356527
   4.66761617  0.01165203  8.69181338
   7.27875507  1.45744816  8.52661278
   7.23588961 -1.45038343  8.58037273
   4.77292231  2.81470654  8.59505713
 


--------------------------------------------------------------------------------------------------------


 k-point  1 :   0.0000 0.0000 0.0000  plane waves:   29241
 k-point  2 :   0.5000 0.0000 0.0000  plane waves:   29108
 k-point  3 :  -0.0000 0.5000 0.0000  plane waves:   29108
 k-point  4 :   0.5000 0.5000 0.0000  plane waves:   29108

 maximum and minimum number of plane-waves per node :     14624    14548

 maximum number of plane-waves:     29241
 maximum index in each direction: 
   IXMAX=   14   IYMAX=   14   IZMAX=   37
   IXMIN=  -15   IYMIN=  -15   IZMIN=  -37


 real space projection operators:
  total allocation   :      13567.45 KBytes
  max/ min on nodes  :       6788.52       6778.94


 parallel 3D FFT for wavefunctions:
    minimum data exchange during FFTs selected (reduces bandwidth)
 parallel 3D FFT for charge:
    minimum data exchange during FFTs selected (reduces bandwidth)


 total amount of memory used by VASP MPI-rank0   131961. kBytes
=======================================================================

   base      :      30000. kBytes
   nonlr-proj:      10153. kBytes
   fftplans  :      13556. kBytes
   grid      :      23353. kBytes
   one-center:        311. kBytes
   wavefun   :      54588. kBytes
 
     INWAV:  cpu time    0.0000: real time    0.0000
 Broyden mixing: mesh for mixing (old mesh)
   NGX = 29   NGY = 29   NGZ = 75
  (NGX  = 96   NGY  = 96   NGZ  =240)
  gives a total of  63075 points

 initial charge density was supplied:
 charge density of overlapping atoms calculated
 number of electron     376.0000000 magnetization 
 keeping initial charge density in first step


--------------------------------------------------------------------------------------------------------


 Maximum index for non-local projection operator         1319
 Maximum index for augmentation-charges         1558 (set IRDMAX)


--------------------------------------------------------------------------------------------------------


 First call to EWALD:  gamma=   0.161
 Maximum number of real-space cells 4x 4x 2
 Maximum number of reciprocal cells 2x 2x 5

    FEWALD:  cpu time    0.0026: real time    0.0026


--------------------------------------- Iteration      1(   1)  ---------------------------------------


    POTLOK:  cpu time    0.1872: real time    0.3328
    SETDIJ:  cpu time    0.0114: real time    0.0117
     EDDAV:  cpu time   12.1912: real time   12.4028
       DOS:  cpu time    0.0011: real time    0.0011
    --------------------------------------------
      LOOP:  cpu time   12.3908: real time   12.7483

 eigenvalue-minimisations  :  1824
 total energy-change (2. order) : 0.2424494E+04  (-0.1595405E+05)
 number of electron     376.0000000 magnetization 
 augmentation part      376.0000000 magnetization 

 Free energy of the ion-electron system (eV)
  ---------------------------------------------------
  alpha Z        PSCENC =       975.10247152
  Ewald energy   TEWEN  =     91215.54377644
  -Hartree energ DENC   =   -120301.42309446
  -exchange      EXHF   =         0.00000000
  -V(xc)+E(xc)   XCENC  =       189.96943694
  PAW double counting   =     24789.08602224   -23775.73976456
  entropy T*S    EENTRO =         0.00617767
  eigenvalues    EBANDS =      2072.05466825
  atomic energy  EATOM  =     27259.89416086
  Solvation  Ediel_sol  =         0.00000000
  ---------------------------------------------------
  free energy    TOTEN  =      2424.49385490 eV

  energy without entropy =     2424.48767722  energy(sigma->0) =     2424.49179567


--------------------------------------------------------------------------------------------------------




--------------------------------------- Iteration      1(   2)  ---------------------------------------


     EDDAV:  cpu time   13.7052: real time   13.8706
       DOS:  cpu time    0.0012: real time    0.0014
    --------------------------------------------
      LOOP:  cpu time   13.7064: real time   13.8720

 eigenvalue-minimisations  :  2112
 total energy-change (2. order) :-0.2486735E+04  (-0.2307656E+04)
 number of electron     376.0000000 magnetization 
 augmentation part      376.0000000 magnetization 

 Free energy of the ion-electron system (eV)
  ---------------------------------------------------
  alpha Z        PSCENC =       975.10247152
  Ewald energy   TEWEN  =     91215.54377644
  -Hartree energ DENC   =   -120301.42309446
  -exchange      EXHF   =         0.00000000
  -V(xc)+E(xc)   XCENC  =       189.96943694
  PAW double counting   =     24789.08602224   -23775.73976456
  entropy T*S    EENTRO =         0.01006080
  eigenvalues    EBANDS =      -414.68464990
  atomic energy  EATOM  =     27259.89416086
  Solvation  Ediel_sol  =         0.00000000
  ---------------------------------------------------
  free energy    TOTEN  =       -62.24158013 eV

  energy without entropy =      -62.25164093  energy(sigma->0) =      -62.24493373


--------------------------------------------------------------------------------------------------------




--------------------------------------- Iteration      1(   3)  ---------------------------------------


     EDDAV:  cpu time   14.2009: real time   14.3628
       DOS:  cpu time    0.0012: real time    0.0012
    --------------------------------------------
      LOOP:  cpu time   14.2021: real time   14.3640

 eigenvalue-minimisations  :  2200
 total energy-change (2. order) :-0.1781489E+03  (-0.1618864E+03)
 number of electron     376.0000000 magnetization 
 augmentation part      376.0000000 magnetization 

 Free energy of the ion-electron system (eV)
  ---------------------------------------------------
  alpha Z        PSCENC =       975.10247152
  Ewald energy   TEWEN  =     91215.54377644
  -Hartree energ DENC   =   -120301.42309446
  -exchange      EXHF   =         0.00000000
  -V(xc)+E(xc)   XCENC  =       189.96943694
  PAW double counting   =     24789.08602224   -23775.73976456
  entropy T*S    EENTRO =         0.00542457
  eigenvalues    EBANDS =      -592.82888099
  atomic energy  EATOM  =     27259.89416086
  Solvation  Ediel_sol  =         0.00000000
  ---------------------------------------------------
  free energy    TOTEN  =      -240.39044745 eV

  energy without entropy =     -240.39587202  energy(sigma->0) =     -240.39225564


--------------------------------------------------------------------------------------------------------




--------------------------------------- Iteration      1(   4)  ---------------------------------------


     EDDAV:  cpu time   14.7661: real time   14.9332
       DOS:  cpu time    0.0012: real time    0.0012
    --------------------------------------------
      LOOP:  cpu time   14.7673: real time   14.9345

 eigenvalue-minimisations  :  2344
 total energy-change (2. order) :-0.7579708E+01  (-0.7302783E+01)
 number of electron     376.0000000 magnetization 
 augmentation part      376.0000000 magnetization 

 Free energy of the ion-electron system (eV)
  ---------------------------------------------------
  alpha Z        PSCENC =       975.10247152
  Ewald energy   TEWEN  =     91215.54377644
  -Hartree energ DENC   =   -120301.42309446
  -exchange      EXHF   =         0.00000000
  -V(xc)+E(xc)   XCENC  =       189.96943694
  PAW double counting   =     24789.08602224   -23775.73976456
  entropy T*S    EENTRO =         0.01221181
  eigenvalues    EBANDS =      -600.41537653
  atomic energy  EATOM  =     27259.89416086
  Solvation  Ediel_sol  =         0.00000000
  ---------------------------------------------------
  free energy    TOTEN  =      -247.97015574 eV

  energy without entropy =     -247.98236755  energy(sigma->0) =     -247.97422635


--------------------------------------------------------------------------------------------------------




--------------------------------------- Iteration      1(   5)  ---------------------------------------


     EDDAV:  cpu time   15.4766: real time   15.5976
       DOS:  cpu time    0.0012: real time    0.0012
    CHARGE:  cpu time    0.8410: real time    0.8474
    MIXING:  cpu time    0.0090: real time    0.0091
    --------------------------------------------
      LOOP:  cpu time   16.3278: real time   16.4552

 eigenvalue-minimisations  :  2440
 total energy-change (2. order) :-0.2168408E+00  (-0.2146581E+00)
 number of electron     376.0000058 magnetization 
 augmentation part      105.8684152 magnetization 

 Broyden mixing:
  rms(total) = 0.27287E+01    rms(broyden)= 0.27283E+01
  rms(prec ) = 0.30303E+01
  weight for this iteration     100.00

 Free energy of the ion-electron system (eV)
  ---------------------------------------------------
  alpha Z        PSCENC =       975.10247152
  Ewald energy   TEWEN  =     91215.54377644
  -Hartree energ DENC   =   -120301.42309446
  -exchange      EXHF   =         0.00000000
  -V(xc)+E(xc)   XCENC  =       189.96943694
  PAW double counting   =     24789.08602224   -23775.73976456
  entropy T*S    EENTRO =         0.01205560
  eigenvalues    EBANDS =      -600.63206112
  atomic energy  EATOM  =     27259.89416086
  Solvation  Ediel_sol  =         0.00000000
  ---------------------------------------------------
  free energy    TOTEN  =      -248.18699654 eV

  energy without entropy =     -248.19905214  energy(sigma->0) =     -248.19101507


--------------------------------------------------------------------------------------------------------




--------------------------------------- Iteration      1(   6)  ---------------------------------------


    POTLOK:  cpu time    0.1807: real time    0.1821
    SETDIJ:  cpu time    0.0123: real time    0.0124
    EDDIAG:  cpu time    2.0214: real time    2.0358
  RMM-DIIS:  cpu time    7.1954: real time    7.2539
    ORTHCH:  cpu time    0.2723: real time    0.2742
       DOS:  cpu time    0.0012: real time    0.0013
    CHARGE:  cpu time    0.8452: real time    0.8520
    MIXING:  cpu time    0.0065: real time    0.0066
    --------------------------------------------
      LOOP:  cpu time   10.5351: real time   10.6182

 eigenvalue-minimisations  :  1829
 total energy-change (2. order) : 0.3743339E+01  (-0.5588539E+01)
 number of electron     376.0000048 magnetization 
 augmentation part      112.7649934 magnetization 

 Broyden mixing:
  rms(total) = 0.27842E+01    rms(broyden)= 0.27833E+01
  rms(prec ) = 0.38390E+01
  weight for this iteration     100.00

 eigenvalues of (default mixing * dielectric matrix)
  average eigenvalue GAMMA=   0.5126
  0.5126

 Free energy of the ion-electron system (eV)
  ---------------------------------------------------
  alpha Z        PSCENC =       975.10247152
  Ewald energy   TEWEN  =     91215.54377644
  -Hartree energ DENC   =   -119850.66823593
  -exchange      EXHF   =         0.00000000
  -V(xc)+E(xc)   XCENC  =       182.84172518
  PAW double counting   =     26753.57734719   -25793.91404407
  entropy T*S    EENTRO =        -0.14095041
  eigenvalues    EBANDS =      -986.67990875
  atomic energy  EATOM  =     27259.89416086
  Solvation  Ediel_sol  =         0.00000000
  ---------------------------------------------------
  free energy    TOTEN  =      -244.44365797 eV

  energy without entropy =     -244.30270756  energy(sigma->0) =     -244.39667450


--------------------------------------------------------------------------------------------------------




--------------------------------------- Iteration      1(   7)  ---------------------------------------


    POTLOK:  cpu time    0.1703: real time    0.1716
    SETDIJ:  cpu time    0.0121: real time    0.0122
    EDDIAG:  cpu time    1.9961: real time    2.0100
  RMM-DIIS:  cpu time    6.2310: real time    6.2805
    ORTHCH:  cpu time    0.2875: real time    0.2899
       DOS:  cpu time    0.0013: real time    0.0013
    CHARGE:  cpu time    0.7199: real time    0.7262
    MIXING:  cpu time    0.0054: real time    0.0055
    --------------------------------------------
      LOOP:  cpu time    9.4238: real time    9.4971

 eigenvalue-minimisations  :  1831
 total energy-change (2. order) :-0.2074999E+01  (-0.3122674E+01)
 number of electron     376.0000066 magnetization 
 augmentation part      111.4080456 magnetization 

 Broyden mixing:
  rms(total) = 0.22185E+01    rms(broyden)= 0.22179E+01
  rms(prec ) = 0.39102E+01
  weight for this iteration     100.00

 eigenvalues of (default mixing * dielectric matrix)
  average eigenvalue GAMMA=   0.5525
  0.8669  0.2380

 Free energy of the ion-electron system (eV)
  ---------------------------------------------------
  alpha Z        PSCENC =       975.10247152
  Ewald energy   TEWEN  =     91215.54377644
  -Hartree energ DENC   =   -120034.37120295
  -exchange      EXHF   =         0.00000000
  -V(xc)+E(xc)   XCENC  =       180.66163544
  PAW double counting   =     27398.24761507   -26446.14203540
  entropy T*S    EENTRO =        -0.12117498
  eigenvalues    EBANDS =      -795.33390268
  atomic energy  EATOM  =     27259.89416086
  Solvation  Ediel_sol  =         0.00000000
  ---------------------------------------------------
  free energy    TOTEN  =      -246.51865667 eV

  energy without entropy =     -246.39748169  energy(sigma->0) =     -246.47826501


--------------------------------------------------------------------------------------------------------




--------------------------------------- Iteration      1(   8)  ---------------------------------------


    POTLOK:  cpu time    0.1692: real time    0.1713
    SETDIJ:  cpu time    0.0129: real time    0.0130
    EDDIAG:  cpu time    1.9540: real time    1.9683
  RMM-DIIS:  cpu time    6.7892: real time    6.8453
    ORTHCH:  cpu time    0.2685: real time    0.2707
       DOS:  cpu time    0.0012: real time    0.0012
    CHARGE:  cpu time    0.7270: real time    0.7325
    MIXING:  cpu time    0.0068: real time    0.0068
    --------------------------------------------
      LOOP:  cpu time    9.9287: real time   10.0090

 eigenvalue-minimisations  :  1827
 total energy-change (2. order) : 0.3430129E+01  (-0.1028338E+01)
 number of electron     376.0000065 magnetization 
 augmentation part      111.9257976 magnetization 

 Broyden mixing:
  rms(total) = 0.22579E+01    rms(broyden)= 0.22578E+01
  rms(prec ) = 0.37314E+01
  weight for this iteration     100.00

 eigenvalues of (default mixing * dielectric matrix)
  average eigenvalue GAMMA=   0.5171
  1.1291  0.2722  0.1499

 Free energy of the ion-electron system (eV)
  ---------------------------------------------------
  alpha Z        PSCENC =       975.10247152
  Ewald energy   TEWEN  =     91215.54377644
  -Hartree energ DENC   =   -120005.98404795
  -exchange      EXHF   =         0.00000000
  -V(xc)+E(xc)   XCENC  =       179.61455494
  PAW double counting   =     27972.44863224   -27029.32073018
  entropy T*S    EENTRO =        -0.03807597
  eigenvalues    EBANDS =      -810.34926938
  atomic energy  EATOM  =     27259.89416086
  Solvation  Ediel_sol  =         0.00000000
  ---------------------------------------------------
  free energy    TOTEN  =      -243.08852747 eV

  energy without entropy =     -243.05045150  energy(sigma->0) =     -243.07583548


--------------------------------------------------------------------------------------------------------




--------------------------------------- Iteration      1(   9)  ---------------------------------------


    POTLOK:  cpu time    0.1614: real time    0.1626
    SETDIJ:  cpu time    0.0110: real time    0.0113
    EDDIAG:  cpu time    1.8873: real time    1.9013
  RMM-DIIS:  cpu time    6.7268: real time    6.7822
    ORTHCH:  cpu time    0.2717: real time    0.2740
       DOS:  cpu time    0.0013: real time    0.0013
    CHARGE:  cpu time    0.7037: real time    0.7102
    MIXING:  cpu time    0.0075: real time    0.0076
    --------------------------------------------
      LOOP:  cpu time    9.7708: real time    9.8505

 eigenvalue-minimisations  :  1831
 total energy-change (2. order) : 0.1133440E+02  (-0.6143004E+00)
 number of electron     376.0000059 magnetization 
 augmentation part      112.6950447 magnetization 

 Broyden mixing:
  rms(total) = 0.86046E+00    rms(broyden)= 0.86014E+00
  rms(prec ) = 0.11511E+01
  weight for this iteration     100.00

 eigenvalues of (default mixing * dielectric matrix)
  average eigenvalue GAMMA=   0.5265
  1.2849  0.3411  0.3411  0.1390

 Free energy of the ion-electron system (eV)
  ---------------------------------------------------
  alpha Z        PSCENC =       975.10247152
  Ewald energy   TEWEN  =     91215.54377644
  -Hartree energ DENC   =   -119931.90651952
  -exchange      EXHF   =         0.00000000
  -V(xc)+E(xc)   XCENC  =       178.95961722
  PAW double counting   =     28664.40613052   -27731.99035473
  entropy T*S    EENTRO =        -0.07928929
  eigenvalues    EBANDS =      -861.68412446
  atomic energy  EATOM  =     27259.89416086
  Solvation  Ediel_sol  =         0.00000000
  ---------------------------------------------------
  free energy    TOTEN  =      -231.75413144 eV

  energy without entropy =     -231.67484215  energy(sigma->0) =     -231.72770168


--------------------------------------------------------------------------------------------------------




--------------------------------------- Iteration      1(  10)  ---------------------------------------


    POTLOK:  cpu time    0.1711: real time    0.1725
    SETDIJ:  cpu time    0.0129: real time    0.0130
    EDDIAG:  cpu time    1.8406: real time    1.8558
  RMM-DIIS:  cpu time    6.6998: real time    6.7550
    ORTHCH:  cpu time    0.2594: real time    0.2614
       DOS:  cpu time    0.0012: real time    0.0012
    CHARGE:  cpu time    0.7216: real time    0.7271
    MIXING:  cpu time    0.0084: real time    0.0085
    --------------------------------------------
      LOOP:  cpu time    9.7149: real time    9.7944

 eigenvalue-minimisations  :  1831
 total energy-change (2. order) : 0.1098784E+01  (-0.1900842E+00)
 number of electron     376.0000059 magnetization 
 augmentation part      112.8000683 magnetization 

 Broyden mixing:
  rms(total) = 0.53357E+00    rms(broyden)= 0.53351E+00
  rms(prec ) = 0.66204E+00
  weight for this iteration     100.00

 eigenvalues of (default mixing * dielectric matrix)
  average eigenvalue GAMMA=   0.5398
  1.3932  0.4566  0.4566  0.1408  0.2518

 Free energy of the ion-electron system (eV)
  ---------------------------------------------------
  alpha Z        PSCENC =       975.10247152
  Ewald energy   TEWEN  =     91215.54377644
  -Hartree energ DENC   =   -119922.58086359
  -exchange      EXHF   =         0.00000000
  -V(xc)+E(xc)   XCENC  =       178.79565294
  PAW double counting   =     29065.68113715   -28138.68779215
  entropy T*S    EENTRO =         0.01480638
  eigenvalues    EBANDS =      -864.41869660
  atomic energy  EATOM  =     27259.89416086
  Solvation  Ediel_sol  =         0.00000000
  ---------------------------------------------------
  free energy    TOTEN  =      -230.65534705 eV

  energy without entropy =     -230.67015344  energy(sigma->0) =     -230.66028251


--------------------------------------------------------------------------------------------------------




--------------------------------------- Iteration      1(  11)  ---------------------------------------


    POTLOK:  cpu time    0.1643: real time    0.1655
    SETDIJ:  cpu time    0.0132: real time    0.0133
    EDDIAG:  cpu time    1.9331: real time    1.9472
  RMM-DIIS:  cpu time    6.9085: real time    6.9658
    ORTHCH:  cpu time    0.2573: real time    0.2591
       DOS:  cpu time    0.0012: real time    0.0012
    CHARGE:  cpu time    0.6748: real time    0.6793
    MIXING:  cpu time    0.0069: real time    0.0070
    --------------------------------------------
      LOOP:  cpu time    9.9594: real time   10.0383

 eigenvalue-minimisations  :  1831
 total energy-change (2. order) : 0.3159077E+00  (-0.5066792E-01)
 number of electron     376.0000057 magnetization 
 augmentation part      112.9292265 magnetization 

 Broyden mixing:
  rms(total) = 0.31614E+00    rms(broyden)= 0.31583E+00
  rms(prec ) = 0.42808E+00
  weight for this iteration     100.00

 eigenvalues of (default mixing * dielectric matrix)
  average eigenvalue GAMMA=   0.6001
  1.6161  0.8916  0.3608  0.3608  0.1394  0.2320

 Free energy of the ion-electron system (eV)
  ---------------------------------------------------
  alpha Z        PSCENC =       975.10247152
  Ewald energy   TEWEN  =     91215.54377644
  -Hartree energ DENC   =   -119921.47385974
  -exchange      EXHF   =         0.00000000
  -V(xc)+E(xc)   XCENC  =       178.78924630
  PAW double counting   =     29351.80469094   -28428.51801053
  entropy T*S    EENTRO =        -0.03550758
  eigenvalues    EBANDS =      -861.44640759
  atomic energy  EATOM  =     27259.89416086
  Solvation  Ediel_sol  =         0.00000000
  ---------------------------------------------------
  free energy    TOTEN  =      -230.33943938 eV

  energy without entropy =     -230.30393179  energy(sigma->0) =     -230.32760352


--------------------------------------------------------------------------------------------------------




--------------------------------------- Iteration      1(  12)  ---------------------------------------


    POTLOK:  cpu time    0.1707: real time    0.1720
    SETDIJ:  cpu time    0.0115: real time    0.0115
    EDDIAG:  cpu time    1.9412: real time    1.9586
  RMM-DIIS:  cpu time    7.4757: real time    7.5566
    ORTHCH:  cpu time    0.2787: real time    0.2813
       DOS:  cpu time    0.0013: real time    0.0013
    CHARGE:  cpu time    0.8457: real time    0.8550
    MIXING:  cpu time    0.0067: real time    0.0068
    --------------------------------------------
      LOOP:  cpu time   10.7315: real time   10.8431

 eigenvalue-minimisations  :  1844
 total energy-change (2. order) : 0.1511072E+00  (-0.2153738E-01)
 number of electron     376.0000057 magnetization 
 augmentation part      112.9808280 magnetization 

 Broyden mixing:
  rms(total) = 0.17845E+00    rms(broyden)= 0.17842E+00
  rms(prec ) = 0.20384E+00
  weight for this iteration     100.00

 eigenvalues of (default mixing * dielectric matrix)
  average eigenvalue GAMMA=   0.6743
  1.9687  1.0699  0.5082  0.5082  0.1395  0.2811  0.2444

 Free energy of the ion-electron system (eV)
  ---------------------------------------------------
  alpha Z        PSCENC =       975.10247152
  Ewald energy   TEWEN  =     91215.54377644
  -Hartree energ DENC   =   -119913.19688298
  -exchange      EXHF   =         0.00000000
  -V(xc)+E(xc)   XCENC  =       178.73109150
  PAW double counting   =     29705.34438079   -28786.35317485
  entropy T*S    EENTRO =        -0.02666701
  eigenvalues    EBANDS =      -865.22748846
  atomic energy  EATOM  =     27259.89416086
  Solvation  Ediel_sol  =         0.00000000
  ---------------------------------------------------
  free energy    TOTEN  =      -230.18833218 eV

  energy without entropy =     -230.16166517  energy(sigma->0) =     -230.17944317


--------------------------------------------------------------------------------------------------------




--------------------------------------- Iteration      1(  13)  ---------------------------------------


    POTLOK:  cpu time    0.1876: real time    0.1897
    SETDIJ:  cpu time    0.0110: real time    0.0111
    EDDIAG:  cpu time    2.2441: real time    2.2671
  RMM-DIIS:  cpu time    6.8808: real time    6.9466
    ORTHCH:  cpu time    0.2657: real time    0.2679
       DOS:  cpu time    0.0012: real time    0.0012
    CHARGE:  cpu time    0.7365: real time    0.7422
    MIXING:  cpu time    0.0060: real time    0.0060
    --------------------------------------------
      LOOP:  cpu time   10.3329: real time   10.4318

 eigenvalue-minimisations  :  1833
 total energy-change (2. order) :-0.1017738E-01  (-0.1106801E-01)
 number of electron     376.0000057 magnetization 
 augmentation part      112.9959230 magnetization 

 Broyden mixing:
  rms(total) = 0.19374E+00    rms(broyden)= 0.19373E+00
  rms(prec ) = 0.25002E+00
  weight for this iteration     100.00

 eigenvalues of (default mixing * dielectric matrix)
  average eigenvalue GAMMA=   0.6934
  2.1834  1.1338  0.8279  0.4417  0.1395  0.2964  0.2964  0.2283

 Free energy of the ion-electron system (eV)
  ---------------------------------------------------
  alpha Z        PSCENC =       975.10247152
  Ewald energy   TEWEN  =     91215.54377644
  -Hartree energ DENC   =   -119912.81907666
  -exchange      EXHF   =         0.00000000
  -V(xc)+E(xc)   XCENC  =       178.64894880
  PAW double counting   =     29949.93123289   -29033.85633681
  entropy T*S    EENTRO =        -0.02549718
  eigenvalues    EBANDS =      -862.61818942
  atomic energy  EATOM  =     27259.89416086
  Solvation  Ediel_sol  =         0.00000000
  ---------------------------------------------------
  free energy    TOTEN  =      -230.19850956 eV

  energy without entropy =     -230.17301238  energy(sigma->0) =     -230.19001050


--------------------------------------------------------------------------------------------------------




--------------------------------------- Iteration      1(  14)  ---------------------------------------


    POTLOK:  cpu time    0.1668: real time    0.1681
    SETDIJ:  cpu time    0.0104: real time    0.0105
    EDDIAG:  cpu time    1.9727: real time    1.9860
  RMM-DIIS:  cpu time    6.2541: real time    6.3026
    ORTHCH:  cpu time    0.2322: real time    0.2338
       DOS:  cpu time    0.0012: real time    0.0012
    CHARGE:  cpu time    0.4680: real time    0.4716
    MIXING:  cpu time    0.0051: real time    0.0052
    --------------------------------------------
      LOOP:  cpu time    9.1106: real time    9.1791

 eigenvalue-minimisations  :  1831
 total energy-change (2. order) : 0.4526399E-01  (-0.7046019E-02)
 number of electron     376.0000057 magnetization 
 augmentation part      112.9822076 magnetization 

 Broyden mixing:
  rms(total) = 0.95128E-01    rms(broyden)= 0.95117E-01
  rms(prec ) = 0.12714E+00
  weight for this iteration     100.00

 eigenvalues of (default mixing * dielectric matrix)
  average eigenvalue GAMMA=   0.7219
  2.4193  1.2467  0.8433  0.6627  0.4025  0.1395  0.3099  0.2482  0.2247

 Free energy of the ion-electron system (eV)
  ---------------------------------------------------
  alpha Z        PSCENC =       975.10247152
  Ewald energy   TEWEN  =     91215.54377644
  -Hartree energ DENC   =   -119917.64577116
  -exchange      EXHF   =         0.00000000
  -V(xc)+E(xc)   XCENC  =       178.59719527
  PAW double counting   =     30081.98067267   -29167.43549257
  entropy T*S    EENTRO =        -0.02578316
  eigenvalues    EBANDS =      -856.16447545
  atomic energy  EATOM  =     27259.89416086
  Solvation  Ediel_sol  =         0.00000000
  ---------------------------------------------------
  free energy    TOTEN  =      -230.15324557 eV

  energy without entropy =     -230.12746241  energy(sigma->0) =     -230.14465118


--------------------------------------------------------------------------------------------------------




--------------------------------------- Iteration      1(  15)  ---------------------------------------


    POTLOK:  cpu time    0.1359: real time    0.1371
    SETDIJ:  cpu time    0.0097: real time    0.0098
    EDDIAG:  cpu time    1.8857: real time    1.8986
  RMM-DIIS:  cpu time    7.2183: real time    7.2719
    ORTHCH:  cpu time    0.2667: real time    0.2683
       DOS:  cpu time    0.0012: real time    0.0012
    CHARGE:  cpu time    0.7276: real time    0.7328
    MIXING:  cpu time    0.0071: real time    0.0071
    --------------------------------------------
      LOOP:  cpu time   10.2523: real time   10.3269

 eigenvalue-minimisations  :  1831
 total energy-change (2. order) : 0.6582188E-02  (-0.2826390E-02)
 number of electron     376.0000057 magnetization 
 augmentation part      112.9621098 magnetization 

 Broyden mixing:
  rms(total) = 0.61812E-01    rms(broyden)= 0.61759E-01
  rms(prec ) = 0.76840E-01
  weight for this iteration     100.00

 eigenvalues of (default mixing * dielectric matrix)
  average eigenvalue GAMMA=   0.7073
  2.4884  1.2867  0.8136  0.8136  0.4515  0.1395  0.3073  0.3073  0.2421  0.2230

 Free energy of the ion-electron system (eV)
  ---------------------------------------------------
  alpha Z        PSCENC =       975.10247152
  Ewald energy   TEWEN  =     91215.54377644
  -Hartree energ DENC   =   -119919.35074063
  -exchange      EXHF   =         0.00000000
  -V(xc)+E(xc)   XCENC  =       178.58131440
  PAW double counting   =     30161.82129471   -29248.12354713
  entropy T*S    EENTRO =        -0.01968644
  eigenvalues    EBANDS =      -853.59570712
  atomic energy  EATOM  =     27259.89416086
  Solvation  Ediel_sol  =         0.00000000
  ---------------------------------------------------
  free energy    TOTEN  =      -230.14666338 eV

  energy without entropy =     -230.12697694  energy(sigma->0) =     -230.14010124


--------------------------------------------------------------------------------------------------------




--------------------------------------- Iteration      1(  16)  ---------------------------------------


    POTLOK:  cpu time    0.1697: real time    0.1710
    SETDIJ:  cpu time    0.0119: real time    0.0119
    EDDIAG:  cpu time    2.0821: real time    2.0962
  RMM-DIIS:  cpu time    7.3092: real time    7.3618
    ORTHCH:  cpu time    0.2863: real time    0.2884
       DOS:  cpu time    0.0013: real time    0.0013
    CHARGE:  cpu time    0.8228: real time    0.8286
    MIXING:  cpu time    0.0076: real time    0.0077
    --------------------------------------------
      LOOP:  cpu time   10.6909: real time   10.7669

 eigenvalue-minimisations  :  1827
 total energy-change (2. order) : 0.6092581E-02  (-0.6636846E-03)
 number of electron     376.0000057 magnetization 
 augmentation part      112.9644189 magnetization 

 Broyden mixing:
  rms(total) = 0.22206E-01    rms(broyden)= 0.22199E-01
  rms(prec ) = 0.26776E-01
  weight for this iteration     100.00

 eigenvalues of (default mixing * dielectric matrix)
  average eigenvalue GAMMA=   0.6855
  2.5103  1.2958  0.7938  0.7938  0.5364  0.3998  0.1395  0.3044  0.3044  0.2402
  0.2219

 Free energy of the ion-electron system (eV)
  ---------------------------------------------------
  alpha Z        PSCENC =       975.10247152
  Ewald energy   TEWEN  =     91215.54377644
  -Hartree energ DENC   =   -119920.44828284
  -exchange      EXHF   =         0.00000000
  -V(xc)+E(xc)   XCENC  =       178.59074652
  PAW double counting   =     30178.06446163   -29264.50791325
  entropy T*S    EENTRO =        -0.02111477
  eigenvalues    EBANDS =      -852.35887693
  atomic energy  EATOM  =     27259.89416086
  Solvation  Ediel_sol  =         0.00000000
  ---------------------------------------------------
  free energy    TOTEN  =      -230.14057080 eV

  energy without entropy =     -230.11945604  energy(sigma->0) =     -230.13353255


--------------------------------------------------------------------------------------------------------




--------------------------------------- Iteration      1(  17)  ---------------------------------------


    POTLOK:  cpu time    0.1787: real time    0.1800
    SETDIJ:  cpu time    0.0127: real time    0.0128
    EDDIAG:  cpu time    2.2148: real time    2.2301
  RMM-DIIS:  cpu time    7.0699: real time    7.1215
    ORTHCH:  cpu time    0.2678: real time    0.2698
       DOS:  cpu time    0.0012: real time    0.0012
    CHARGE:  cpu time    0.6868: real time    0.6918
    MIXING:  cpu time    0.0067: real time    0.0067
    --------------------------------------------
      LOOP:  cpu time   10.4387: real time   10.5139

 eigenvalue-minimisations  :  1816
 total energy-change (2. order) : 0.5384944E-03  (-0.1459351E-03)
 number of electron     376.0000057 magnetization 
 augmentation part      112.9648138 magnetization 

 Broyden mixing:
  rms(total) = 0.13104E-01    rms(broyden)= 0.13102E-01
  rms(prec ) = 0.15622E-01
  weight for this iteration     100.00

 eigenvalues of (default mixing * dielectric matrix)
  average eigenvalue GAMMA=   0.7237
  2.5396  1.3315  0.9936  0.9936  0.8739  0.4530  0.1395  0.3174  0.3174  0.2657
  0.2383  0.2211

 Free energy of the ion-electron system (eV)
  ---------------------------------------------------
  alpha Z        PSCENC =       975.10247152
  Ewald energy   TEWEN  =     91215.54377644
  -Hartree energ DENC   =   -119920.83963851
  -exchange      EXHF   =         0.00000000
  -V(xc)+E(xc)   XCENC  =       178.59618745
  PAW double counting   =     30180.30208837   -29266.74402365
  entropy T*S    EENTRO =        -0.02173890
  eigenvalues    EBANDS =      -851.97331590
  atomic energy  EATOM  =     27259.89416086
  Solvation  Ediel_sol  =         0.00000000
  ---------------------------------------------------
  free energy    TOTEN  =      -230.14003231 eV

  energy without entropy =     -230.11829341  energy(sigma->0) =     -230.13278601


--------------------------------------------------------------------------------------------------------




--------------------------------------- Iteration      1(  18)  ---------------------------------------


    POTLOK:  cpu time    0.1579: real time    0.1592
    SETDIJ:  cpu time    0.0112: real time    0.0113
    EDDIAG:  cpu time    1.9747: real time    1.9891
  RMM-DIIS:  cpu time    6.1826: real time    6.2305
    ORTHCH:  cpu time    0.2587: real time    0.2605
       DOS:  cpu time    0.0011: real time    0.0012
    CHARGE:  cpu time    0.6334: real time    0.6376
    MIXING:  cpu time    0.0076: real time    0.0077
    --------------------------------------------
      LOOP:  cpu time    9.2274: real time    9.2971

 eigenvalue-minimisations  :  1709
 total energy-change (2. order) :-0.1283859E-03  (-0.6934308E-04)
 number of electron     376.0000057 magnetization 
 augmentation part      112.9637766 magnetization 

 Broyden mixing:
  rms(total) = 0.11135E-01    rms(broyden)= 0.11135E-01
  rms(prec ) = 0.13630E-01
  weight for this iteration     100.00

 eigenvalues of (default mixing * dielectric matrix)
  average eigenvalue GAMMA=   0.7560
  2.5625  1.9381  1.2698  0.8727  0.8727  0.4561  0.1395  0.3807  0.3161  0.3161
  0.2486  0.2207  0.2347

 Free energy of the ion-electron system (eV)
  ---------------------------------------------------
  alpha Z        PSCENC =       975.10247152
  Ewald energy   TEWEN  =     91215.54377644
  -Hartree energ DENC   =   -119921.91872628
  -exchange      EXHF   =         0.00000000
  -V(xc)+E(xc)   XCENC  =       178.60573021
  PAW double counting   =     30179.72740908   -29266.11019538
  entropy T*S    EENTRO =        -0.02148579
  eigenvalues    EBANDS =      -850.96330136
  atomic energy  EATOM  =     27259.89416086
  Solvation  Ediel_sol  =         0.00000000
  ---------------------------------------------------
  free energy    TOTEN  =      -230.14016069 eV

  energy without entropy =     -230.11867490  energy(sigma->0) =     -230.13299876


--------------------------------------------------------------------------------------------------------




--------------------------------------- Iteration      1(  19)  ---------------------------------------


    POTLOK:  cpu time    0.1563: real time    0.1577
    SETDIJ:  cpu time    0.0117: real time    0.0118
    EDDIAG:  cpu time    1.9544: real time    1.9690
  RMM-DIIS:  cpu time    4.6055: real time    4.6431
    ORTHCH:  cpu time    0.2692: real time    0.2712
       DOS:  cpu time    0.0013: real time    1.4937
    --------------------------------------------
      LOOP:  cpu time    6.9983: real time    8.5465

 eigenvalue-minimisations  :  1216
 total energy-change (2. order) : 0.2364970E-04  (-0.3382552E-04)
 number of electron     376.0000057 magnetization 
 augmentation part      112.9637766 magnetization 

 Free energy of the ion-electron system (eV)
  ---------------------------------------------------
  alpha Z        PSCENC =       975.10247152
  Ewald energy   TEWEN  =     91215.54377644
  -Hartree energ DENC   =   -119923.28646589
  -exchange      EXHF   =         0.00000000
  -V(xc)+E(xc)   XCENC  =       178.61597031
  PAW double counting   =     30176.72707958   -29263.02511387
  entropy T*S    EENTRO =        -0.02200275
  eigenvalues    EBANDS =      -849.69001324
  atomic energy  EATOM  =     27259.89416086
  Solvation  Ediel_sol  =         0.00000000
  ---------------------------------------------------
  free energy    TOTEN  =      -230.14013704 eV

  energy without entropy =     -230.11813429  energy(sigma->0) =     -230.13280279


--------------------------------------------------------------------------------------------------------




 average (electrostatic) potential at core
  the test charge radii are     0.6991  0.7215  1.2059
  (the norm of the test charge is              1.0000)
       1 -56.3594       2 -75.1561       3 -76.2229       4 -72.2928       5 -72.2986
       6 -72.2824       7 -72.2890       8 -72.3085       9 -72.3187      10 -72.2585
      11 -72.2857      12 -72.2879      13 -72.8572      14 -72.9965      15 -72.8807
      16 -72.9101      17 -73.0013      18 -72.9293      19 -73.0080      20 -72.9618
      21 -72.9562      22 -72.9143      23 -72.9728      24 -72.8718      25 -73.0060
      26 -72.9911      27 -73.0085      28 -72.9061      29 -72.9260      30 -72.7903
      31 -72.3539      32 -72.3648      33 -72.5726      34 -72.4713      35 -72.4567
      36 -73.3293      37 -72.4214      38 -73.3596      39 -72.2610
 
 
 
 E-fermi :   1.1218     XC(G=0):  -6.6147     alpha+bet : -6.8913


 k-point     1 :       0.0000    0.0000    0.0000
  band No.  band energies     occupation 
      1     -22.1294      2.00000
      2     -17.6765      2.00000
      3      -9.0300      2.00000
      4      -8.0950      2.00000
      5      -6.8232      2.00000
      6      -6.1392      2.00000
      7      -6.0243      2.00000
      8      -5.8140      2.00000
      9      -5.6722      2.00000
     10      -5.6406      2.00000
     11      -5.6107      2.00000
     12      -5.5719      2.00000
     13      -5.5490      2.00000
     14      -5.5346      2.00000
     15      -5.5155      2.00000
     16      -5.3712      2.00000
     17      -5.1018      2.00000
     18      -5.0729      2.00000
     19      -5.0587      2.00000
     20      -5.0029      2.00000
     21      -4.9902      2.00000
     22      -4.9515      2.00000
     23      -4.8121      2.00000
     24      -4.7079      2.00000
     25      -4.5293      2.00000
     26      -4.5220      2.00000
     27      -4.4841      2.00000
     28      -4.4635      2.00000
     29      -4.4295      2.00000
     30      -4.3755      2.00000
     31      -4.3414      2.00000
     32      -4.3039      2.00000
     33      -4.2900      2.00000
     34      -4.2283      2.00000
     35      -4.1622      2.00000
     36      -4.1031      2.00000
     37      -4.0858      2.00000
     38      -4.0617      2.00000
     39      -4.0544      2.00000
     40      -4.0413      2.00000
     41      -4.0354      2.00000
     42      -4.0187      2.00000
     43      -3.9841      2.00000
     44      -3.9626      2.00000
     45      -3.9591      2.00000
     46      -3.9156      2.00000
     47      -3.7155      2.00000
     48      -3.5640      2.00000
     49      -3.5418      2.00000
     50      -3.4312      2.00000
     51      -3.4062      2.00000
     52      -3.3811      2.00000
     53      -3.3744      2.00000
     54      -3.3473      2.00000
     55      -3.3065      2.00000
     56      -3.2822      2.00000
     57      -3.2749      2.00000
     58      -3.1860      2.00000
     59      -3.1754      2.00000
     60      -3.1518      2.00000
     61      -3.1127      2.00000
     62      -3.0804      2.00000
     63      -3.0138      2.00000
     64      -2.6435      2.00000
     65      -2.5646      2.00000
     66      -2.5542      2.00000
     67      -2.5338      2.00000
     68      -2.5219      2.00000
     69      -2.4887      2.00000
     70      -2.4592      2.00000
     71      -2.4130      2.00000
     72      -2.4055      2.00000
     73      -2.3874      2.00000
     74      -2.3786      2.00000
     75      -2.3664      2.00000
     76      -2.3346      2.00000
     77      -2.3257      2.00000
     78      -2.3195      2.00000
     79      -2.3051      2.00000
     80      -2.2823      2.00000
     81      -2.2730      2.00000
     82      -2.2671      2.00000
     83      -2.2506      2.00000
     84      -2.2339      2.00000
     85      -2.2095      2.00000
     86      -2.1308      2.00000
     87      -2.1132      2.00000
     88      -2.1090      2.00000
     89      -2.0740      2.00000
     90      -2.0596      2.00000
     91      -2.0034      2.00000
     92      -1.9567      2.00000
     93      -1.9374      2.00000
     94      -1.9282      2.00000
     95      -1.9007      2.00000
     96      -1.8619      2.00000
     97      -1.8355      2.00000
     98      -1.8165      2.00000
     99      -1.7814      2.00000
    100      -1.7568      2.00000
    101      -1.6946      2.00000
    102      -1.6223      2.00000
    103      -1.6031      2.00000
    104      -1.5895      2.00000
    105      -1.5805      2.00000
    106      -1.5336      2.00000
    107      -1.5198      2.00000
    108      -1.5084      2.00000
    109      -1.4712      2.00000
    110      -1.4625      2.00000
    111      -1.4574      2.00000
    112      -1.4462      2.00000
    113      -1.4189      2.00000
    114      -1.3666      2.00000
    115      -1.3267      2.00000
    116      -1.1620      2.00000
    117      -1.1062      2.00000
    118      -1.0251      2.00000
    119      -1.0110      2.00000
    120      -0.9685      2.00000
    121      -0.9557      2.00000
    122      -0.9289      2.00000
    123      -0.9113      2.00000
    124      -0.8772      2.00000
    125      -0.8421      2.00000
    126      -0.8197      2.00000
    127      -0.7898      2.00000
    128      -0.7139      2.00000
    129      -0.6850      2.00000
    130      -0.6537      2.00000
    131      -0.6408      2.00000
    132      -0.6186      2.00000
    133      -0.6061      2.00000
    134      -0.5619      2.00000
    135      -0.5218      2.00000
    136      -0.4690      2.00000
    137      -0.3945      2.00000
    138      -0.3484      2.00000
    139      -0.3393      2.00000
    140      -0.3309      2.00000
    141      -0.2738      2.00000
    142      -0.2518      2.00000
    143      -0.1852      2.00000
    144      -0.1338      2.00000
    145      -0.1134      2.00000
    146      -0.0948      2.00000
    147      -0.0869      2.00000
    148      -0.0556      2.00000
    149       0.0089      2.00000
    150       0.0368      2.00000
    151       0.1058      2.00000
    152       0.1184      2.00000
    153       0.1253      2.00000
    154       0.1542      2.00000
    155       0.1897      2.00000
    156       0.2150      2.00000
    157       0.2390      2.00000
    158       0.2747      2.00000
    159       0.2928      2.00000
    160       0.3104      2.00000
    161       0.3257      2.00000
    162       0.3353      2.00000
    163       0.3675      2.00000
    164       0.3745      2.00000
    165       0.3828      2.00000
    166       0.3987      2.00000
    167       0.4187      2.00001
    168       0.4305      2.00001
    169       0.4554      2.00003
    170       0.5030      2.00011
    171       0.5351      2.00027
    172       0.5500      2.00040
    173       0.5877      2.00105
    174       0.6357      2.00314
    175       0.6474      2.00403
    176       0.6653      2.00578
    177       0.6964      2.01038
    178       0.7065      2.01239
    179       0.7177      2.01496
    180       0.7712      2.03261
    181       0.7814      2.03690
    182       0.8046      2.04743
    183       0.8260      2.05718
    184       0.8372      2.06179
    185       0.8468      2.06530
    186       0.8499      2.06630
    187       0.8585      2.06863
    188       0.8594      2.06884
    189       0.8678      2.07032
    190       0.8772      2.07092
    191       0.8801      2.07083
    192       0.8834      2.07057
    193       0.9010      2.06566
    194       0.9628      1.97748
    195       0.9816      1.92038
    196       1.1123      1.08026
    197       1.1395      0.85083
    198       1.2006      0.38679
    199       1.2258      0.23842
    200       1.2397      0.16931
    201       1.2551      0.10487
    202       1.2704      0.05207
    203       1.2835      0.01556
    204       1.5302     -0.01394
    205       1.5804     -0.00555
    206       1.9700     -0.00000
    207       2.0233     -0.00000
    208       2.0791     -0.00000
    209       2.1163     -0.00000
    210       2.2208     -0.00000
    211       2.5733     -0.00000
    212       3.6634     -0.00000
    213       4.0389     -0.00000
    214       4.3388     -0.00000
    215       4.3887     -0.00000
    216       4.4073     -0.00000
    217       4.5983     -0.00000
    218       4.9713     -0.00000
    219       5.5039     -0.00000
    220       5.6698     -0.00000
    221       5.8769     -0.00000
    222       5.9075     -0.00000
    223       5.9347     -0.00000
    224       5.9599     -0.00000
    225       6.0154     -0.00000
    226       6.1669     -0.00000
    227       6.5673     -0.00000
    228       6.7898      0.00000

 k-point     2 :       0.5000    0.0000    0.0000
  band No.  band energies     occupation 
      1     -22.1293      2.00000
      2     -17.6761      2.00000
      3      -9.0262      2.00000
      4      -7.2510      2.00000
      5      -7.1839      2.00000
      6      -6.1978      2.00000
      7      -6.1046      2.00000
      8      -5.9497      2.00000
      9      -5.8289      2.00000
     10      -5.7537      2.00000
     11      -5.6677      2.00000
     12      -5.4787      2.00000
     13      -5.3810      2.00000
     14      -5.2385      2.00000
     15      -5.0806      2.00000
     16      -4.9486      2.00000
     17      -4.8703      2.00000
     18      -4.8474      2.00000
     19      -4.8294      2.00000
     20      -4.8161      2.00000
     21      -4.7817      2.00000
     22      -4.7659      2.00000
     23      -4.7420      2.00000
     24      -4.7321      2.00000
     25      -4.7215      2.00000
     26      -4.7138      2.00000
     27      -4.6566      2.00000
     28      -4.6130      2.00000
     29      -4.6059      2.00000
     30      -4.5433      2.00000
     31      -4.4301      2.00000
     32      -4.3083      2.00000
     33      -4.2984      2.00000
     34      -4.2728      2.00000
     35      -4.2450      2.00000
     36      -4.2040      2.00000
     37      -4.0521      2.00000
     38      -4.0141      2.00000
     39      -4.0008      2.00000
     40      -3.9707      2.00000
     41      -3.9325      2.00000
     42      -3.8998      2.00000
     43      -3.8526      2.00000
     44      -3.8340      2.00000
     45      -3.7721      2.00000
     46      -3.7076      2.00000
     47      -3.6728      2.00000
     48      -3.6215      2.00000
     49      -3.6075      2.00000
     50      -3.5583      2.00000
     51      -3.4779      2.00000
     52      -3.4714      2.00000
     53      -3.4375      2.00000
     54      -3.3668      2.00000
     55      -3.3297      2.00000
     56      -3.3252      2.00000
     57      -3.2791      2.00000
     58      -3.1731      2.00000
     59      -3.1707      2.00000
     60      -3.1350      2.00000
     61      -3.1116      2.00000
     62      -3.0768      2.00000
     63      -3.0442      2.00000
     64      -3.0178      2.00000
     65      -2.9517      2.00000
     66      -2.9215      2.00000
     67      -2.8824      2.00000
     68      -2.8527      2.00000
     69      -2.8298      2.00000
     70      -2.8034      2.00000
[...]
     89      -2.1624      2.00000
     90      -2.1564      2.00000
     91      -2.1238      2.00000
     92      -2.1050      2.00000
     93      -2.0608      2.00000
     94      -2.0082      2.00000
     95      -1.9756      2.00000
     96      -1.9510      2.00000
     97      -1.9182      2.00000
     98      -1.8920      2.00000
     99      -1.8648      2.00000
    100      -1.8402      2.00000
    101      -1.7796      2.00000
    102      -1.7750      2.00000
    103      -1.7385      2.00000
    104      -1.7281      2.00000
    105      -1.7002      2.00000
    106      -1.6816      2.00000
    107      -1.6691      2.00000
    108      -1.6359      2.00000
    109      -1.6010      2.00000
    110      -1.5569      2.00000
    111      -1.5345      2.00000
    112      -1.4840      2.00000
    113      -1.4586      2.00000
    114      -1.4045      2.00000
    115      -1.3044      2.00000
    116      -1.2922      2.00000
    117      -1.2298      2.00000
    118      -1.2138      2.00000
    119      -1.1555      2.00000
    120      -1.1117      2.00000
    121      -1.0892      2.00000
    122      -1.0509      2.00000
    123      -1.0353      2.00000
    124      -1.0225      2.00000
    125      -0.9933      2.00000
    126      -0.9749      2.00000
    127      -0.9659      2.00000
    128      -0.9524      2.00000
    129      -0.9149      2.00000
    130      -0.9114      2.00000
    131      -0.8815      2.00000
    132      -0.8200      2.00000
    133      -0.7699      2.00000
    134      -0.7602      2.00000
    135      -0.7356      2.00000
    136      -0.6902      2.00000
    137      -0.6880      2.00000
    138      -0.6576      2.00000
    139      -0.6113      2.00000
    140      -0.5680      2.00000
    141      -0.4872      2.00000
    142      -0.4754      2.00000
    143      -0.4085      2.00000
    144      -0.3088      2.00000
    145      -0.2813      2.00000
    146      -0.1930      2.00000
    147      -0.1773      2.00000
    148      -0.1449      2.00000
    149      -0.1119      2.00000
    150      -0.0801      2.00000
    151      -0.0563      2.00000
    152       0.0294      2.00000
    153       0.0414      2.00000
    154       0.0727      2.00000
    155       0.0862      2.00000
    156       0.0890      2.00000
    157       0.1157      2.00000
    158       0.1537      2.00000
    159       0.1807      2.00000
    160       0.2064      2.00000
    161       0.2478      2.00000
    162       0.2885      2.00000
    163       0.3062      2.00000
    164       0.3269      2.00000
    165       0.3513      2.00000
    166       0.4031      2.00002
    167       0.5122      2.00038
    168       0.5658      2.00145
    169       0.5856      2.00229
    170       0.6018      2.00326
    171       0.6249      2.00527
    172       0.6645      2.01108
    173       0.7052      2.02146
    174       0.7701      2.04795
    175       0.7806      2.05278
    176       0.7964      2.05973
    177       0.8371      2.07079
    178       0.8607      2.06758
    179       0.9017      2.03021
    180       0.9102      2.01561
    181       0.9264      1.97942
    182       0.9881      1.72979
    183       1.0373      1.40062
    184       1.0774      1.07452
    185       1.0915      0.95531
    186       1.0948      0.92709
    187       1.1161      0.74994
    188       1.1429      0.54086
    189       1.1552      0.45295
    190       1.1679      0.36805
    191       1.2935     -0.05704
    192       1.3242     -0.07053
    193       1.3557     -0.06700
    194       1.3778     -0.05894
    195       1.4050     -0.04668
    196       1.4839     -0.01658
    197       1.5751     -0.00296
    198       1.7277     -0.00006
    199       1.8117     -0.00000
    200       1.9700     -0.00000
    201       2.2603     -0.00000
    202       2.3205     -0.00000
    203       2.7824     -0.00000
    204       2.9358     -0.00000
    205       2.9467     -0.00000
    206       2.9769     -0.00000
    207       2.9974     -0.00000
    208       3.2239     -0.00000
    209       3.3706     -0.00000
    210       3.5106     -0.00000
    211       3.5410     -0.00000
    212       3.5964     -0.00000
    213       3.7216     -0.00000
    214       3.8089     -0.00000
    215       3.9481     -0.00000
    216       4.1662     -0.00000
    217       4.2021     -0.00000
    218       4.4023     -0.00000
    219       4.4422     -0.00000
    220       4.6060     -0.00000
    221       4.6535     -0.00000
    222       4.8149     -0.00000
    223       5.1170     -0.00000
    224       5.5072     -0.00000
    225       5.9335     -0.00000
    226       6.5186     -0.00000
    227       6.5310     -0.00000
    228       6.6058      0.00000


--------------------------------------------------------------------------------------------------------


 soft charge-density along one line, spin component           1
         0         1         2         3         4         5         6         7         8         9
 total charge-density along one line
 
 pseudopotential strength for first ion, spin component:           1
 10.092   0.015   0.003   0.008   0.001  -0.003  -0.007  -0.000
  0.015  -0.002  -0.000  -0.000  -0.000  -0.000  -0.000   0.000
  0.003  -0.000  -4.247  -0.005   0.001  -0.009  -0.002   0.000
  0.008  -0.000  -0.005  -4.260   0.003  -0.002  -0.014   0.000
  0.001  -0.000   0.001   0.003  -4.245   0.000   0.000  -0.008
 -0.003  -0.000  -0.009  -0.002   0.000  -0.770  -0.000   0.000
 -0.007  -0.000  -0.002  -0.014   0.000  -0.000  -0.770   0.000
 -0.000   0.000   0.000   0.000  -0.008   0.000   0.000  -0.770
 total augmentation occupancy for first ion, spin component:           1
  1.622  -0.814   0.007  -0.009  -0.061   0.029   0.076  -0.023
 -0.814   1.111  -0.181  -0.491   0.078  -0.073  -0.207   0.026
  0.007  -0.181   0.837   0.176   0.011   0.110   0.051  -0.004
 -0.009  -0.491   0.176   1.289   0.006   0.051   0.239  -0.007
 -0.061   0.078   0.011   0.006   0.786  -0.004  -0.008   0.096
  0.029  -0.073   0.110   0.051  -0.004   0.018   0.020  -0.003
  0.076  -0.207   0.051   0.239  -0.008   0.020   0.067  -0.005
 -0.023   0.026  -0.004  -0.007   0.096  -0.003  -0.005   0.013


------------------------ aborting loop because EDIFF is reached ----------------------------------------


    CHARGE:  cpu time    0.4960: real time    0.4995
    FORLOC:  cpu time    0.0487: real time    0.0490
    FORNL :  cpu time    3.0189: real time    3.0408
    STRESS:  cpu time   10.6447: real time   10.7244
    FORCOR:  cpu time    0.1755: real time    0.1766
    FORHAR:  cpu time    0.0969: real time    0.0976
    MIXING:  cpu time    0.0060: real time    0.0060
    OFIELD:  cpu time    0.0001: real time    0.0001

  FORCE on cell =-STRESS in cart. coord.  units (eV):
  Direction    XX          YY          ZZ          XY          YZ          ZX
  --------------------------------------------------------------------------------------
  Alpha Z   975.10247   975.10247   975.10247
  Ewald  111015.45236111019.95564************  -186.61268   240.46864   -79.55302
  Hartree117759.95038117736.49977************  -123.62033   102.85128   -49.77690
  E(xc)   -1665.80085 -1665.52957 -1673.19504    -0.43533     0.65806    -0.20680
  Local  ************************239438.57554   300.80878  -320.91956   124.25013
  n-local   123.85455   122.56888    89.98528    -1.02455     1.56717     0.04721
  augment  1895.18743  1893.28406  1933.01955     2.41939    -4.14056     0.73762
  Kinetic  5523.14012  5513.46232  5600.14012     9.23176   -20.93305     6.12589
  Fock        0.00000     0.00000     0.00000     0.00000     0.00000     0.00000
  -------------------------------------------------------------------------------------
  Total     -35.87399   -38.89153    -5.75287     0.76705    -0.44801     1.62414
  in kB     -42.72652   -46.32046    -6.85176     0.91357    -0.53358     1.93438
  external pressure =      -31.97 kB  Pullay stress =        0.00 kB


 VOLUME and BASIS-vectors are now :
 -----------------------------------------------------------------------------
  energy-cutoff  :      450.00
  volume of cell :     1345.22
      direct lattice vectors                 reciprocal lattice vectors
     7.296955120 -4.212899000  0.000000000     0.137043463  0.000000000  0.000000000
     0.000000000  8.425798000  0.000000000     0.068521732  0.118683121  0.000000000
     0.000000000  0.000000000 21.879635000     0.000000000  0.000000000  0.045704602

  length of vectors
     8.425798004  8.425798000 21.879635000     0.137043463  0.137043463  0.045704602


 FORCES acting on ions
    electron-ion (+dipol)            ewald-force                    non-local-force                 convergence-correction
 -----------------------------------------------------------------------------------------------
   0.163E+02 0.120E+02 -.892E+03   -.176E+02 -.157E+02 0.883E+03   0.106E+01 0.328E+01 0.105E+02   -.557E-01 0.336E-01 -.429E-01
   -.883E+02 0.527E+02 -.159E+04   0.908E+02 -.499E+02 0.161E+04   -.194E+01 -.235E+01 -.231E+02   -.307E-01 0.527E-01 0.423E-01
   0.558E+02 -.990E+02 -.154E+04   -.627E+02 0.118E+03 0.159E+04   0.726E+01 -.199E+02 -.564E+02   -.255E-01 0.454E-01 0.112E-01
   -.280E+00 0.614E+00 0.234E+04   0.229E+00 -.545E+00 -.234E+04   0.201E-01 -.400E-01 -.120E+01   0.520E-01 -.710E-01 0.223E-01
   0.500E+00 -.579E+00 0.234E+04   -.548E+00 0.570E+00 -.234E+04   -.189E-01 -.286E-01 -.110E+01   0.171E-01 -.731E-02 0.820E-01
   -.410E+00 -.264E+00 0.234E+04   0.454E+00 0.227E+00 -.234E+04   0.236E-01 -.105E-01 -.114E+01   -.940E-01 0.352E-01 0.249E-01
   0.451E+00 0.111E+00 0.234E+04   -.458E+00 -.194E+00 -.234E+04   0.463E-02 0.207E-01 -.117E+01   0.223E-01 0.958E-01 0.218E-01
   -.122E+00 0.851E+00 0.234E+04   0.188E-02 -.824E+00 -.234E+04   0.104E-01 0.104E-01 -.127E+01   0.880E-01 -.144E-01 0.677E-01
   0.438E-01 -.329E+00 0.234E+04   0.134E-01 0.242E+00 -.234E+04   0.650E-02 0.176E-01 -.120E+01   -.338E-01 0.507E-01 0.884E-01
   0.288E+00 -.416E+00 0.234E+04   -.163E+00 0.252E+00 -.234E+04   -.852E-01 0.107E+00 -.109E+01   -.164E-01 0.215E-01 0.789E-01
   -.775E+00 0.625E+00 0.234E+04   0.824E+00 -.468E+00 -.234E+04   -.520E-02 -.242E-01 -.124E+01   -.409E-01 -.859E-01 0.852E-01
   0.410E+00 -.687E+00 0.234E+04   -.357E+00 0.740E+00 -.234E+04   -.212E-01 0.257E-02 -.103E+01   0.641E-02 -.247E-01 0.968E-01
   0.560E+01 -.898E+01 0.856E+03   -.576E+01 0.905E+01 -.856E+03   0.152E-02 0.743E-01 -.472E+00   0.520E-02 -.156E-01 0.126E+00
   -.421E+01 0.239E+01 0.865E+03   0.425E+01 -.232E+01 -.865E+03   0.105E+00 -.263E-01 -.340E+00   -.119E+00 -.468E-01 0.120E+00
   -.259E+01 0.205E+01 0.853E+03   0.276E+01 -.199E+01 -.853E+03   -.577E-01 0.510E-01 -.130E+00   -.193E-01 -.169E+00 0.840E-01
   0.133E+00 0.355E+01 0.855E+03   -.335E+00 -.355E+01 -.855E+03   0.325E-01 0.632E-01 -.111E+00   0.146E+00 -.916E-01 0.437E-01
   -.125E+01 -.548E+01 0.861E+03   0.126E+01 0.546E+01 -.861E+03   0.114E+00 0.647E-01 -.319E+00   -.983E-01 0.697E-01 0.107E+00
   -.824E+00 0.656E+00 0.858E+03   0.873E+00 -.728E+00 -.858E+03   -.245E-01 0.642E-01 -.153E+00   -.431E-01 0.312E-01 0.412E-01
   0.878E+00 0.522E+01 0.865E+03   -.982E+00 -.524E+01 -.865E+03   -.629E-01 -.156E+00 -.427E+00   0.109E+00 0.108E+00 0.850E-01
   -.324E+01 0.339E+01 0.859E+03   0.323E+01 -.335E+01 -.859E+03   0.475E-01 -.427E-01 -.327E+00   0.358E-01 -.232E-01 0.101E+00
   0.669E+01 -.238E+01 0.859E+03   -.660E+01 0.242E+01 -.859E+03   -.179E+00 -.867E-01 -.316E+00   -.160E-01 0.138E+00 0.103E+00
   -.169E+01 0.915E+00 -.640E+03   0.144E+01 -.103E+01 0.640E+03   0.105E+00 0.301E-01 0.280E+00   0.140E+00 0.650E-01 -.632E-01
   -.263E+01 0.222E+01 -.625E+03   0.258E+01 -.223E+01 0.625E+03   0.122E+00 0.846E-02 0.372E+00   0.330E-01 0.252E-01 -.426E-01
   -.176E+01 0.159E+01 -.644E+03   0.169E+01 -.113E+01 0.643E+03   0.261E+00 -.323E+00 0.337E+00   -.167E+00 -.114E+00 -.758E-01
   -.421E+01 0.175E+02 -.644E+03   0.363E+01 -.164E+02 0.645E+03   0.518E+00 -.106E+01 -.116E+01   0.852E-01 -.191E+00 -.728E-01
   0.105E+02 -.260E+00 -.609E+03   -.974E+01 0.213E+00 0.609E+03   -.655E+00 -.266E-01 0.493E+00   -.105E+00 0.939E-03 -.641E-01
   -.158E+01 -.148E+02 -.607E+03   0.131E+01 0.144E+02 0.607E+03   0.262E+00 0.350E+00 0.814E+00   0.580E-01 0.125E+00 -.901E-01
   -.375E+01 0.132E+01 -.646E+03   0.379E+01 -.128E+01 0.646E+03   0.630E-01 -.792E-01 0.215E-01   -.427E-01 -.406E-01 -.502E-01
   0.596E+00 -.111E+01 -.639E+03   -.627E+00 0.112E+01 0.639E+03   -.163E+00 -.398E-01 0.922E-01   0.111E+00 -.166E-01 -.492E-01
   -.121E+00 -.410E+01 -.650E+03   0.221E+00 0.373E+01 0.649E+03   0.858E-01 0.305E+00 0.242E+00   -.132E+00 0.157E+00 -.268E-01
   -.211E+02 -.858E+01 -.216E+04   0.216E+02 0.874E+01 0.216E+04   -.690E+00 -.201E+00 0.145E+01   0.187E+00 0.408E-01 -.142E+00
   0.167E+02 0.343E+02 -.215E+04   -.170E+02 -.347E+02 0.214E+04   0.362E+00 0.480E+00 0.144E+01   -.105E+00 -.924E-01 -.159E+00
   0.358E+02 -.120E+02 -.212E+04   -.360E+02 0.119E+02 0.212E+04   -.393E-02 0.338E+00 0.126E+01   0.109E+00 -.995E-01 -.195E+00
   -.348E+01 -.146E+01 -.217E+04   0.334E+01 0.113E+01 0.216E+04   -.456E-01 0.476E+00 0.116E+01   0.147E-01 -.987E-01 -.197E+00
   0.170E+02 0.160E+02 -.214E+04   -.170E+02 -.164E+02 0.214E+04   -.444E-01 0.229E+00 0.102E+01   0.218E-01 0.520E-01 -.190E+00
   0.711E+02 0.609E+02 -.199E+04   -.738E+02 -.592E+02 0.199E+04   0.283E+01 -.155E+01 -.389E+01   -.174E+00 0.354E-01 -.101E+00
   -.553E+02 -.526E+02 -.208E+04   0.567E+02 0.550E+02 0.208E+04   -.148E+01 -.277E+01 0.213E+01   0.510E-02 0.202E+00 -.944E-01
   -.608E+02 0.905E+02 -.203E+04   0.611E+02 -.911E+02 0.203E+04   -.401E+00 0.720E+00 -.546E+00   0.248E-01 -.109E+00 -.170E+00
   0.125E+02 -.735E+02 -.214E+04   -.124E+02 0.746E+02 0.214E+04   -.269E-01 -.885E+00 0.113E+01   -.292E-01 0.203E-01 -.108E+00
 -----------------------------------------------------------------------------------------------
   -.727E+01 0.229E+02 0.759E+02   -.728E-13 -.142E-12 -.318E-11   0.739E+01 -.229E+02 -.754E+02   -.757E-01 0.929E-01 -.502E+00
 
 
 POSITION                                       TOTAL-FORCE (eV/Angst)
 -----------------------------------------------------------------------------------
      5.10728      0.62190     10.39209        -0.316068     -0.330390      1.340332
      6.66988     -0.51718     10.14810         0.503443      0.522132      0.271497
      4.97408      1.01498     11.49708         0.380454     -0.401970     -1.354669
      7.20031     -1.38846      1.62732         0.019503     -0.044659      0.114669
      2.33567      1.42014      1.62732        -0.050542     -0.047873      0.147608
      4.76799      0.01584      1.62732        -0.027177     -0.016204      0.120915
      7.20031      1.42015      1.62732         0.018868      0.030884      0.121366
      2.33567      4.22875      1.62732        -0.022764      0.019763      0.145360
      4.76799      2.82445      1.62732         0.028838     -0.022236      0.197543
      2.33567      7.03734      1.62732         0.022471     -0.039169      0.021582
      4.76799      5.63304      1.62732         0.002192      0.043488      0.123298
      7.20031      4.22874      1.62732         0.036856      0.027198      0.070228
      1.52490      0.01584      3.92052        -0.156958      0.123506     -0.150174
      3.95722     -1.38846      3.92052         0.022197     -0.008847     -0.176500
      6.38953     -2.79276      3.92052         0.093006     -0.064261      0.022326
      1.52490      2.82445      3.92052        -0.023747     -0.035068      0.062382
      3.95722      1.42015      3.92052         0.029341      0.103524     -0.031697
      6.38953      0.01585      3.92052        -0.020347      0.019663      0.104225
      1.52490      5.63305      3.92052        -0.059080     -0.073669     -0.234912
      3.95722      4.22874      3.92052         0.071113     -0.030941      0.006112
      6.38953      2.82445      3.92052        -0.114197      0.091035     -0.147227
      0.70435      4.21766      6.21839        -0.009028     -0.026763     -0.138733
      3.13401      5.62368      6.18036         0.101485      0.013064     -0.072120
      5.55586     -1.37729      6.21464         0.018884      0.018445      0.143338
      0.68242      1.46651      6.24885         0.019371     -0.168997     -0.425445
      3.15146      0.01480      6.16114         0.006260     -0.076268      0.302629
      0.68936      7.01510      6.15076         0.050337      0.090189      0.348975
      5.56934      4.22659      6.22619         0.051023     -0.080678     -0.305452
      3.16322      2.82219      6.21777        -0.084108     -0.046388     -0.175908
      5.56897      1.40090      6.23312         0.053387      0.093073     -0.071023
      2.38154      4.21445      8.47353        -0.060633      0.003437     -0.018481
      4.76699      5.61624      8.47163        -0.014960     -0.036364     -0.031741
      2.34519      1.36981      8.44973        -0.105745      0.208247      0.111272
      7.22631      4.18177      8.47779        -0.175370      0.048517      0.145891
      2.34009      7.01197      8.43419        -0.076058     -0.093634      0.180549
      4.65120      0.03296      8.64648        -0.098622      0.220230     -0.423617
      7.27018      1.45392      8.50520        -0.097943     -0.184997     -0.150143
      7.25479     -1.48230      8.56068        -0.081959     -0.040413      0.250146
      4.78769      2.82759      8.56022         0.066277      0.193396     -0.444404
 -----------------------------------------------------------------------------------
    total drift:                                0.040213      0.129632      0.009372
  FORCES: max atom, RMS     1.463370    0.398459
  Number: max atom                 3
  FORCE total and by dimension    2.488377    1.354669


--------------------------------------------------------------------------------------------------------



  FREE ENERGIE OF THE ION-ELECTRON SYSTEM (eV)
  ---------------------------------------------------
  free  energy   TOTEN  =      -230.63077666 eV

  energy  without entropy=     -230.61424880  energy(sigma->0) =     -230.62526738
 
 d Force = 0.7082278E-01[ 0.455E-01, 0.961E-01]  d Energy = 0.7031544E-01 0.507E-03
 d Force =-0.1818438E+01[-0.172E+01,-0.191E+01]  d Ewald  =-0.1817949E+01-0.489E-03


--------------------------------------------------------------------------------------------------------


    POTLOK:  cpu time    0.1898: real time    0.2203


--------------------------------------------------------------------------------------------------------


 stress matrix after NEB project (eV)
    -35.87399      0.76705      1.62414
      0.76705    -38.89153     -0.44801
      1.62414     -0.44801     -5.75287
  FORCES: max atom, RMS     1.463370    0.398459
  FORCE total and by dimension    2.488377    1.354669
  Stress total and by dimension   53.286433   38.891532
 Quasi-Newton relaxation of ions (Broydens 2nd method)
  g(Force)  = 0.119E+00   g(Stress)= 0.000E+00

 retain information from N=  3 steps
 eigenvalues of (default step * inverse Hessian matrix)
  average eigenvalue of G=   2.3651
 eigenvalue spectrum of G is  2.8926  2.8926  1.3099
  RESET_HESSIAN           0


--------------------------------------------------------------------------------------------------------


    WAVPRE:  cpu time    0.0774: real time    0.1945
    FEWALD:  cpu time    0.0013: real time    0.0013

 real space projection operators:
  total allocation   :      13550.50 KBytes
  max/ min on nodes  :       6781.53       6768.97

    ORTHCH:  cpu time    1.4579: real time    1.4740
     LOOP+:  cpu time   97.0466: real time   98.1329


--------------------------------------- Iteration      5(   1)  ---------------------------------------


    POTLOK:  cpu time    0.1729: real time    0.2284
    SETDIJ:  cpu time    0.0103: real time    0.0104
