metal                                   
           1
     7.296955   -4.212899    0.000000
     0.000000    8.425798    0.000000
     0.000000    0.000000   21.879635
   C    O    Pt
   1   2  36
Direct configuration=     1
   0.70576703  0.43155253  0.47515579
   0.91007350  0.38797616  0.46036502
   0.67763048  0.45840842  0.52504432
   0.98675500  0.32859100  0.07437600
   0.32008800  0.32859100  0.07437600
   0.65342200  0.32859100  0.07437600
   0.98675500  0.66192500  0.07437600
   0.32008800  0.66192500  0.07437600
   0.65342200  0.66192500  0.07437600
   0.32008800  0.99525800  0.07437600
   0.65342200  0.99525800  0.07437600
   0.98675500  0.99525800  0.07437600
   0.20897700  0.10636900  0.17918600
   0.54231100  0.10636900  0.17918600
   0.87564400  0.10636900  0.17918600
   0.20897700  0.43970300  0.17918600
   0.54231100  0.43970300  0.17918600
   0.87564400  0.43970300  0.17918600
   0.20897700  0.77303600  0.17918600
   0.54231100  0.77303600  0.17918600
   0.87564400  0.77303600  0.17918600
   0.09731206  0.54917672  0.28499076
   0.42758521  0.88048376  0.28321886
   0.76190846  0.21694161  0.28343006
   0.09363804  0.22269867  0.28881764
   0.43146696  0.21921486  0.27997245
   0.09446127  0.87836661  0.27886728
   0.76244697  0.88514584  0.28620973
   0.43382693  0.55229660  0.28532235
   0.76198514  0.54555750  0.28482004
   0.32719033  0.66342568  0.38684186
   0.65381429  0.99374587  0.38702060
   0.32048701  0.32100867  0.38522420
   0.99319971  0.99420150  0.38655718
   0.32178618  0.99408994  0.38499569
   0.63966628  0.32121604  0.39725587
   0.99750580  0.67172740  0.38970544
   0.99163137  0.32367965  0.39216252
   0.65409780  0.66110706  0.39283366
Direct configuration=     2
   0.70326009  0.42957895  0.47511760
   0.91067304  0.39073896  0.46244954
   0.67915130  0.45938128  0.52530160
   0.98675500  0.32859100  0.07437600
   0.32008800  0.32859100  0.07437600
   0.65342200  0.32859100  0.07437600
   0.98675500  0.66192500  0.07437600
   0.32008800  0.66192500  0.07437600
   0.65342200  0.66192500  0.07437600
   0.32008800  0.99525800  0.07437600
   0.65342200  0.99525800  0.07437600
   0.98675500  0.99525800  0.07437600
   0.20897700  0.10636900  0.17918600
   0.54231100  0.10636900  0.17918600
   0.87564400  0.10636900  0.17918600
   0.20897700  0.43970300  0.17918600
   0.54231100  0.43970300  0.17918600
   0.87564400  0.43970300  0.17918600
   0.20897700  0.77303600  0.17918600
   0.54231100  0.77303600  0.17918600
   0.87564400  0.77303600  0.17918600
   0.09692908  0.54897517  0.28473047
   0.42829095  0.88121005  0.28291316
   0.76170233  0.21704261  0.28362160
   0.09340972  0.22217370  0.28763895
   0.43166117  0.21861941  0.28055678
   0.09434780  0.87880070  0.27970018
   0.76272919  0.88436327  0.28563235
   0.43386653  0.55219821  0.28489485
   0.76244652  0.54642700  0.28489212
   0.32694949  0.66349413  0.38706706
   0.65355712  0.99356295  0.38712778
   0.32108224  0.32181605  0.38561237
   0.99218645  0.99299760  0.38689829
   0.32143821  0.99363563  0.38510651
   0.63838936  0.32132072  0.39639027
   0.99715686  0.67180845  0.38932757
   0.99382382  0.32200237  0.39094792
   0.65489292  0.66189703  0.39235034
Direct configuration=     3
   0.70108657  0.42664175  0.47533491
   0.91242859  0.39347059  0.46338299
   0.68078276  0.46035085  0.52516342
   0.98675500  0.32859100  0.07437600
   0.32008800  0.32859100  0.07437600
   0.65342200  0.32859100  0.07437600
   0.98675500  0.66192500  0.07437600
   0.32008800  0.66192500  0.07437600
   0.65342200  0.66192500  0.07437600
   0.32008800  0.99525800  0.07437600
   0.65342200  0.99525800  0.07437600
   0.98675500  0.99525800  0.07437600
   0.20897700  0.10636900  0.17918600
   0.54231100  0.10636900  0.17918600
   0.87564400  0.10636900  0.17918600
   0.20897700  0.43970300  0.17918600
   0.54231100  0.43970300  0.17918600
   0.87564400  0.43970300  0.17918600
   0.20897700  0.77303600  0.17918600
   0.54231100  0.77303600  0.17918600
   0.87564400  0.77303600  0.17918600
   0.09664874  0.54889674  0.28441749
   0.42902703  0.88184439  0.28262273
   0.76146542  0.21715090  0.28385655
   0.09346277  0.22138036  0.28633964
   0.43180738  0.21801390  0.28117926
   0.09436338  0.87937831  0.28058154
   0.76302770  0.88361013  0.28498679
   0.43371644  0.55195094  0.28444669
   0.76292276  0.54733778  0.28491488
   0.32661578  0.66345578  0.38723065
   0.65336781  0.99335097  0.38719286
   0.32146211  0.32270604  0.38598874
   0.99106773  0.99192748  0.38725517
   0.32100069  0.99301265  0.38529932
   0.63768198  0.32193849  0.39562283
   0.99668047  0.67131125  0.38895439
   0.99425555  0.32146693  0.39102359
   0.65569255  0.66290138  0.39173553
Direct configuration=     4
   0.69991928  0.42376899  0.47496637
   0.91406373  0.39565172  0.46381489
   0.68166484  0.46129350  0.52546925
   0.98675500  0.32859100  0.07437600
   0.32008800  0.32859100  0.07437600
   0.65342200  0.32859100  0.07437600
   0.98675500  0.66192500  0.07437600
   0.32008800  0.66192500  0.07437600
   0.65342200  0.66192500  0.07437600
   0.32008800  0.99525800  0.07437600
   0.65342200  0.99525800  0.07437600
   0.98675500  0.99525800  0.07437600
   0.20897700  0.10636900  0.17918600
   0.54231100  0.10636900  0.17918600
   0.87564400  0.10636900  0.17918600
   0.20897700  0.43970300  0.17918600
   0.54231100  0.43970300  0.17918600
   0.87564400  0.43970300  0.17918600
   0.20897700  0.77303600  0.17918600
   0.54231100  0.77303600  0.17918600
   0.87564400  0.77303600  0.17918600
   0.09652679  0.54882837  0.28420915
   0.42949586  0.88218425  0.28247090
   0.76139491  0.21723592  0.28403775
   0.09352130  0.22081101  0.28560109
   0.43188637  0.21770019  0.28159244
   0.09447172  0.87980924  0.28111795
   0.76324147  0.88324619  0.28456548
   0.43349874  0.55169601  0.28418071
   0.76319050  0.54785857  0.28488229
   0.32637449  0.66337153  0.38727946
   0.65328501  0.99319561  0.38719254
   0.32139356  0.32327046  0.38619169
   0.99031889  0.99146491  0.38747398
   0.32069452  0.99255002  0.38548123
   0.63741673  0.32262055  0.39518379
   0.99633014  0.67072097  0.38872659
   0.99422182  0.32118692  0.39126256
   0.65612195  0.66364877  0.39124151
