       N       E                     dE             d eps       ncg     rms          rms(c)
DAV:   1     0.242136476767E+04    0.24214E+04   -0.15950E+05  1824   0.129E+03
DAV:   2    -0.650764700342E+02   -0.24864E+04   -0.23117E+04  2136   0.286E+02
DAV:   3    -0.240408150549E+03   -0.17533E+03   -0.15900E+03  2160   0.689E+01
DAV:   4    -0.247945879310E+03   -0.75377E+01   -0.72554E+01  2296   0.136E+01
DAV:   5    -0.248182976609E+03   -0.23710E+00   -0.23498E+00  2456   0.247E+00    0.273E+01
RMM:   6    -0.245529827275E+03    0.26531E+01   -0.54968E+01  1831   0.148E+01    0.286E+01
RMM:   7    -0.240126872662E+03    0.54030E+01   -0.31812E+01  1831   0.893E+00    0.194E+01
RMM:   8    -0.244223093323E+03   -0.40962E+01   -0.89007E+00  1826   0.474E+00    0.233E+01
RMM:   9    -0.231889447090E+03    0.12334E+02   -0.39125E+00  1830   0.318E+00    0.952E+00
RMM:  10    -0.230520036025E+03    0.13694E+01   -0.14764E+00  1831   0.198E+00    0.490E+00
RMM:  11    -0.230176953203E+03    0.34308E+00   -0.40564E-01  1831   0.101E+00    0.317E+00
RMM:  12    -0.230045359104E+03    0.13159E+00   -0.17497E-01  1839   0.660E-01    0.199E+00
RMM:  13    -0.230038296241E+03    0.70629E-02   -0.13727E-01  1831   0.615E-01    0.189E+00
RMM:  14    -0.229993045427E+03    0.45251E-01   -0.77559E-02  1831   0.484E-01    0.856E-01
RMM:  15    -0.229985435418E+03    0.76100E-02   -0.29670E-02  1831   0.296E-01    0.538E-01
RMM:  16    -0.229981839913E+03    0.35955E-02   -0.69016E-03  1830   0.142E-01    0.289E-01
RMM:  17    -0.229980962663E+03    0.87725E-03   -0.19916E-03  1820   0.761E-02    0.163E-01
RMM:  18    -0.229981087051E+03   -0.12439E-03   -0.80254E-04  1746   0.485E-02    0.131E-01
RMM:  19    -0.229981005791E+03    0.81260E-04   -0.36992E-04  1301   0.340E-02
   1 F= -.22998101E+03 E0= -.22997539E+03  d E =-.229981E+03
       N       E                     dE             d eps       ncg     rms          rms(c)
DAV:   1    -0.230234307429E+03   -0.25322E+00   -0.35845E+01  1852   0.107E+01    0.754E-01
RMM:   2    -0.230294149263E+03   -0.59842E-01   -0.57277E-01  1831   0.165E+00    0.973E-01
RMM:   3    -0.230300804443E+03   -0.66552E-02   -0.45094E-02  1866   0.372E-01    0.118E+00
RMM:   4    -0.230283965387E+03    0.16839E-01   -0.10137E-02  1849   0.167E-01    0.588E-01
RMM:   5    -0.230279750124E+03    0.42153E-02   -0.50980E-03  1834   0.120E-01    0.361E-01
RMM:   6    -0.230279403448E+03    0.34668E-03   -0.60023E-03  1829   0.130E-01    0.329E-01
RMM:   7    -0.230279034741E+03    0.36871E-03   -0.38553E-03  1828   0.105E-01    0.245E-01
RMM:   8    -0.230278351169E+03    0.68357E-03   -0.13398E-03  1818   0.633E-02    0.947E-02
RMM:   9    -0.230278259448E+03    0.91720E-04   -0.27377E-04  1070   0.300E-02
   2 F= -.23027826E+03 E0= -.23027112E+03  d E =-.297254E+00
       N       E                     dE             d eps       ncg     rms          rms(c)
DAV:   1    -0.230342925296E+03   -0.64574E-01   -0.22906E+01  1832   0.903E+00    0.687E-01
RMM:   2    -0.230408079783E+03   -0.65154E-01   -0.67356E-01  1849   0.145E+00    0.743E-01
RMM:   3    -0.230400109996E+03    0.79698E-02   -0.30315E-02  1853   0.298E-01    0.605E-01
RMM:   4    -0.230399639183E+03    0.47081E-03   -0.58655E-03  1844   0.129E-01    0.626E-01
RMM:   5    -0.230397101058E+03    0.25381E-02   -0.40335E-03  1833   0.102E-01    0.536E-01
RMM:   6    -0.230395380341E+03    0.17207E-02   -0.86166E-03  1829   0.149E-01    0.433E-01
RMM:   7    -0.230392788646E+03    0.25917E-02   -0.39708E-03  1827   0.106E-01    0.185E-01
RMM:   8    -0.230392457890E+03    0.33076E-03   -0.95742E-04  1811   0.530E-02    0.104E-01
RMM:   9    -0.230392306358E+03    0.15153E-03   -0.24197E-04  1048   0.285E-02    0.466E-02
RMM:  10    -0.230392305384E+03    0.97397E-06   -0.10429E-04   973   0.199E-02
   3 F= -.23039231E+03 E0= -.23038455E+03  d E =-.114046E+00
       N       E                     dE             d eps       ncg     rms          rms(c)
DAV:   1    -0.230532128036E+03   -0.13982E+00   -0.57198E+01  1824   0.138E+01    0.104E+00
RMM:   2    -0.230634145971E+03   -0.10202E+00   -0.10351E+00  1835   0.216E+00    0.116E+00
RMM:   3    -0.230644821405E+03   -0.10675E-01   -0.72733E-02  1856   0.476E-01    0.149E+00
RMM:   4    -0.230618788424E+03    0.26033E-01   -0.16579E-02  1850   0.213E-01    0.840E-01
RMM:   5    -0.230611046641E+03    0.77418E-02   -0.11887E-02  1829   0.183E-01    0.536E-01
RMM:   6    -0.230609652572E+03    0.13941E-02   -0.12805E-02  1830   0.192E-01    0.456E-01
RMM:   7    -0.230608194465E+03    0.14581E-02   -0.60973E-03  1833   0.131E-01    0.329E-01
RMM:   8    -0.230606917041E+03    0.12774E-02   -0.22002E-03  1825   0.806E-02    0.136E-01
RMM:   9    -0.230606669724E+03    0.24732E-03   -0.49388E-04  1467   0.388E-02    0.679E-02
RMM:  10    -0.230606629826E+03    0.39898E-04   -0.13979E-04   972   0.222E-02
   4 F= -.23060663E+03 E0= -.23059777E+03  d E =-.214324E+00
       N       E                     dE             d eps       ncg     rms          rms(c)
DAV:   1    -0.230646353387E+03   -0.39684E-01   -0.45078E+00  1832   0.412E+00    0.313E-01
RMM:   2    -0.230657986537E+03   -0.11633E-01   -0.93484E-02  1837   0.610E-01    0.472E-01
RMM:   3    -0.230657567752E+03    0.41879E-03   -0.61280E-03  1867   0.137E-01    0.467E-01
RMM:   4    -0.230654799440E+03    0.27683E-02   -0.20763E-03  1834   0.766E-02    0.230E-01
RMM:   5    -0.230654200547E+03    0.59889E-03   -0.82876E-04  1800   0.499E-02    0.127E-01
RMM:   6    -0.230654246820E+03   -0.46273E-04   -0.71627E-04  1732   0.460E-02    0.121E-01
RMM:   7    -0.230654190725E+03    0.56096E-04   -0.50162E-04  1452   0.388E-02    0.997E-02
RMM:   8    -0.230654096462E+03    0.94263E-04   -0.15571E-04  1011   0.235E-02
   5 F= -.23065410E+03 E0= -.23064517E+03  d E =-.474666E-01
       N       E                     dE             d eps       ncg     rms          rms(c)
