 vasp.5.4.4 16052018 (build Apr 24 2014 20:13:14) complex standard
 Contain Constrained Minimization Technique (TS), Periodic NBO, VASPsol, libbeef, VASP2WANNIER90, Constrained Cell Relaxation
 executed on Center for Computational Chemistry by phu@node09 date 2025.11.24 21:46:53
 running on    8 total cores
 distrk:  each k-point on    8 cores,    1 groups
 distr:  one band on NCORES_PER_BAND=   2 cores,    4 groups


--------------------------------------------------------------------------------------------------------


 INCAR:
 POTCAR:   PAW_PBE C 08Apr2002                    
 POTCAR:   PAW_PBE O 08Apr2002                    
 POTCAR:    PAW_PBE Pt 04Feb2005                  
 POTCAR:   PAW_PBE C 08Apr2002                    
   VRHFIN =C: s2p2                                                              
   LEXCH  = PE                                                                  
   EATOM  =   147.1560 eV,   10.8157 Ry                                         
                                                                                
   TITEL  = PAW_PBE C 08Apr2002                                                 
   LULTRA =        F    use ultrasoft PP ?                                      
   IUNSCR =        0    unscreen: 0-lin 1-nonlin 2-no                           
   RPACOR =     .000    partial core radius                                     
   POMASS =   12.011; ZVAL   =    4.000    mass and valenz                      
   RCORE  =    1.500    outmost cutoff radius                                   
   RWIGS  =    1.630; RWIGS  =     .863    wigner-seitz radius (au A)           
   ENMAX  =  400.000; ENMIN  =  300.000 eV                                      
   ICORE  =        2    local potential                                         
   LCOR   =        T    correct aug charges                                     
   LPAW   =        T    paw PP                                                  
   EAUG   =  644.873                                                            
   DEXC   =     .000                                                            
   RMAX   =    2.266    core radius for proj-oper                               
   RAUG   =    1.300    factor for augmentation sphere                          
   RDEP   =    1.501    radius for radial grids                                 
   RDEPT  =    1.300    core radius for aug-charge                              
   QCUT   =   -5.516; QGAM   =   11.032    optimization parameters              
                                                                                
   Description                                                                  
     l     E      TYP  RCUT    TYP  RCUT                                        
     0   .000     23  1.200                                                     
     0   .000     23  1.200                                                     
     1   .000     23  1.500                                                     
     1  2.500     23  1.500                                                     
     2   .000      7  1.500                                                     
  local pseudopotential read in
  atomic valenz-charges read in
  non local Contribution for L=           0  read in
    real space projection operators read in
  non local Contribution for L=           0  read in
    real space projection operators read in
  non local Contribution for L=           1  read in
    real space projection operators read in
  non local Contribution for L=           1  read in
    real space projection operators read in
    PAW grid and wavefunctions read in
 
   number of l-projection  operators is LMAX  =           4
   number of lm-projection operators is LMMAX =           8
 
 POTCAR:   PAW_PBE O 08Apr2002                    
   VRHFIN =O: s2p4                                                              
   LEXCH  = PE                                                                  
   EATOM  =   432.3788 eV,   31.7789 Ry                                         
                                                                                
   TITEL  = PAW_PBE O 08Apr2002                                                 
   LULTRA =        F    use ultrasoft PP ?                                      
   IUNSCR =        0    unscreen: 0-lin 1-nonlin 2-no                           
   RPACOR =     .000    partial core radius                                     
   POMASS =   16.000; ZVAL   =    6.000    mass and valenz                      
   RCORE  =    1.520    outmost cutoff radius                                   
   RWIGS  =    1.550; RWIGS  =     .820    wigner-seitz radius (au A)           
   ENMAX  =  400.000; ENMIN  =  300.000 eV                                      
   ICORE  =        2    local potential                                         
   LCOR   =        T    correct aug charges                                     
   LPAW   =        T    paw PP                                                  
   EAUG   =  605.392                                                            
   DEXC   =     .000                                                            
   RMAX   =    2.264    core radius for proj-oper                               
   RAUG   =    1.300    factor for augmentation sphere                          
   RDEP   =    1.550    radius for radial grids                                 
   QCUT   =   -5.520; QGAM   =   11.041    optimization parameters              
                                                                                
   Description                                                                  
     l     E      TYP  RCUT    TYP  RCUT                                        
     0   .000     23  1.200                                                     
     0  -.700     23  1.200                                                     
     1   .000     23  1.520                                                     
     1   .600     23  1.520                                                     
     2   .000      7  1.500                                                     
  local pseudopotential read in
  atomic valenz-charges read in
  non local Contribution for L=           0  read in
    real space projection operators read in
  non local Contribution for L=           0  read in
    real space projection operators read in
  non local Contribution for L=           1  read in
    real space projection operators read in
  non local Contribution for L=           1  read in
    real space projection operators read in
    PAW grid and wavefunctions read in
 
   number of l-projection  operators is LMAX  =           4
   number of lm-projection operators is LMMAX =           8
 
 POTCAR:    PAW_PBE Pt 04Feb2005                  
   VRHFIN =Pt: s1d9                                                             
   LEXCH  = PE                                                                  
   EATOM  =   729.1182 eV,   53.5887 Ry                                         
                                                                                
   TITEL  = PAW_PBE Pt 04Feb2005                                                
   LULTRA =        F    use ultrasoft PP ?                                      
   IUNSCR =        1    unscreen: 0-lin 1-nonlin 2-no                           
   RPACOR =    2.330    partial core radius                                     
   POMASS =  195.080; ZVAL   =   10.000    mass and valenz                      
   RCORE  =    2.600    outmost cutoff radius                                   
   RWIGS  =    2.750; RWIGS  =    1.455    wigner-seitz radius (au A)           
   ENMAX  =  230.283; ENMIN  =  172.712 eV                                      
   ICORE  =        3    local potential                                         
   LCOR   =        T    correct aug charges                                     
   LPAW   =        T    paw PP                                                  
   EAUG   =  358.966                                                            
   DEXC   =     .000                                                            
   RMAX   =    3.038    core radius for proj-oper                               
   RAUG   =    1.300    factor for augmentation sphere                          
   RDEP   =    2.761    radius for radial grids                                 
   QCUT   =   -4.114; QGAM   =    8.228    optimization parameters              
                                                                                
   Description                                                                  
     l     E      TYP  RCUT    TYP  RCUT                                        
     2   .000     23  2.500                                                     
     2   .000     23  2.500                                                     
     0   .000     23  2.500                                                     
     0   .000     23  2.500                                                     
     1  -.200     23  2.600                                                     
     1  1.500     23  2.600                                                     
     3   .000     23  2.500                                                     
  local pseudopotential read in
  partial core-charges read in
  atomic valenz-charges read in
  non local Contribution for L=           2  read in
    real space projection operators read in
  non local Contribution for L=           2  read in
    real space projection operators read in
  non local Contribution for L=           0  read in
    real space projection operators read in
  non local Contribution for L=           0  read in
    real space projection operators read in
  non local Contribution for L=           1  read in
    real space projection operators read in
  non local Contribution for L=           1  read in
    real space projection operators read in
    PAW grid and wavefunctions read in
 
   number of l-projection  operators is LMAX  =           6
   number of lm-projection operators is LMMAX =          18
 
 Optimization of the real space projectors (new method)

 maximal supplied QI-value         = 25.13
 optimisation between [QCUT,QGAM] = [ 10.81, 21.61] = [ 32.71,130.83] Ry 
 Optimized for a Real-space Cutoff    1.23 Angstroem

   l    n(q)    QCUT    max X(q) W(low)/X(q) W(high)/X(q)  e(spline) 
   0      8    10.807     5.582    0.53E-04    0.84E-04    0.44E-07
   0      8    10.807    69.432    0.35E-03    0.71E-03    0.24E-06
   1      7    10.807     2.780    0.44E-04    0.88E-04    0.89E-07
   1      7    10.807     4.549    0.14E-03    0.28E-03    0.13E-06
 Optimization of the real space projectors (new method)

 maximal supplied QI-value         = 24.76
 optimisation between [QCUT,QGAM] = [ 10.64, 21.54] = [ 31.73,129.89] Ry 
 Optimized for a Real-space Cutoff    1.23 Angstroem

   l    n(q)    QCUT    max X(q) W(low)/X(q) W(high)/X(q)  e(spline) 
   0      8    10.645     4.192    0.69E-04    0.93E-04    0.58E-07
   0      8    10.645     8.473    0.40E-03    0.65E-03    0.17E-06
   1      7    10.645     2.474    0.80E-04    0.12E-03    0.30E-07
   1      7    10.645     3.912    0.24E-03    0.53E-03    0.16E-06
 Optimization of the real space projectors (new method)

 maximal supplied QI-value         = 14.36
 optimisation between [QCUT,QGAM] = [ 10.77, 21.69] = [ 32.49,131.70] Ry 
 Optimized for a Real-space Cutoff    1.46 Angstroem

   l    n(q)    QCUT    max X(q) W(low)/X(q) W(high)/X(q)  e(spline) 
   2      9    10.771     3.903    0.38E-04    0.12E-03    0.82E-07
   2      9    10.771    18.372    0.13E-03    0.32E-03    0.28E-06
   0     10    10.771    13.697    0.11E-04    0.86E-05    0.85E-08
   0     10    10.771    65.529    0.40E-04    0.12E-03    0.14E-06
   1      9    10.771     7.604    0.48E-04    0.31E-04    0.38E-07
   1      9    10.771    12.136    0.35E-03    0.16E-03    0.23E-06
 PAW_PBE C 08Apr2002                    :
 energy of atom  1       EATOM= -147.1560
 kinetic energy error for atom=    0.0116 (will be added to EATOM!!)
 PAW_PBE O 08Apr2002                    :
 energy of atom  2       EATOM= -432.3788
 kinetic energy error for atom=    0.0389 (will be added to EATOM!!)
  PAW_PBE Pt 04Feb2005                  :
 energy of atom  3       EATOM= -729.1182
 kinetic energy error for atom=    0.0051 (will be added to EATOM!!)
 
 
 POSCAR: C    O    Pt                            
  positions in direct lattice
  No initial velocities read in
 exchange correlation table for  LEXCH =        8
   RHO(1)=    0.500       N(1)  =     2000
   RHO(2)=  100.500       N(2)  =     4000

 VTST: version 3.2, (02/03/18)

 CHAIN: initializing optimizer
 
 OPT: Using VASP QUASI-newton optimizer
 CHAIN: Read ICHAIN            0
 
 POSCAR: C    O    Pt                            
  positions in direct lattice
  No initial velocities read in
 


--------------------------------------------------------------------------------------------------------


 ion  position               nearest neighbor table
   1  0.697  0.435  0.474-   3 1.16  36 2.02
   2  0.905  0.383  0.463-  38 1.90  36 2.57
   3  0.669  0.462  0.524-   1 1.16
   4  0.987  0.329  0.074-  15 2.81  16 2.81  12 2.81   5 2.81  11 2.81   6 2.81  18 2.81   8 2.81
                             7 2.81
   5  0.320  0.329  0.074-  13 2.81  10 2.81   4 2.81  12 2.81  16 2.81  17 2.81   8 2.81   9 2.81
                             6 2.81
   6  0.653  0.329  0.074-  14 2.81  18 2.81  11 2.81   4 2.81  17 2.81   7 2.81  10 2.81   9 2.81
                             5 2.81
   7  0.987  0.662  0.074-  18 2.81  21 2.81  19 2.81  12 2.81   8 2.81  10 2.81   9 2.81   6 2.81
                             4 2.81
   8  0.320  0.662  0.074-  16 2.81  19 2.81  10 2.81   7 2.81  20 2.81   4 2.81  11 2.81   5 2.81
                             9 2.81
   9  0.653  0.662  0.074-  17 2.81  20 2.81  21 2.81  11 2.81  12 2.81   7 2.81   6 2.81   5 2.81
                             8 2.81
  10  0.320  0.995  0.074-  13 2.81  19 2.81   5 2.81   8 2.81  12 2.81   7 2.81  14 2.81   6 2.81
                            11 2.81
  11  0.653  0.995  0.074-  14 2.81  20 2.81  15 2.81   9 2.81   6 2.81  12 2.81   4 2.81   8 2.81
                            10 2.81
  12  0.987  0.995  0.074-  15 2.81  21 2.81  13 2.81   7 2.81   4 2.81  10 2.81   5 2.81  11 2.81
                             9 2.81
  13  0.209  0.106  0.179-  27 2.80  25 2.80   5 2.81  10 2.81  12 2.81  19 2.81  15 2.81  21 2.81
                            16 2.81  14 2.81  17 2.81  26 2.91
  14  0.542  0.106  0.179-  24 2.72  11 2.81   6 2.81  20 2.81  15 2.81  10 2.81  18 2.81  19 2.81
                            17 2.81  13 2.81  23 2.86  26 2.87
  15  0.876  0.106  0.179-  24 2.74  25 2.76  28 2.80  12 2.81   4 2.81  11 2.81  21 2.81  13 2.81
                            14 2.81  20 2.81  16 2.81  18 2.81
  16  0.209  0.440  0.179-  22 2.68  29 2.75  25 2.80   8 2.81   4 2.81  19 2.81  18 2.81   5 2.81
                            15 2.81  20 2.81  13 2.81  17 2.81
  17  0.542  0.440  0.179-  29 2.73   9 2.81  20 2.81  21 2.81  18 2.81   6 2.81   5 2.81  14 2.81
                            13 2.81  16 2.81  30 2.88  26 2.88
  18  0.876  0.440  0.179-  24 2.73  22 2.73   7 2.81   6 2.81  21 2.81  19 2.81  16 2.81  17 2.81
                             4 2.81  14 2.81  15 2.81  30 2.85
  19  0.209  0.773  0.179-  22 2.75  10 2.81   8 2.81   7 2.81  16 2.81  13 2.81  21 2.81  18 2.81
                            14 2.81  20 2.81  27 2.82  23 2.83
  20  0.542  0.773  0.179-  29 2.77  28 2.78   9 2.81  11 2.81  17 2.81  14 2.81  15 2.81  21 2.81
                             8 2.81  16 2.81  19 2.81  23 2.83
  21  0.876  0.773  0.179-  28 2.77  27 2.81   7 2.81  12 2.81   9 2.81  18 2.81  15 2.81  19 2.81
                            13 2.81  17 2.81  20 2.81  30 2.86
  22  0.100  0.545  0.279-  16 2.68  18 2.73  25 2.74  19 2.75  29 2.79  23 2.80  24 2.80  37 2.82
                            30 2.84  27 2.89  31 2.91  38 3.02
  23  0.429  0.879  0.286-  31 2.75  22 2.80  28 2.82  29 2.82  32 2.82  27 2.83  26 2.83  20 2.83
                            19 2.83  35 2.83  24 2.84  14 2.86
  24  0.763  0.218  0.279-  14 2.72  18 2.73  15 2.74  26 2.75  25 2.79  30 2.79  22 2.80  23 2.84
                            28 2.85  36 2.92  32 2.97  38 3.03
  25  0.092  0.216  0.283-  22 2.74  33 2.74  15 2.76  24 2.79  28 2.79  16 2.80  27 2.80  13 2.80
                            29 2.82  38 2.83  34 2.88  26 2.90
  26  0.438  0.219  0.288-  33 2.62  36 2.68  24 2.75  29 2.79  35 2.79  30 2.79  23 2.83  27 2.84
                            14 2.87  17 2.88  25 2.90  13 2.91
  27  0.097  0.886  0.284-  37 2.66  28 2.78  25 2.80  30 2.80  13 2.80  21 2.81  19 2.82  23 2.83
                            34 2.84  26 2.84  35 2.84  22 2.89
  28  0.764  0.880  0.282-  21 2.77  39 2.77  20 2.78  27 2.78  30 2.79  25 2.79  15 2.80  29 2.81
                            23 2.82  24 2.85  32 2.88  34 2.89
  29  0.432  0.546  0.281-  17 2.73  16 2.75  33 2.76  20 2.77  22 2.79  26 2.79  28 2.81  30 2.81
                            23 2.82  25 2.82  39 2.83  31 2.87
  30  0.768  0.551  0.287-  37 2.65  39 2.72  28 2.79  26 2.79  24 2.79  27 2.80  29 2.81  36 2.82
                            22 2.84  18 2.85  21 2.86  17 2.88
  31  0.325  0.663  0.389-  32 2.75  23 2.75  39 2.78  35 2.82  37 2.82  33 2.85  38 2.85  29 2.87
                            22 2.91
  32  0.652  0.988  0.391-  31 2.75  39 2.75  34 2.81  23 2.82  38 2.83  35 2.84  36 2.84  28 2.88
                            24 2.97
  33  0.320  0.323  0.383-  26 2.62  38 2.71  36 2.73  25 2.74  29 2.76  35 2.78  34 2.80  31 2.85
                            39 2.85
  34  0.987  0.993  0.392-  38 2.69  37 2.75  35 2.78  39 2.79  33 2.80  32 2.81  27 2.84  25 2.88
                            28 2.89
  35  0.318  0.993  0.391-  37 2.73  36 2.74  33 2.78  34 2.78  26 2.79  31 2.82  23 2.83  32 2.84
                            27 2.84
  36  0.641  0.320  0.390-   1 2.02   2 2.57  26 2.68  33 2.73  35 2.74  30 2.82  32 2.84  39 2.84
                            24 2.92  37 2.98  38 3.01
  37  0.994  0.671  0.382-  30 2.65  27 2.66  35 2.73  34 2.75  22 2.82  31 2.82  39 2.83  36 2.98
                            38 3.01
  38  0.996  0.316  0.394-   2 1.90  34 2.69  33 2.71  25 2.83  32 2.83  31 2.85  36 3.01  37 3.01
                            22 3.02  24 3.03
  39  0.655  0.663  0.386-  30 2.72  32 2.75  28 2.77  31 2.78  34 2.79  37 2.83  29 2.83  36 2.84
                            33 2.85
 

IMPORTANT INFORMATION: All symmetrisations will be switched off!
NOSYMM: (Re-)initialisation of all symmetry stuff for point group C_1.

 
 
 KPOINTS: mesh auto                               

Automatic generation of k-mesh.
Space group operators:
 irot       det(A)        alpha          n_x          n_y          n_z        tau_x        tau_y        tau_z
    1     1.000000     0.000000     1.000000     0.000000     0.000000     0.000000     0.000000     0.000000
 
 Subroutine IBZKPT returns following result:
 ===========================================
 
 Found      4 irreducible k-points:
 
 Following reciprocal coordinates:
            Coordinates               Weight
  0.000000  0.000000  0.000000      1.000000
  0.500000  0.000000  0.000000      1.000000
 -0.000000  0.500000  0.000000      1.000000
  0.500000  0.500000  0.000000      1.000000
 
 Following cartesian coordinates:
            Coordinates               Weight
  0.000000  0.000000  0.000000      1.000000
  0.068522  0.000000  0.000000      1.000000
  0.034261  0.059342  0.000000      1.000000
  0.102783  0.059342  0.000000      1.000000
 


--------------------------------------------------------------------------------------------------------




 Dimension of arrays:
   k-points           NKPTS =      4   k-points in BZ     NKDIM =      4   number of bands    NBANDS=    228
   number of dos      NEDOS =    301   number of ions     NIONS =     39
   non local maximal  LDIM  =      6   non local SUM 2l+1 LMDIM =     18
   total plane-waves  NPLWV = 276480
   max r-space proj   IRMAX =   2756   max aug-charges    IRDMAX=  12646
   dimension x,y,z NGX =    48 NGY =   48 NGZ =  120
   dimension x,y,z NGXF=    96 NGYF=   96 NGZF=  240
   support grid    NGXF=    96 NGYF=   96 NGZF=  240
   ions per type =               1   2  36
   NGX,Y,Z   is equivalent  to a cutoff of   9.47,  9.47,  9.12 a.u.
   NGXF,Y,Z  is equivalent  to a cutoff of  18.94, 18.94, 18.24 a.u.

 SYSTEM =  metal                                   
 POSCAR =  C    O    Pt                            

 Startparameter for this run:
   NWRITE =      2    write-flag & timer
   PREC   = normal    normal or accurate (medium, high low for compatibility)
   ISTART =      0    job   : 0-new  1-cont  2-samecut
   ICHARG =      2    charge: 1-file 2-atom 10-const
   ISPIN  =      1    spin polarized calculation?
   LNONCOLLINEAR =      F non collinear calculations
   LSORBIT =      F    spin-orbit coupling
   INIWAV =      1    electr: 0-lowe 1-rand  2-diag
   LASPH  =      F    aspherical Exc in radial PAW
   METAGGA=      F    non-selfconsistent MetaGGA calc.

 Electronic Relaxation 1
   ENCUT  =  450.0 eV  33.07 Ry    5.75 a.u.  14.57 14.57 37.84*2*pi/ulx,y,z
   ENINI  =  450.0     initial cutoff
   ENAUG  =  644.9 eV  augmentation charge cutoff
   NELM   =     60;   NELMIN=  8; NELMDL= -5     # of ELM steps 
   EDIFF  = 0.1E-03   stopping-criterion for ELM
   LREAL  =      T    real-space projection
   NLSPLINE    = F    spline interpolate recip. space projectors
   LCOMPAT=      F    compatible to vasp.4.4
   GGA_COMPAT  = T    GGA compatible to vasp.4.4-vasp.4.6
   LMAXPAW     = -100 max onsite density
   LMAXMIX     =    2 max onsite mixed and CHGCAR
   VOSKOWN=      0    Vosko Wilk Nusair interpolation
   ROPT   =   -0.00050  -0.00050  -0.00050
 Ionic relaxation
   EDIFFG = -.5E-01   stopping-criterion for IOM
   NSW    =   5000    number of steps for IOM
   NBLOCK =      1;   KBLOCK =   5000    inner block; outer block 
   IBRION =      1    ionic relax: 0-MD 1-quasi-New 2-CG
   NFREE  =      0    steps in history (QN), initial steepest desc. (CG)
   ISIF   =      2    stress and relaxation
   IWAVPR =     11    prediction:  0-non 1-charg 2-wave 3-comb
   ISYM   =      0    0-nonsym 1-usesym 2-fastsym
   LCORR  =      T    Harris-Foulkes like correction to forces

   POTIM  = 0.2000    time-step for ionic-motion
   TEIN   =    0.0    initial temperature
   TEBEG  =    0.0;   TEEND  =   0.0 temperature during run
   SMASS  =  -3.00    Nose mass-parameter (am)
   estimated Nose-frequenzy (Omega)   =  0.10E-29 period in steps =****** mass=  -0.162E-26a.u.
   SCALEE = 1.0000    scale energy and forces
   NPACO  =    256;   APACO  = 16.0  distance and # of slots for P.C.
   PSTRESS=    0.0 pullay stress

  Mass of Ions in am
   POMASS =  12.01 16.00195.08
  Ionic Valenz
   ZVAL   =   4.00  6.00 10.00
  Atomic Wigner-Seitz radii
   RWIGS  =  -1.00 -1.00 -1.00
  virtual crystal weights 
   VCA    =   1.00  1.00  1.00
   NELECT =     376.0000    total number of electrons
   NUPDOWN=      -1.0000    fix difference up-down

 DOS related values:
   EMIN   =  10.00;   EMAX   =-10.00  energy-range for DOS
   EFERMI =   0.00
   ISMEAR =     1;   SIGMA  =   0.20  broadening in eV -4-tet -1-fermi 0-gaus

 Electronic relaxation 2 (details)
   IALGO  =     68    algorithm
   LDIAG  =      T    sub-space diagonalisation (order eigenvalues)
   LSUBROT=      F    optimize rotation matrix (better conditioning)
   TURBO    =      0    0=normal 1=particle mesh
   IRESTART =      0    0=no restart 2=restart with 2 vectors
   NREBOOT  =      0    no. of reboots
   NMIN     =      0    reboot dimension
   EREF     =   0.00    reference energy to select bands
   IMIX   =      4    mixing-type and parameters
     AMIX     =   0.40;   BMIX     =  1.00
     AMIX_MAG =   1.60;   BMIX_MAG =  1.00
     AMIN     =   0.10
     WC   =   100.;   INIMIX=   1;  MIXPRE=   1;  MAXMIX= -45

 Intra band minimization:
   WEIMIN = 0.0010     energy-eigenvalue tresh-hold
   EBREAK =  0.11E-06  absolut break condition
   DEPER  =   0.30     relativ break condition  

   TIME   =   0.40     timestep for ELM

  volume/ion in A,a.u.               =      34.49       232.77
  Fermi-wavevector in a.u.,A,eV,Ry     =   1.070385  2.022734 15.588510  1.145723
  Thomas-Fermi vector in A             =   2.206093
 
 Write flags
   LWAVE        =      F    write WAVECAR
   LDOWNSAMPLE  =      F    k-point downsampling of WAVECAR
   LCHARG       =      F    write CHGCAR
   LVTOT        =      F    write LOCPOT, total local potential
   LVHAR        =      F    write LOCPOT, Hartree potential only
   LELF         =      F    write electronic localiz. function (ELF)
   LORBIT       =      0    0 simple, 1 ext, 2 COOP (PROOUT), +10 PAW based schemes


 Dipole corrections
   LMONO  =      F    monopole corrections only (constant potential shift)
   LDIPOL =      F    correct potential (dipole corrections)
   IDIPOL =      0    1-x, 2-y, 3-z, 4-all directions 
   EPSILON=  1.0000000 bulk dielectric constant

 Exchange correlation treatment:
   GGA     =    --    GGA type
   LEXCH   =     8    internal setting for exchange type
   VOSKOWN=      0    Vosko Wilk Nusair interpolation
   LHFCALC =     F    Hartree Fock is set to
   LHFONE  =     F    Hartree Fock one center treatment
   AEXX    =    0.0000 exact exchange contribution

 Linear response parameters
   LEPSILON=     F    determine dielectric tensor
   LRPA    =     F    only Hartree local field effects (RPA)
   LNABLA  =     F    use nabla operator in PAW spheres
   LVEL    =     F    velocity operator in full k-point grid
   LINTERFAST=   F  fast interpolation
   KINTER  =     0    interpolate to denser k-point grid
   CSHIFT  =0.1000    complex shift for real part using Kramers Kronig
   OMEGAMAX=  -1.0    maximum frequency
   DEG_THRESHOLD= 0.2000000E-02 threshold for treating states as degnerate
   RTIME   =   -0.100 relaxation time in fs
  (WPLASMAI=    0.000 imaginary part of plasma frequency in eV, 0.658/RTIME)
   DFIELD  = 0.0000000 0.0000000 0.0000000 field for delta impulse in time
 
 Orbital magnetization related:
   ORBITALMAG=     F  switch on orbital magnetization
   LCHIMAG   =     F  perturbation theory with respect to B field
   DQ        =  0.001000  dq finite difference perturbation B field
   LLRAUG    =     F  two centre corrections for induced B field



--------------------------------------------------------------------------------------------------------


 quasi-Newton-method for relaxation of ions
   using selective dynamics as specified on POSCAR
 charge density and potential will be updated during run
 non-spin polarized calculation
 RMM-DIIS sequential band-by-band and
  variant of blocked Davidson during initial phase
 perform sub-space diagonalisation
    before iterative eigenvector-optimisation
 modified Broyden-mixing scheme, WC =      100.0
 initial mixing is a Kerker type mixing with AMIX =  0.4000 and BMIX =      1.0000
 Hartree-type preconditioning will be used
 using additional bands           40
 real space projection scheme for non local part
 use partial core corrections
 calculate Harris-corrections to forces 
   (improved forces if not selfconsistent)
 use gradient corrections 
 use of overlap-Matrix (Vanderbilt PP)
 Methfessel and Paxton  Order N= 1 SIGMA  =   0.20


--------------------------------------------------------------------------------------------------------


  energy-cutoff  :      450.00
  volume of cell :     1345.22
      direct lattice vectors                 reciprocal lattice vectors
     7.296955120 -4.212899000  0.000000000     0.137043463  0.000000000  0.000000000
     0.000000000  8.425798000  0.000000000     0.068521732  0.118683121  0.000000000
     0.000000000  0.000000000 21.879635000     0.000000000  0.000000000  0.045704602

  length of vectors
     8.425798004  8.425798000 21.879635000     0.137043463  0.137043463  0.045704602


 
 k-points in units of 2pi/SCALE and weight: mesh auto                               
   0.00000000  0.00000000  0.00000000       0.250
   0.06852173  0.00000000  0.00000000       0.250
   0.03426087  0.05934156  0.00000000       0.250
   0.10278260  0.05934156  0.00000000       0.250
 
 k-points in reciprocal lattice and weights: mesh auto                               
   0.00000000  0.00000000  0.00000000       0.250
   0.50000000  0.00000000  0.00000000       0.250
  -0.00000000  0.50000000  0.00000000       0.250
   0.50000000  0.50000000  0.00000000       0.250
 
 position of ions in fractional coordinates (direct lattice) 
   0.69724373  0.43492883  0.47420139
   0.90531288  0.38338154  0.46326983
   0.66910719  0.46178472  0.52408993
   0.98675500  0.32859100  0.07437600
   0.32008800  0.32859100  0.07437600
   0.65342200  0.32859100  0.07437600
   0.98675500  0.66192500  0.07437600
   0.32008800  0.66192500  0.07437600
   0.65342200  0.66192500  0.07437600
   0.32008800  0.99525800  0.07437600
   0.65342200  0.99525800  0.07437600
   0.98675500  0.99525800  0.07437600
   0.20897700  0.10636900  0.17918600
   0.54231100  0.10636900  0.17918600
   0.87564400  0.10636900  0.17918600
   0.20897700  0.43970300  0.17918600
   0.54231100  0.43970300  0.17918600
   0.87564400  0.43970300  0.17918600
   0.20897700  0.77303600  0.17918600
   0.54231100  0.77303600  0.17918600
   0.87564400  0.77303600  0.17918600
   0.10042033  0.54479089  0.27891265
   0.42924874  0.87924507  0.28574158
   0.76270253  0.21797730  0.27944200
   0.09229083  0.21556994  0.28277428
   0.43785996  0.21894379  0.28833018
   0.09742960  0.88626522  0.28407119
   0.76447273  0.88047520  0.28245915
   0.43166110  0.54596611  0.28079179
   0.76786405  0.55130623  0.28707199
   0.32505120  0.66302486  0.38877680
   0.65178049  0.98830746  0.39135767
   0.31973949  0.32302416  0.38255150
   0.98709973  0.99288814  0.39168793
   0.31775916  0.99341408  0.39109985
   0.64090777  0.31952808  0.39037587
   0.99431828  0.67101282  0.38194233
   0.99570028  0.31604889  0.39406108
   0.65506373  0.66328949  0.38643805
 
 position of ions in cartesian coordinates  (Angst):
   5.08775624  0.72720506 10.37535343
   6.60602743 -0.58369626 10.13617476
   4.88244513  1.07202372 11.46689630
   7.20030695 -1.38845776  1.62731973
   2.33566777  1.42014298  1.62731973
   4.76799101  0.01584050  1.62731973
   7.20030695  1.42014719  1.62731973
   2.33566777  4.22874793  1.62731973
   4.76799101  2.82444545  1.62731973
   2.33566777  7.03734445  1.62731973
   4.76799101  5.63304198  1.62731973
   7.20030695  4.22874371  1.62731973
   1.52489579  0.01584471  3.92052428
   3.95721903 -1.38845776  3.92052428
   6.38953497 -2.79275602  3.92052428
   1.52489579  2.82444966  3.92052428
   3.95721903  1.42014719  3.92052428
   6.38953497  0.01584893  3.92052428
   1.52489579  5.63304619  3.92052428
   3.95721903  4.22874371  3.92052428
   6.38953497  2.82444545  3.92052428
   0.73276266  4.16723726  6.10250693
   3.13220879  5.59995973  6.25192137
   5.56540610 -1.37655598  6.11408894
   0.67344201  1.42753684  6.18699793
   3.19504446  0.00011635  6.30855899
   0.71093939  7.05703063  6.21537400
   5.57832322  4.19805977  6.18010301
   3.14981165  2.78165554  6.14362192
   5.60306948  1.41026129  6.28103034
   2.37188398  4.21710566  8.50629455
   4.75601295  5.58139367  8.56276293
   2.33312469  1.37470613  8.37008709
   7.20282243  4.20732340  8.56998883
   2.31867436  7.03161907  8.55712200
   4.67667522 -0.00780063  8.54128146
   7.25549584  1.46485601  8.35675877
   7.26558029 -1.53182061  8.62191256
   4.77997063  2.82902593  8.45512350
 


--------------------------------------------------------------------------------------------------------


 k-point  1 :   0.0000 0.0000 0.0000  plane waves:   29241
 k-point  2 :   0.5000 0.0000 0.0000  plane waves:   29108
 k-point  3 :  -0.0000 0.5000 0.0000  plane waves:   29108
 k-point  4 :   0.5000 0.5000 0.0000  plane waves:   29108

 maximum and minimum number of plane-waves per node :     14624    14548

 maximum number of plane-waves:     29241
 maximum index in each direction: 
   IXMAX=   14   IYMAX=   14   IZMAX=   37
   IXMIN=  -15   IYMIN=  -15   IZMIN=  -37


 real space projection operators:
  total allocation   :      13555.97 KBytes
  max/ min on nodes  :       6786.58       6769.39


 parallel 3D FFT for wavefunctions:
    minimum data exchange during FFTs selected (reduces bandwidth)
 parallel 3D FFT for charge:
    minimum data exchange during FFTs selected (reduces bandwidth)


 total amount of memory used by VASP MPI-rank0   131956. kBytes
=======================================================================

   base      :      30000. kBytes
   nonlr-proj:      10148. kBytes
   fftplans  :      13556. kBytes
   grid      :      23353. kBytes
   one-center:        311. kBytes
   wavefun   :      54588. kBytes
 
     INWAV:  cpu time    0.0000: real time    0.0000
 Broyden mixing: mesh for mixing (old mesh)
   NGX = 29   NGY = 29   NGZ = 75
  (NGX  = 96   NGY  = 96   NGZ  =240)
  gives a total of  63075 points

 initial charge density was supplied:
 charge density of overlapping atoms calculated
 number of electron     376.0000000 magnetization 
 keeping initial charge density in first step


--------------------------------------------------------------------------------------------------------


 Maximum index for non-local projection operator         1322
 Maximum index for augmentation-charges         1558 (set IRDMAX)


--------------------------------------------------------------------------------------------------------


 First call to EWALD:  gamma=   0.161
 Maximum number of real-space cells 4x 4x 2
 Maximum number of reciprocal cells 2x 2x 5

    FEWALD:  cpu time    0.0144: real time    0.0145


--------------------------------------- Iteration      1(   1)  ---------------------------------------


    POTLOK:  cpu time    0.3195: real time    0.3779
    SETDIJ:  cpu time    0.0498: real time    0.0501
     EDDAV:  cpu time   13.4508: real time   16.0486
       DOS:  cpu time    0.0044: real time    0.0044
    --------------------------------------------
      LOOP:  cpu time   13.8245: real time   16.4810

 eigenvalue-minimisations  :  1824
 total energy-change (2. order) : 0.2421365E+04  (-0.1595031E+05)
 number of electron     376.0000000 magnetization 
 augmentation part      376.0000000 magnetization 

 Free energy of the ion-electron system (eV)
  ---------------------------------------------------
  alpha Z        PSCENC =       975.10247152
  Ewald energy   TEWEN  =     91385.02414388
  -Hartree energ DENC   =   -120474.50890695
  -exchange      EXHF   =         0.00000000
  -V(xc)+E(xc)   XCENC  =       189.65517398
  PAW double counting   =     24789.08602224   -23775.73976456
  entropy T*S    EENTRO =        -0.01129530
  eigenvalues    EBANDS =      2072.86276199
  atomic energy  EATOM  =     27259.89416086
  Solvation  Ediel_sol  =         0.00000000
  ---------------------------------------------------
  free energy    TOTEN  =      2421.36476767 eV

  energy without entropy =     2421.37606297  energy(sigma->0) =     2421.36853277


--------------------------------------------------------------------------------------------------------




--------------------------------------- Iteration      1(   2)  ---------------------------------------


     EDDAV:  cpu time   17.5299: real time   18.6610
       DOS:  cpu time    0.0009: real time    0.0009
    --------------------------------------------
      LOOP:  cpu time   17.5308: real time   18.6619

 eigenvalue-minimisations  :  2136
 total energy-change (2. order) :-0.2486441E+04  (-0.2311688E+04)
 number of electron     376.0000000 magnetization 
 augmentation part      376.0000000 magnetization 

 Free energy of the ion-electron system (eV)
  ---------------------------------------------------
  alpha Z        PSCENC =       975.10247152
  Ewald energy   TEWEN  =     91385.02414388
  -Hartree energ DENC   =   -120474.50890695
  -exchange      EXHF   =         0.00000000
  -V(xc)+E(xc)   XCENC  =       189.65517398
  PAW double counting   =     24789.08602224   -23775.73976456
  entropy T*S    EENTRO =        -0.01250048
  eigenvalues    EBANDS =      -413.57727053
  atomic energy  EATOM  =     27259.89416086
  Solvation  Ediel_sol  =         0.00000000
  ---------------------------------------------------
  free energy    TOTEN  =       -65.07647003 eV

  energy without entropy =      -65.06396955  energy(sigma->0) =      -65.07230321


--------------------------------------------------------------------------------------------------------




--------------------------------------- Iteration      1(   3)  ---------------------------------------


     EDDAV:  cpu time   15.3933: real time   16.5336
       DOS:  cpu time    0.0011: real time    0.0011
    --------------------------------------------
      LOOP:  cpu time   15.3944: real time   16.5347

 eigenvalue-minimisations  :  2160
 total energy-change (2. order) :-0.1753317E+03  (-0.1589991E+03)
 number of electron     376.0000000 magnetization 
 augmentation part      376.0000000 magnetization 

 Free energy of the ion-electron system (eV)
  ---------------------------------------------------
  alpha Z        PSCENC =       975.10247152
  Ewald energy   TEWEN  =     91385.02414388
  -Hartree energ DENC   =   -120474.50890695
  -exchange      EXHF   =         0.00000000
  -V(xc)+E(xc)   XCENC  =       189.65517398
  PAW double counting   =     24789.08602224   -23775.73976456
  entropy T*S    EENTRO =        -0.00025457
  eigenvalues    EBANDS =      -588.92119695
  atomic energy  EATOM  =     27259.89416086
  Solvation  Ediel_sol  =         0.00000000
  ---------------------------------------------------
  free energy    TOTEN  =      -240.40815055 eV

  energy without entropy =     -240.40789597  energy(sigma->0) =     -240.40806569


--------------------------------------------------------------------------------------------------------




--------------------------------------- Iteration      1(   4)  ---------------------------------------


     EDDAV:  cpu time   15.4177: real time   17.4650
       DOS:  cpu time    0.0010: real time    0.0010
    --------------------------------------------
      LOOP:  cpu time   15.4187: real time   17.4660

 eigenvalue-minimisations  :  2296
 total energy-change (2. order) :-0.7537729E+01  (-0.7255357E+01)
 number of electron     376.0000000 magnetization 
 augmentation part      376.0000000 magnetization 

 Free energy of the ion-electron system (eV)
  ---------------------------------------------------
  alpha Z        PSCENC =       975.10247152
  Ewald energy   TEWEN  =     91385.02414388
  -Hartree energ DENC   =   -120474.50890695
  -exchange      EXHF   =         0.00000000
  -V(xc)+E(xc)   XCENC  =       189.65517398
  PAW double counting   =     24789.08602224   -23775.73976456
  entropy T*S    EENTRO =        -0.00496296
  eigenvalues    EBANDS =      -596.45421732
  atomic energy  EATOM  =     27259.89416086
  Solvation  Ediel_sol  =         0.00000000
  ---------------------------------------------------
  free energy    TOTEN  =      -247.94587931 eV

  energy without entropy =     -247.94091635  energy(sigma->0) =     -247.94422499


--------------------------------------------------------------------------------------------------------




--------------------------------------- Iteration      1(   5)  ---------------------------------------


     EDDAV:  cpu time   16.1214: real time   17.1803
       DOS:  cpu time    0.0020: real time    0.0020
    CHARGE:  cpu time    0.5811: real time    0.9679
    MIXING:  cpu time    0.0326: real time    0.0591
    --------------------------------------------
      LOOP:  cpu time   16.7371: real time   18.2093

 eigenvalue-minimisations  :  2456
 total energy-change (2. order) :-0.2370973E+00  (-0.2349830E+00)
 number of electron     376.0000071 magnetization 
 augmentation part      105.8213287 magnetization 

 Broyden mixing:
  rms(total) = 0.27317E+01    rms(broyden)= 0.27313E+01
  rms(prec ) = 0.30418E+01
  weight for this iteration     100.00

 Free energy of the ion-electron system (eV)
  ---------------------------------------------------
  alpha Z        PSCENC =       975.10247152
  Ewald energy   TEWEN  =     91385.02414388
  -Hartree energ DENC   =   -120474.50890695
  -exchange      EXHF   =         0.00000000
  -V(xc)+E(xc)   XCENC  =       189.65517398
  PAW double counting   =     24789.08602224   -23775.73976456
  entropy T*S    EENTRO =        -0.00463965
  eigenvalues    EBANDS =      -596.69163793
  atomic energy  EATOM  =     27259.89416086
  Solvation  Ediel_sol  =         0.00000000
  ---------------------------------------------------
  free energy    TOTEN  =      -248.18297661 eV

  energy without entropy =     -248.17833696  energy(sigma->0) =     -248.18143006


--------------------------------------------------------------------------------------------------------




--------------------------------------- Iteration      1(   6)  ---------------------------------------


    POTLOK:  cpu time    0.2718: real time    0.3115
    SETDIJ:  cpu time    0.0154: real time    0.0285
    EDDIAG:  cpu time    2.0558: real time    2.4584
  RMM-DIIS:  cpu time    5.0981: real time    5.2199
    ORTHCH:  cpu time    0.2802: real time    0.2827
       DOS:  cpu time    0.0061: real time    0.0061
    CHARGE:  cpu time    0.4835: real time    0.4873
    MIXING:  cpu time    0.0051: real time    0.0053
    --------------------------------------------
      LOOP:  cpu time    8.2159: real time    8.7997

 eigenvalue-minimisations  :  1831
 total energy-change (2. order) : 0.2653149E+01  (-0.5496827E+01)
 number of electron     376.0000077 magnetization 
 augmentation part      112.8524365 magnetization 

 Broyden mixing:
  rms(total) = 0.28590E+01    rms(broyden)= 0.28580E+01
  rms(prec ) = 0.37958E+01
  weight for this iteration     100.00

 eigenvalues of (default mixing * dielectric matrix)
  average eigenvalue GAMMA=   0.4999
  0.4999

 Free energy of the ion-electron system (eV)
  ---------------------------------------------------
  alpha Z        PSCENC =       975.10247152
  Ewald energy   TEWEN  =     91385.02414388
  -Hartree energ DENC   =   -120012.76242814
  -exchange      EXHF   =         0.00000000
  -V(xc)+E(xc)   XCENC  =       182.53985116
  PAW double counting   =     26733.99055190   -25774.34080789
  entropy T*S    EENTRO =        -0.16374744
  eigenvalues    EBANDS =      -994.81402314
  atomic energy  EATOM  =     27259.89416086
  Solvation  Ediel_sol  =         0.00000000
  ---------------------------------------------------
  free energy    TOTEN  =      -245.52982727 eV

  energy without entropy =     -245.36607984  energy(sigma->0) =     -245.47524480


--------------------------------------------------------------------------------------------------------




--------------------------------------- Iteration      1(   7)  ---------------------------------------


    POTLOK:  cpu time    0.1616: real time    0.1630
    SETDIJ:  cpu time    0.0134: real time    0.0135
    EDDIAG:  cpu time    1.8032: real time    1.8182
  RMM-DIIS:  cpu time    4.4558: real time    6.6797
    ORTHCH:  cpu time    0.3032: real time    0.3220
       DOS:  cpu time    0.0011: real time    0.0011
    CHARGE:  cpu time    0.5281: real time    0.5871
    MIXING:  cpu time    0.0176: real time    0.0178
    --------------------------------------------
      LOOP:  cpu time    7.2840: real time    9.6024

 eigenvalue-minimisations  :  1831
 total energy-change (2. order) : 0.5402955E+01  (-0.3181229E+01)
 number of electron     376.0000084 magnetization 
 augmentation part      111.3488771 magnetization 

 Broyden mixing:
  rms(total) = 0.19374E+01    rms(broyden)= 0.19365E+01
  rms(prec ) = 0.29627E+01
  weight for this iteration     100.00

 eigenvalues of (default mixing * dielectric matrix)
  average eigenvalue GAMMA=   0.6284
  0.9967  0.2601

 Free energy of the ion-electron system (eV)
  ---------------------------------------------------
  alpha Z        PSCENC =       975.10247152
  Ewald energy   TEWEN  =     91385.02414388
  -Hartree energ DENC   =   -120209.78634750
  -exchange      EXHF   =         0.00000000
  -V(xc)+E(xc)   XCENC  =       180.18350522
  PAW double counting   =     27397.89835224   -26445.87239383
  entropy T*S    EENTRO =        -0.07387845
  eigenvalues    EBANDS =      -782.49688661
  atomic energy  EATOM  =     27259.89416086
  Solvation  Ediel_sol  =         0.00000000
  ---------------------------------------------------
  free energy    TOTEN  =      -240.12687266 eV

  energy without entropy =     -240.05299421  energy(sigma->0) =     -240.10224651


--------------------------------------------------------------------------------------------------------




--------------------------------------- Iteration      1(   8)  ---------------------------------------


    POTLOK:  cpu time    0.1260: real time    0.1582
    SETDIJ:  cpu time    0.0108: real time    0.0168
    EDDIAG:  cpu time    2.1282: real time    2.2377
  RMM-DIIS:  cpu time    5.4592: real time    5.6359
    ORTHCH:  cpu time    0.2865: real time    0.4466
       DOS:  cpu time    0.0076: real time    0.0077
    CHARGE:  cpu time    0.4913: real time    0.7759
    MIXING:  cpu time    0.0033: real time    0.0033
    --------------------------------------------
      LOOP:  cpu time    8.5129: real time    9.2820

 eigenvalue-minimisations  :  1826
 total energy-change (2. order) :-0.4096221E+01  (-0.8900705E+00)
 number of electron     376.0000077 magnetization 
 augmentation part      112.2381402 magnetization 

 Broyden mixing:
  rms(total) = 0.23321E+01    rms(broyden)= 0.23320E+01
  rms(prec ) = 0.43955E+01
  weight for this iteration     100.00

 eigenvalues of (default mixing * dielectric matrix)
  average eigenvalue GAMMA=   0.5504
  1.2027  0.2947  0.1537

 Free energy of the ion-electron system (eV)
  ---------------------------------------------------
  alpha Z        PSCENC =       975.10247152
  Ewald energy   TEWEN  =     91385.02414388
  -Hartree energ DENC   =   -120129.08966981
  -exchange      EXHF   =         0.00000000
  -V(xc)+E(xc)   XCENC  =       179.01031909
  PAW double counting   =     28164.46526760   -27224.61089223
  entropy T*S    EENTRO =        -0.08208781
  eigenvalues    EBANDS =      -853.93680644
  atomic energy  EATOM  =     27259.89416086
  Solvation  Ediel_sol  =         0.00000000
  ---------------------------------------------------
  free energy    TOTEN  =      -244.22309332 eV

  energy without entropy =     -244.14100551  energy(sigma->0) =     -244.19573072


--------------------------------------------------------------------------------------------------------




--------------------------------------- Iteration      1(   9)  ---------------------------------------


    POTLOK:  cpu time    0.1139: real time    0.1972
    SETDIJ:  cpu time    0.0119: real time    0.0216
    EDDIAG:  cpu time    1.5293: real time    2.0651
  RMM-DIIS:  cpu time    5.5015: real time    5.9638
    ORTHCH:  cpu time    0.4362: real time    0.4394
       DOS:  cpu time    0.0010: real time    0.0010
    CHARGE:  cpu time    0.7604: real time    0.7660
    MIXING:  cpu time    0.0144: real time    0.0144
    --------------------------------------------
      LOOP:  cpu time    8.3686: real time    9.4685

 eigenvalue-minimisations  :  1830
 total energy-change (2. order) : 0.1233365E+02  (-0.3912547E+00)
 number of electron     376.0000079 magnetization 
 augmentation part      112.7551073 magnetization 

 Broyden mixing:
  rms(total) = 0.95187E+00    rms(broyden)= 0.95148E+00
  rms(prec ) = 0.14192E+01
  weight for this iteration     100.00

 eigenvalues of (default mixing * dielectric matrix)
  average eigenvalue GAMMA=   0.5197
  1.3064  0.3449  0.3082  0.1195

 Free energy of the ion-electron system (eV)
  ---------------------------------------------------
  alpha Z        PSCENC =       975.10247152
  Ewald energy   TEWEN  =     91385.02414388
  -Hartree energ DENC   =   -120100.80148343
  -exchange      EXHF   =         0.00000000
  -V(xc)+E(xc)   XCENC  =       178.53841332
  PAW double counting   =     28724.20180521   -27792.99429580
  entropy T*S    EENTRO =        -0.02095894
  eigenvalues    EBANDS =      -860.83370372
  atomic energy  EATOM  =     27259.89416086
  Solvation  Ediel_sol  =         0.00000000
  ---------------------------------------------------
  free energy    TOTEN  =      -231.88944709 eV

  energy without entropy =     -231.86848815  energy(sigma->0) =     -231.88246078


--------------------------------------------------------------------------------------------------------




--------------------------------------- Iteration      1(  10)  ---------------------------------------


    POTLOK:  cpu time    0.2682: real time    0.2703
    SETDIJ:  cpu time    0.0170: real time    0.0171
    EDDIAG:  cpu time    1.8302: real time    1.9198
  RMM-DIIS:  cpu time    5.6761: real time    5.9247
    ORTHCH:  cpu time    0.2112: real time    0.3446
       DOS:  cpu time    0.0019: real time    0.0127
    CHARGE:  cpu time    0.3078: real time    0.4895
    MIXING:  cpu time    0.0039: real time    0.0066
    --------------------------------------------
      LOOP:  cpu time    8.3162: real time    8.9853

 eigenvalue-minimisations  :  1831
 total energy-change (2. order) : 0.1369411E+01  (-0.1476402E+00)
 number of electron     376.0000078 magnetization 
 augmentation part      112.7981568 magnetization 

 Broyden mixing:
  rms(total) = 0.48997E+00    rms(broyden)= 0.48988E+00
  rms(prec ) = 0.64985E+00
  weight for this iteration     100.00

 eigenvalues of (default mixing * dielectric matrix)
  average eigenvalue GAMMA=   0.5594
  1.4150  0.6051  0.4137  0.2403  0.1229

 Free energy of the ion-electron system (eV)
  ---------------------------------------------------
  alpha Z        PSCENC =       975.10247152
  Ewald energy   TEWEN  =     91385.02414388
  -Hartree energ DENC   =   -120101.81970003
  -exchange      EXHF   =         0.00000000
  -V(xc)+E(xc)   XCENC  =       178.41331677
  PAW double counting   =     29039.00662042   -28112.12168103
  entropy T*S    EENTRO =        -0.02622392
  eigenvalues    EBANDS =      -853.99314450
  atomic energy  EATOM  =     27259.89416086
  Solvation  Ediel_sol  =         0.00000000
  ---------------------------------------------------
  free energy    TOTEN  =      -230.52003603 eV

  energy without entropy =     -230.49381211  energy(sigma->0) =     -230.51129472


--------------------------------------------------------------------------------------------------------




--------------------------------------- Iteration      1(  11)  ---------------------------------------


    POTLOK:  cpu time    0.1759: real time    0.2392
    SETDIJ:  cpu time    0.0225: real time    0.0228
    EDDIAG:  cpu time    1.5586: real time    1.7094
  RMM-DIIS:  cpu time    4.8641: real time    5.6235
    ORTHCH:  cpu time    0.3267: real time    0.3284
       DOS:  cpu time    0.0011: real time    0.0011
    CHARGE:  cpu time    0.4997: real time    0.5028
    MIXING:  cpu time    0.0043: real time    0.0044
    --------------------------------------------
      LOOP:  cpu time    7.4530: real time    8.4317

 eigenvalue-minimisations  :  1831
 total energy-change (2. order) : 0.3430828E+00  (-0.4056427E-01)
 number of electron     376.0000078 magnetization 
 augmentation part      112.9105896 magnetization 

 Broyden mixing:
  rms(total) = 0.31678E+00    rms(broyden)= 0.31660E+00
  rms(prec ) = 0.40473E+00
  weight for this iteration     100.00

 eigenvalues of (default mixing * dielectric matrix)
  average eigenvalue GAMMA=   0.5771
  1.5326  0.8215  0.3777  0.3777  0.2316  0.1218

 Free energy of the ion-electron system (eV)
  ---------------------------------------------------
  alpha Z        PSCENC =       975.10247152
  Ewald energy   TEWEN  =     91385.02414388
  -Hartree energ DENC   =   -120093.94256199
  -exchange      EXHF   =         0.00000000
  -V(xc)+E(xc)   XCENC  =       178.41550261
  PAW double counting   =     29379.30815092   -28456.71533633
  entropy T*S    EENTRO =        -0.03239154
  eigenvalues    EBANDS =      -857.23109313
  atomic energy  EATOM  =     27259.89416086
  Solvation  Ediel_sol  =         0.00000000
  ---------------------------------------------------
  free energy    TOTEN  =      -230.17695320 eV

  energy without entropy =     -230.14456166  energy(sigma->0) =     -230.16615602


--------------------------------------------------------------------------------------------------------




--------------------------------------- Iteration      1(  12)  ---------------------------------------


    POTLOK:  cpu time    0.2373: real time    0.2387
    SETDIJ:  cpu time    0.0155: real time    0.0156
    EDDIAG:  cpu time    2.0491: real time    2.0613
  RMM-DIIS:  cpu time    4.5904: real time    5.1354
    ORTHCH:  cpu time    0.2219: real time    0.2743
       DOS:  cpu time    0.0011: real time    0.0011
    CHARGE:  cpu time    0.3388: real time    0.3416
    MIXING:  cpu time    0.0054: real time    0.0055
    --------------------------------------------
      LOOP:  cpu time    7.4594: real time    8.0734

 eigenvalue-minimisations  :  1839
 total energy-change (2. order) : 0.1315941E+00  (-0.1749746E-01)
 number of electron     376.0000077 magnetization 
 augmentation part      112.9565970 magnetization 

 Broyden mixing:
  rms(total) = 0.19880E+00    rms(broyden)= 0.19878E+00
  rms(prec ) = 0.26559E+00
  weight for this iteration     100.00

 eigenvalues of (default mixing * dielectric matrix)
  average eigenvalue GAMMA=   0.6673
  1.8767  1.0442  0.6695  0.4590  0.1222  0.2391  0.2600

 Free energy of the ion-electron system (eV)
  ---------------------------------------------------
  alpha Z        PSCENC =       975.10247152
  Ewald energy   TEWEN  =     91385.02414388
  -Hartree energ DENC   =   -120086.12810831
  -exchange      EXHF   =         0.00000000
  -V(xc)+E(xc)   XCENC  =       178.37242309
  PAW double counting   =     29603.03317088   -28683.13988782
  entropy T*S    EENTRO =        -0.03126808
  eigenvalues    EBANDS =      -862.17246514
  atomic energy  EATOM  =     27259.89416086
  Solvation  Ediel_sol  =         0.00000000
  ---------------------------------------------------
  free energy    TOTEN  =      -230.04535910 eV

  energy without entropy =     -230.01409103  energy(sigma->0) =     -230.03493641


--------------------------------------------------------------------------------------------------------




--------------------------------------- Iteration      1(  13)  ---------------------------------------


    POTLOK:  cpu time    0.1391: real time    0.1404
    SETDIJ:  cpu time    0.0128: real time    0.0128
    EDDIAG:  cpu time    0.9544: real time    0.9622
  RMM-DIIS:  cpu time    5.1795: real time    5.2208
    ORTHCH:  cpu time    0.2764: real time    0.2786
       DOS:  cpu time    0.0010: real time    0.0010
    CHARGE:  cpu time    0.4271: real time    0.4304
    MIXING:  cpu time    0.0232: real time    0.0235
    --------------------------------------------
      LOOP:  cpu time    7.0135: real time    7.0699

 eigenvalue-minimisations  :  1831
 total energy-change (2. order) : 0.7062863E-02  (-0.1372680E-01)
 number of electron     376.0000077 magnetization 
 augmentation part      112.9678270 magnetization 

 Broyden mixing:
  rms(total) = 0.18869E+00    rms(broyden)= 0.18869E+00
  rms(prec ) = 0.22731E+00
  weight for this iteration     100.00

 eigenvalues of (default mixing * dielectric matrix)
  average eigenvalue GAMMA=   0.7007
  2.1552  1.1361  0.9205  0.4296  0.3654  0.1222  0.2536  0.2227

 Free energy of the ion-electron system (eV)
  ---------------------------------------------------
  alpha Z        PSCENC =       975.10247152
  Ewald energy   TEWEN  =     91385.02414388
  -Hartree energ DENC   =   -120086.80051589
  -exchange      EXHF   =         0.00000000
  -V(xc)+E(xc)   XCENC  =       178.27786896
  PAW double counting   =     29882.80368671   -28966.25929272
  entropy T*S    EENTRO =        -0.01379799
  eigenvalues    EBANDS =      -858.06702159
  atomic energy  EATOM  =     27259.89416086
  Solvation  Ediel_sol  =         0.00000000
  ---------------------------------------------------
  free energy    TOTEN  =      -230.03829624 eV

  energy without entropy =     -230.02449826  energy(sigma->0) =     -230.03369691


--------------------------------------------------------------------------------------------------------




--------------------------------------- Iteration      1(  14)  ---------------------------------------


    POTLOK:  cpu time    0.1754: real time    0.1766
    SETDIJ:  cpu time    0.0135: real time    0.0137
    EDDIAG:  cpu time    1.5263: real time    1.5886
  RMM-DIIS:  cpu time    4.7026: real time    5.5505
    ORTHCH:  cpu time    0.3157: real time    0.3187
       DOS:  cpu time    0.0011: real time    0.0032
    CHARGE:  cpu time    0.5364: real time    0.5414
    MIXING:  cpu time    0.0046: real time    0.0047
    --------------------------------------------
      LOOP:  cpu time    7.2755: real time    8.1972

 eigenvalue-minimisations  :  1831
 total energy-change (2. order) : 0.4525081E-01  (-0.7755862E-02)
 number of electron     376.0000078 magnetization 
 augmentation part      112.9492266 magnetization 

 Broyden mixing:
  rms(total) = 0.85608E-01    rms(broyden)= 0.85585E-01
  rms(prec ) = 0.11004E+00
  weight for this iteration     100.00

 eigenvalues of (default mixing * dielectric matrix)
  average eigenvalue GAMMA=   0.7219
  2.3738  1.2277  0.9871  0.5448  0.4600  0.1222  0.3098  0.2486  0.2227

 Free energy of the ion-electron system (eV)
  ---------------------------------------------------
  alpha Z        PSCENC =       975.10247152
  Ewald energy   TEWEN  =     91385.02414388
  -Hartree energ DENC   =   -120090.63816859
  -exchange      EXHF   =         0.00000000
  -V(xc)+E(xc)   XCENC  =       178.21396620
  PAW double counting   =     30047.94724971   -29133.31030769
  entropy T*S    EENTRO =        -0.01383566
  eigenvalues    EBANDS =      -852.21272568
  atomic energy  EATOM  =     27259.89416086
  Solvation  Ediel_sol  =         0.00000000
  ---------------------------------------------------
  free energy    TOTEN  =      -229.99304543 eV

  energy without entropy =     -229.97920977  energy(sigma->0) =     -229.98843354


--------------------------------------------------------------------------------------------------------




--------------------------------------- Iteration      1(  15)  ---------------------------------------


    POTLOK:  cpu time    0.2366: real time    0.2385
    SETDIJ:  cpu time    0.0088: real time    0.0090
    EDDIAG:  cpu time    1.9017: real time    1.9192
  RMM-DIIS:  cpu time    5.3053: real time    5.4669
    ORTHCH:  cpu time    0.3601: real time    0.3623
       DOS:  cpu time    0.0078: real time    0.0078
    CHARGE:  cpu time    0.6307: real time    0.7509
    MIXING:  cpu time    0.0049: real time    0.0049
    --------------------------------------------
      LOOP:  cpu time    8.4559: real time    8.7596

 eigenvalue-minimisations  :  1831
 total energy-change (2. order) : 0.7610010E-02  (-0.2967012E-02)
 number of electron     376.0000077 magnetization 
 augmentation part      112.9508526 magnetization 

 Broyden mixing:
  rms(total) = 0.53813E-01    rms(broyden)= 0.53794E-01
  rms(prec ) = 0.65431E-01
  weight for this iteration     100.00

 eigenvalues of (default mixing * dielectric matrix)
  average eigenvalue GAMMA=   0.7137
  2.4759  1.2579  0.9286  0.7689  0.4359  0.3943  0.1222  0.2853  0.2465  0.2215

 Free energy of the ion-electron system (eV)
  ---------------------------------------------------
  alpha Z        PSCENC =       975.10247152
  Ewald energy   TEWEN  =     91385.02414388
  -Hartree energ DENC   =   -120091.67047771
  -exchange      EXHF   =         0.00000000
  -V(xc)+E(xc)   XCENC  =       178.20541569
  PAW double counting   =     30116.39880686   -29202.49655155
  entropy T*S    EENTRO =        -0.01734671
  eigenvalues    EBANDS =      -850.42605827
  atomic energy  EATOM  =     27259.89416086
  Solvation  Ediel_sol  =         0.00000000
  ---------------------------------------------------
  free energy    TOTEN  =      -229.98543542 eV

  energy without entropy =     -229.96808871  energy(sigma->0) =     -229.97965318


--------------------------------------------------------------------------------------------------------




--------------------------------------- Iteration      1(  16)  ---------------------------------------


    POTLOK:  cpu time    0.1495: real time    0.2055
    SETDIJ:  cpu time    0.0296: real time    0.0298
    EDDIAG:  cpu time    1.9018: real time    2.1082
  RMM-DIIS:  cpu time    4.6908: real time    4.9424
    ORTHCH:  cpu time    0.4204: real time    0.4241
       DOS:  cpu time    0.0082: real time    0.0082
    CHARGE:  cpu time    0.6692: real time    0.6882
    MIXING:  cpu time    0.0051: real time    0.0051
    --------------------------------------------
      LOOP:  cpu time    7.8745: real time    8.4115

 eigenvalue-minimisations  :  1830
 total energy-change (2. order) : 0.3595505E-02  (-0.6901590E-03)
 number of electron     376.0000077 magnetization 
 augmentation part      112.9515275 magnetization 

 Broyden mixing:
  rms(total) = 0.28892E-01    rms(broyden)= 0.28886E-01
  rms(prec ) = 0.35621E-01
  weight for this iteration     100.00

 eigenvalues of (default mixing * dielectric matrix)
  average eigenvalue GAMMA=   0.6903
  2.4760  1.2372  0.8677  0.8677  0.4773  0.4773  0.1222  0.3253  0.2775  0.2439
  0.2208

 Free energy of the ion-electron system (eV)
  ---------------------------------------------------
  alpha Z        PSCENC =       975.10247152
  Ewald energy   TEWEN  =     91385.02414388
  -Hartree energ DENC   =   -120092.45231717
  -exchange      EXHF   =         0.00000000
  -V(xc)+E(xc)   XCENC  =       178.21913216
  PAW double counting   =     30137.92111936   -29224.21643868
  entropy T*S    EENTRO =        -0.01569910
  eigenvalues    EBANDS =      -849.45841276
  atomic energy  EATOM  =     27259.89416086
  Solvation  Ediel_sol  =         0.00000000
  ---------------------------------------------------
  free energy    TOTEN  =      -229.98183991 eV

  energy without entropy =     -229.96614081  energy(sigma->0) =     -229.97660688


--------------------------------------------------------------------------------------------------------




--------------------------------------- Iteration      1(  17)  ---------------------------------------


    POTLOK:  cpu time    0.1422: real time    0.2102
    SETDIJ:  cpu time    0.0129: real time    0.0130
    EDDIAG:  cpu time    1.9198: real time    2.3724
  RMM-DIIS:  cpu time    5.7824: real time    6.0821
    ORTHCH:  cpu time    0.4320: real time    0.4344
       DOS:  cpu time    0.0015: real time    0.0015
    CHARGE:  cpu time    0.5965: real time    0.6001
    MIXING:  cpu time    0.0635: real time    0.0639
    --------------------------------------------
      LOOP:  cpu time    8.9509: real time    9.7777

 eigenvalue-minimisations  :  1820
 total energy-change (2. order) : 0.8772496E-03  (-0.1991633E-03)
 number of electron     376.0000077 magnetization 
 augmentation part      112.9508327 magnetization 

 Broyden mixing:
  rms(total) = 0.16340E-01    rms(broyden)= 0.16338E-01
  rms(prec ) = 0.19746E-01
  weight for this iteration     100.00

 eigenvalues of (default mixing * dielectric matrix)
  average eigenvalue GAMMA=   0.7348
  2.4875  1.2695  1.2695  1.0357  0.7998  0.4427  0.3914  0.1222  0.2948  0.2506
  0.2198  0.2338

 Free energy of the ion-electron system (eV)
  ---------------------------------------------------
  alpha Z        PSCENC =       975.10247152
  Ewald energy   TEWEN  =     91385.02414388
  -Hartree energ DENC   =   -120093.17932786
  -exchange      EXHF   =         0.00000000
  -V(xc)+E(xc)   XCENC  =       178.22430022
  PAW double counting   =     30137.96142969   -29224.23013016
  entropy T*S    EENTRO =        -0.01741114
  eigenvalues    EBANDS =      -848.76059967
  atomic energy  EATOM  =     27259.89416086
  Solvation  Ediel_sol  =         0.00000000
  ---------------------------------------------------
  free energy    TOTEN  =      -229.98096266 eV

  energy without entropy =     -229.96355152  energy(sigma->0) =     -229.97515895


--------------------------------------------------------------------------------------------------------




--------------------------------------- Iteration      1(  18)  ---------------------------------------


    POTLOK:  cpu time    0.3023: real time    0.3041
    SETDIJ:  cpu time    0.0636: real time    0.0640
    EDDIAG:  cpu time    4.4835: real time    4.5094
  RMM-DIIS:  cpu time    5.9958: real time    6.0336
    ORTHCH:  cpu time    0.4982: real time    0.5009
       DOS:  cpu time    0.0012: real time    0.0012
    CHARGE:  cpu time    0.5438: real time    0.5471
    MIXING:  cpu time    0.0052: real time    0.0053
    --------------------------------------------
      LOOP:  cpu time   11.8936: real time   11.9655

 eigenvalue-minimisations  :  1746
 total energy-change (2. order) :-0.1243878E-03  (-0.8025447E-04)
 number of electron     376.0000077 magnetization 
 augmentation part      112.9466021 magnetization 

 Broyden mixing:
  rms(total) = 0.13106E-01    rms(broyden)= 0.13103E-01
  rms(prec ) = 0.16102E-01
  weight for this iteration     100.00

 eigenvalues of (default mixing * dielectric matrix)
  average eigenvalue GAMMA=   0.7342
  2.5266  1.4134  1.4134  1.0560  0.8104  0.4312  0.4312  0.1222  0.3514  0.2925
  0.2469  0.2198  0.2299

 Free energy of the ion-electron system (eV)
  ---------------------------------------------------
  alpha Z        PSCENC =       975.10247152
  Ewald energy   TEWEN  =     91385.02414388
  -Hartree energ DENC   =   -120094.74377816
  -exchange      EXHF   =         0.00000000
  -V(xc)+E(xc)   XCENC  =       178.23155465
  PAW double counting   =     30136.91639669   -29223.11069839
  entropy T*S    EENTRO =        -0.01630605
  eigenvalues    EBANDS =      -847.27903206
  atomic energy  EATOM  =     27259.89416086
  Solvation  Ediel_sol  =         0.00000000
  ---------------------------------------------------
  free energy    TOTEN  =      -229.98108705 eV

  energy without entropy =     -229.96478100  energy(sigma->0) =     -229.97565170


--------------------------------------------------------------------------------------------------------




--------------------------------------- Iteration      1(  19)  ---------------------------------------


    POTLOK:  cpu time    0.2682: real time    0.2698
    SETDIJ:  cpu time    0.0336: real time    0.0338
    EDDIAG:  cpu time    1.6087: real time    1.6182
  RMM-DIIS:  cpu time    4.3116: real time    4.3390
    ORTHCH:  cpu time    0.4803: real time    0.4830
       DOS:  cpu time    0.0015: real time    0.0015
    --------------------------------------------
      LOOP:  cpu time    6.7039: real time    6.7453

 eigenvalue-minimisations  :  1301
 total energy-change (2. order) : 0.8126001E-04  (-0.3699190E-04)
 number of electron     376.0000077 magnetization 
 augmentation part      112.9466021 magnetization 

 Free energy of the ion-electron system (eV)
  ---------------------------------------------------
  alpha Z        PSCENC =       975.10247152
  Ewald energy   TEWEN  =     91385.02414388
  -Hartree energ DENC   =   -120095.60508926
  -exchange      EXHF   =         0.00000000
  -V(xc)+E(xc)   XCENC  =       178.23737361
  PAW double counting   =     30137.59669518   -29223.77011773
  entropy T*S    EENTRO =        -0.01684961
  eigenvalues    EBANDS =      -846.44379426
  atomic energy  EATOM  =     27259.89416086
  Solvation  Ediel_sol  =         0.00000000
  ---------------------------------------------------
  free energy    TOTEN  =      -229.98100579 eV

  energy without entropy =     -229.96415618  energy(sigma->0) =     -229.97538925


--------------------------------------------------------------------------------------------------------




 average (electrostatic) potential at core
  the test charge radii are     0.6991  0.7215  1.2059
  (the norm of the test charge is              1.0000)
       1 -56.2969       2 -74.7645       3 -76.4067       4 -72.3048       5 -72.2989
       6 -72.2984       7 -72.2987       8 -72.3098       9 -72.2935      10 -72.2996
      11 -72.3065      12 -72.2898      13 -72.8530      14 -72.9667      15 -73.0044
      16 -73.0423      17 -72.9370      18 -73.0005      19 -72.9579      20 -72.9657
      21 -72.9214      22 -72.9362      23 -72.8657      24 -72.8895      25 -72.9960
      26 -73.0324      27 -72.9888      28 -72.9155      29 -72.9746      30 -72.9423
      31 -72.2682      32 -72.2183      33 -72.6426      34 -72.3359      35 -72.3316
      36 -73.2454      37 -72.5705      38 -73.2171      39 -72.4303
 
 
 
 E-fermi :   1.1178     XC(G=0):  -6.6260     alpha+bet : -6.8913


 k-point     1 :       0.0000    0.0000    0.0000
  band No.  band energies     occupation 
      1     -22.2350      2.00000
      2     -16.9828      2.00000
      3      -8.5437      2.00000
      4      -8.0923      2.00000
      5      -6.8032      2.00000
      6      -6.0266      2.00000
      7      -5.8419      2.00000
      8      -5.7560      2.00000
      9      -5.6810      2.00000
     10      -5.6554      2.00000
     11      -5.6367      2.00000
     12      -5.6168      2.00000
     13      -5.5808      2.00000
     14      -5.5477      2.00000
     15      -5.4519      2.00000
     16      -5.2658      2.00000
     17      -5.1185      2.00000
     18      -5.0880      2.00000
     19      -5.0430      2.00000
     20      -5.0200      2.00000
     21      -5.0018      2.00000
     22      -4.9547      2.00000
     23      -4.6831      2.00000
     24      -4.5975      2.00000
     25      -4.5788      2.00000
     26      -4.5520      2.00000
     27      -4.5068      2.00000
     28      -4.4930      2.00000
     29      -4.4100      2.00000
     30      -4.3644      2.00000
     31      -4.3433      2.00000
     32      -4.3301      2.00000
     33      -4.3085      2.00000
     34      -4.2183      2.00000
     35      -4.1677      2.00000
     36      -4.1415      2.00000
     37      -4.1139      2.00000
     38      -4.0942      2.00000
     39      -4.0797      2.00000
     40      -4.0502      2.00000
     41      -4.0414      2.00000
     42      -4.0188      2.00000
     43      -4.0129      2.00000
     44      -3.9989      2.00000
     45      -3.9830      2.00000
     46      -3.9118      2.00000
     47      -3.6296      2.00000
     48      -3.5447      2.00000
     49      -3.4823      2.00000
     50      -3.4576      2.00000
     51      -3.4140      2.00000
     52      -3.4016      2.00000
     53      -3.3816      2.00000
     54      -3.3578      2.00000
     55      -3.3043      2.00000
     56      -3.2870      2.00000
     57      -3.2268      2.00000
     58      -3.1945      2.00000
     59      -3.1453      2.00000
     60      -3.1135      2.00000
     61      -3.0544      2.00000
     62      -2.9643      2.00000
     63      -2.8810      2.00000
     64      -2.6424      2.00000
     65      -2.6102      2.00000
     66      -2.5822      2.00000
     67      -2.5686      2.00000
     68      -2.4998      2.00000
     69      -2.4737      2.00000
     70      -2.4500      2.00000
     71      -2.4293      2.00000
     72      -2.4221      2.00000
     73      -2.4100      2.00000
     74      -2.3889      2.00000
     75      -2.3822      2.00000
     76      -2.3591      2.00000
     77      -2.3571      2.00000
     78      -2.3232      2.00000
     79      -2.3082      2.00000
     80      -2.2982      2.00000
     81      -2.2819      2.00000
     82      -2.2806      2.00000
     83      -2.2489      2.00000
     84      -2.2287      2.00000
     85      -2.1690      2.00000
     86      -2.1482      2.00000
     87      -2.1199      2.00000
     88      -2.1110      2.00000
     89      -2.0815      2.00000
     90      -2.0495      2.00000
     91      -2.0413      2.00000
     92      -1.9869      2.00000
     93      -1.9655      2.00000
     94      -1.9327      2.00000
     95      -1.9200      2.00000
     96      -1.8959      2.00000
     97      -1.8906      2.00000
     98      -1.8175      2.00000
     99      -1.7880      2.00000
    100      -1.7604      2.00000
    101      -1.6781      2.00000
    102      -1.6177      2.00000
    103      -1.6076      2.00000
    104      -1.5806      2.00000
    105      -1.5543      2.00000
    106      -1.5268      2.00000
    107      -1.5208      2.00000
    108      -1.4985      2.00000
    109      -1.4734      2.00000
    110      -1.4698      2.00000
    111      -1.4620      2.00000
    112      -1.4529      2.00000
    113      -1.4338      2.00000
    114      -1.3170      2.00000
    115      -1.2904      2.00000
    116      -1.1630      2.00000
    117      -1.1401      2.00000
    118      -1.0802      2.00000
    119      -0.9877      2.00000
    120      -0.9550      2.00000
    121      -0.9017      2.00000
    122      -0.8932      2.00000
    123      -0.8671      2.00000
    124      -0.8564      2.00000
    125      -0.7970      2.00000
    126      -0.7865      2.00000
    127      -0.7849      2.00000
    128      -0.7292      2.00000
    129      -0.6890      2.00000
    130      -0.6765      2.00000
    131      -0.6429      2.00000
    132      -0.6251      2.00000
    133      -0.6126      2.00000
    134      -0.5829      2.00000
    135      -0.4666      2.00000
    136      -0.4330      2.00000
    137      -0.3884      2.00000
    138      -0.3682      2.00000
    139      -0.3420      2.00000
    140      -0.3381      2.00000
    141      -0.2554      2.00000
    142      -0.2253      2.00000
    143      -0.1739      2.00000
    144      -0.1493      2.00000
    145      -0.1227      2.00000
    146      -0.1171      2.00000
    147      -0.0757      2.00000
    148      -0.0289      2.00000
    149      -0.0074      2.00000
    150       0.0688      2.00000
    151       0.0740      2.00000
    152       0.1088      2.00000
    153       0.1302      2.00000
    154       0.1348      2.00000
    155       0.1913      2.00000
    156       0.2032      2.00000
    157       0.2475      2.00000
    158       0.2662      2.00000
    159       0.2825      2.00000
    160       0.3135      2.00000
    161       0.3197      2.00000
    162       0.3261      2.00000
    163       0.3469      2.00000
    164       0.3591      2.00000
    165       0.3906      2.00000
    166       0.4077      2.00001
    167       0.4413      2.00002
    168       0.4741      2.00005
    169       0.4938      2.00009
    170       0.5212      2.00021
    171       0.5378      2.00032
    172       0.5735      2.00081
    173       0.5899      2.00122
    174       0.6259      2.00277
    175       0.6446      2.00413
    176       0.6623      2.00591
    177       0.6708      2.00697
    178       0.7039      2.01270
    179       0.7279      2.01877
    180       0.7450      2.02421
    181       0.7621      2.03058
    182       0.8023      2.04825
    183       0.8146      2.05389
    184       0.8280      2.05971
    185       0.8298      2.06045
    186       0.8389      2.06395
    187       0.8446      2.06591
    188       0.8494      2.06733
    189       0.8586      2.06951
    190       0.8716      2.07090
    191       0.8923      2.06757
    192       0.8994      2.06441
    193       0.9205      2.04727
    194       0.9342      2.02874
    195       0.9769      1.92263
    196       1.1137      1.03440
    197       1.1449      0.77296
    198       1.2021      0.35196
    199       1.2164      0.26738
    200       1.2425      0.13929
    201       1.2495      0.11086
    202       1.2673      0.04924
    203       1.3005     -0.02735
    204       1.4538     -0.03885
    205       1.4992     -0.02134
    206       1.9591     -0.00000
    207       2.0352     -0.00000
    208       2.0484     -0.00000
    209       2.0867     -0.00000
    210       2.2306     -0.00000
    211       2.5026     -0.00000
    212       3.5729     -0.00000
    213       3.9587     -0.00000
    214       4.3373     -0.00000
    215       4.3589     -0.00000
    216       4.4280     -0.00000
    217       4.5929     -0.00000
    218       4.8505     -0.00000
    219       5.4398     -0.00000
    220       5.5767     -0.00000
    221       5.8790     -0.00000
    222       5.8873     -0.00000
    223       5.9208     -0.00000
    224       5.9621     -0.00000
    225       6.0102     -0.00000
    226       6.1233     -0.00000
    227       6.5498     -0.00000
    228       6.7644      0.00000

 k-point     2 :       0.5000    0.0000    0.0000
  band No.  band energies     occupation 
      1     -22.2349      2.00000
      2     -16.9824      2.00000
      3      -8.5207      2.00000
      4      -7.2638      2.00000
      5      -7.2155      2.00000
      6      -6.1501      2.00000
      7      -5.9949      2.00000
      8      -5.8634      2.00000
      9      -5.8393      2.00000
     10      -5.7202      2.00000
     11      -5.5369      2.00000
     12      -5.4132      2.00000
     13      -5.3163      2.00000
     14      -5.2443      2.00000
     15      -4.9968      2.00000
     16      -4.9213      2.00000
     17      -4.9040      2.00000
     18      -4.8734      2.00000
     19      -4.8460      2.00000
     20      -4.8440      2.00000
     21      -4.8053      2.00000
     22      -4.7903      2.00000
     23      -4.7708      2.00000
     24      -4.7444      2.00000
     25      -4.7182      2.00000
     26      -4.6977      2.00000
     27      -4.6891      2.00000
     28      -4.6625      2.00000
     29      -4.6236      2.00000
     30      -4.4884      2.00000
     31      -4.3616      2.00000
     32      -4.3529      2.00000
     33      -4.3377      2.00000
     34      -4.2856      2.00000
     35      -4.2479      2.00000
     36      -4.1377      2.00000
     37      -4.0744      2.00000
     38      -4.0195      2.00000
     39      -4.0009      2.00000
     40      -3.9774      2.00000
     41      -3.9484      2.00000
     42      -3.8791      2.00000
     43      -3.8686      2.00000
     44      -3.8120      2.00000
     45      -3.7630      2.00000
     46      -3.7084      2.00000
     47      -3.6528      2.00000
     48      -3.6126      2.00000
     49      -3.6045      2.00000
     50      -3.5601      2.00000
     51      -3.4581      2.00000
     52      -3.4273      2.00000
     53      -3.4010      2.00000
     54      -3.3621      2.00000
     55      -3.3447      2.00000
     56      -3.2993      2.00000
     57      -3.2426      2.00000
     58      -3.2200      2.00000
     59      -3.1867      2.00000
     60      -3.1483      2.00000
     61      -3.0899      2.00000
     62      -3.0594      2.00000
     63      -3.0265      2.00000
     64      -2.9970      2.00000
     65      -2.9607      2.00000
     66      -2.9342      2.00000
     67      -2.8925      2.00000
     68      -2.8675      2.00000
     69      -2.8437      2.00000
     70      -2.7621      2.00000
     71      -2.7469      2.00000
[...]
     83      -2.2757      2.00000
     84      -2.2545      2.00000
     85      -2.2330      2.00000
     86      -2.1818      2.00000
     87      -2.1791      2.00000
     88      -2.1614      2.00000
     89      -2.1569      2.00000
     90      -2.1238      2.00000
     91      -2.1040      2.00000
     92      -2.0831      2.00000
     93      -2.0494      2.00000
     94      -1.9930      2.00000
     95      -1.9645      2.00000
     96      -1.9394      2.00000
     97      -1.8788      2.00000
     98      -1.8635      2.00000
     99      -1.8283      2.00000
    100      -1.8159      2.00000
    101      -1.7546      2.00000
    102      -1.7507      2.00000
    103      -1.7200      2.00000
    104      -1.7107      2.00000
    105      -1.6945      2.00000
    106      -1.6603      2.00000
    107      -1.6486      2.00000
    108      -1.6348      2.00000
    109      -1.6234      2.00000
    110      -1.5309      2.00000
    111      -1.5132      2.00000
    112      -1.4654      2.00000
    113      -1.4490      2.00000
    114      -1.3720      2.00000
    115      -1.3092      2.00000
    116      -1.2750      2.00000
    117      -1.1939      2.00000
    118      -1.1733      2.00000
    119      -1.1449      2.00000
    120      -1.0892      2.00000
    121      -1.0767      2.00000
    122      -1.0379      2.00000
    123      -1.0108      2.00000
    124      -0.9960      2.00000
    125      -0.9638      2.00000
    126      -0.9493      2.00000
    127      -0.9225      2.00000
    128      -0.9113      2.00000
    129      -0.8925      2.00000
    130      -0.8687      2.00000
    131      -0.8304      2.00000
    132      -0.7990      2.00000
    133      -0.7622      2.00000
    134      -0.7311      2.00000
    135      -0.7062      2.00000
    136      -0.6828      2.00000
    137      -0.6747      2.00000
    138      -0.6378      2.00000
    139      -0.5894      2.00000
    140      -0.5426      2.00000
    141      -0.4854      2.00000
    142      -0.4550      2.00000
    143      -0.3739      2.00000
    144      -0.2986      2.00000
    145      -0.2509      2.00000
    146      -0.1786      2.00000
    147      -0.1718      2.00000
    148      -0.1216      2.00000
    149      -0.0806      2.00000
    150      -0.0444      2.00000
    151      -0.0106      2.00000
    152       0.0441      2.00000
    153       0.0602      2.00000
    154       0.0893      2.00000
    155       0.1071      2.00000
    156       0.1150      2.00000
    157       0.1232      2.00000
    158       0.1767      2.00000
    159       0.2242      2.00000
    160       0.2268      2.00000
    161       0.2628      2.00000
    162       0.3118      2.00000
    163       0.3352      2.00000
    164       0.3569      2.00000
    165       0.3843      2.00000
    166       0.4136      2.00001
    167       0.5362      2.00036
    168       0.5903      2.00140
    169       0.6045      2.00194
    170       0.6284      2.00329
    171       0.6573      2.00597
    172       0.6890      2.01078
    173       0.7152      2.01676
    174       0.7978      2.04870
    175       0.8076      2.05319
    176       0.8232      2.06001
    177       0.8637      2.07082
    178       0.8827      2.06890
    179       0.9234      2.03672
    180       0.9463      1.99462
    181       0.9560      1.97036
    182       1.0335      1.61273
    183       1.0700      1.34931
    184       1.1021      1.08612
    185       1.1038      1.07169
    186       1.1257      0.88654
    187       1.1395      0.77185
    188       1.1644      0.57508
    189       1.1819      0.44854
    190       1.1939      0.36876
    191       1.3124     -0.05042
    192       1.3461     -0.06989
    193       1.3753     -0.06871
    194       1.4097     -0.05643
    195       1.4443     -0.04062
    196       1.5044     -0.01813
    197       1.5993     -0.00308
    198       1.7413     -0.00008
    199       1.8337     -0.00000
    200       2.0060     -0.00000
    201       2.2379     -0.00000
    202       2.3397     -0.00000
    203       2.7888     -0.00000
    204       2.9486     -0.00000
    205       2.9685     -0.00000
    206       3.0118     -0.00000
    207       3.0219     -0.00000
    208       3.2256     -0.00000
    209       3.3950     -0.00000
    210       3.5315     -0.00000
    211       3.5859     -0.00000
    212       3.6092     -0.00000
    213       3.7345     -0.00000
    214       3.8195     -0.00000
    215       3.9712     -0.00000
    216       4.1705     -0.00000
    217       4.2580     -0.00000
    218       4.3932     -0.00000
    219       4.4272     -0.00000
    220       4.5976     -0.00000
    221       4.6507     -0.00000
    222       4.8404     -0.00000
    223       5.1672     -0.00000
    224       5.5555     -0.00000
    225       5.8445     -0.00000
    226       6.5414     -0.00000
    227       6.5757      0.00000
    228       6.6060      0.00000


--------------------------------------------------------------------------------------------------------


 soft charge-density along one line, spin component           1
         0         1         2         3         4         5         6         7         8         9
 total charge-density along one line
 
 pseudopotential strength for first ion, spin component:           1
 10.097   0.015   0.004   0.010   0.000  -0.004  -0.009  -0.000
  0.015  -0.002  -0.000  -0.000  -0.000  -0.000  -0.000   0.000
  0.004  -0.000  -4.247  -0.007   0.001  -0.010  -0.002   0.000
  0.010  -0.000  -0.007  -4.262   0.002  -0.002  -0.016   0.000
  0.000  -0.000   0.001   0.002  -4.244   0.000   0.000  -0.010
 -0.004  -0.000  -0.010  -0.002   0.000  -0.770  -0.000   0.000
 -0.009  -0.000  -0.002  -0.016   0.000  -0.000  -0.770   0.000
 -0.000   0.000   0.000   0.000  -0.010   0.000   0.000  -0.770
 total augmentation occupancy for first ion, spin component:           1
  1.644  -0.865   0.002  -0.007  -0.047   0.033   0.080  -0.019
 -0.865   1.200  -0.212  -0.533   0.071  -0.085  -0.224   0.024
  0.002  -0.212   0.855   0.201   0.010   0.116   0.056  -0.003
 -0.007  -0.533   0.201   1.321  -0.000   0.056   0.247  -0.005
 -0.047   0.071   0.010  -0.000   0.783  -0.003  -0.006   0.096
  0.033  -0.085   0.116   0.056  -0.003   0.020   0.022  -0.002
  0.080  -0.224   0.056   0.247  -0.006   0.022   0.070  -0.004
 -0.019   0.024  -0.003  -0.005   0.096  -0.002  -0.004   0.013


------------------------ aborting loop because EDIFF is reached ----------------------------------------


    CHARGE:  cpu time    0.7433: real time    0.8619
    FORLOC:  cpu time    0.0385: real time    0.0556
    FORNL :  cpu time    2.3234: real time    2.4171
    STRESS:  cpu time    7.2593: real time    7.4240
    FORCOR:  cpu time    0.2286: real time    0.2301
    FORHAR:  cpu time    0.1179: real time    0.1188
    MIXING:  cpu time    0.0392: real time    0.0395
    OFIELD:  cpu time    0.0000: real time    0.0000

  FORCE on cell =-STRESS in cart. coord.  units (eV):
  Direction    XX          YY          ZZ          XY          YZ          ZX
  --------------------------------------------------------------------------------------
  Alpha Z   975.10247   975.10247   975.10247
  Ewald  111145.95121111169.12676************  -187.07079   271.49351   -76.52685
  Hartree117906.46268117894.66643************  -122.84601   115.49734   -46.02588
  E(xc)   -1665.94585 -1665.68815 -1673.32811    -0.45560     0.76950    -0.17818
  Local  ************************239776.70186   299.23256  -360.89950   117.87302
  n-local   124.54439   123.46290    90.63865    -1.65797     1.55437    -0.08883
  augment  1894.97758  1893.35517  1932.73596     3.07147    -4.96291     0.77850
  Kinetic  5523.85626  5514.62551  5599.70285    10.22718   -23.45656     5.01966
  Fock        0.00000     0.00000     0.00000     0.00000     0.00000     0.00000
  -------------------------------------------------------------------------------------
  Total     -35.53258   -38.12259    -3.85351     0.50084    -0.00424     0.85143
  in kB     -42.31989   -45.40464    -4.58960     0.59650    -0.00505     1.01406
  external pressure =      -30.77 kB  Pullay stress =        0.00 kB


 VOLUME and BASIS-vectors are now :
 -----------------------------------------------------------------------------
  energy-cutoff  :      450.00
  volume of cell :     1345.22
      direct lattice vectors                 reciprocal lattice vectors
     7.296955120 -4.212899000  0.000000000     0.137043463  0.000000000  0.000000000
     0.000000000  8.425798000  0.000000000     0.068521732  0.118683121  0.000000000
     0.000000000  0.000000000 21.879635000     0.000000000  0.000000000  0.045704602

  length of vectors
     8.425798004  8.425798000 21.879635000     0.137043463  0.137043463  0.045704602


 FORCES acting on ions
    electron-ion (+dipol)            ewald-force                    non-local-force                 convergence-correction
 -----------------------------------------------------------------------------------------------
   0.178E+02 0.156E+02 -.886E+03   -.188E+02 -.202E+02 0.875E+03   0.546E+00 0.416E+01 0.113E+02   -.259E-01 0.101E-01 -.841E-02
   -.759E+02 0.352E+02 -.160E+04   0.754E+02 -.298E+02 0.162E+04   0.101E+01 -.521E+01 -.238E+02   -.386E-02 -.873E-02 -.412E-02
   0.499E+02 -.106E+03 -.155E+04   -.554E+02 0.128E+03 0.161E+04   0.579E+01 -.214E+02 -.576E+02   -.837E-02 0.739E-02 -.184E-01
   0.132E+00 0.316E+00 0.234E+04   -.989E-01 -.258E+00 -.234E+04   0.119E-01 -.469E-01 -.121E+01   -.205E-01 -.452E-01 0.715E-01
   0.268E-01 0.564E+00 0.234E+04   -.519E-01 -.575E+00 -.234E+04   -.963E-02 -.297E-01 -.112E+01   -.761E-02 0.610E-02 0.756E-01
   0.374E+00 0.180E+00 0.234E+04   -.406E+00 -.120E+00 -.234E+04   0.189E-01 -.207E-01 -.114E+01   -.103E-01 -.273E-01 0.746E-01
   -.720E-01 -.239E+00 0.234E+04   0.105E+00 0.312E+00 -.234E+04   0.249E-02 0.146E-01 -.119E+01   -.337E-01 -.349E-01 0.408E-01
   -.175E+00 -.269E+00 0.234E+04   0.150E+00 0.330E+00 -.234E+04   0.604E-02 0.202E-01 -.128E+01   0.159E-01 -.520E-01 0.524E-01
   -.473E-01 0.250E-01 0.234E+04   0.103E+00 -.342E-01 -.234E+04   0.114E-01 0.121E-01 -.123E+01   -.338E-01 -.237E-02 0.622E-01
   -.169E-01 -.420E+00 0.234E+04   0.591E-01 0.237E+00 -.234E+04   -.787E-01 0.909E-01 -.109E+01   0.533E-01 0.458E-01 0.479E-01
   0.162E+00 -.134E+00 0.234E+04   -.185E+00 0.156E+00 -.234E+04   -.114E-01 -.321E-01 -.129E+01   0.435E-01 0.298E-01 0.653E-01
   -.304E+00 -.860E-03 0.234E+04   0.324E+00 -.530E-01 -.234E+04   -.638E-02 -.130E-01 -.103E+01   -.679E-02 0.800E-01 0.552E-01
   -.270E+01 -.204E+01 0.855E+03   0.257E+01 0.188E+01 -.855E+03   0.130E+00 0.110E+00 -.412E+00   0.180E-01 0.784E-01 0.739E-01
   0.236E+01 0.897E+00 0.859E+03   -.258E+01 -.886E+00 -.859E+03   0.104E+00 -.477E-01 -.193E+00   0.630E-01 0.216E-01 0.756E-01
   0.338E+00 0.678E+00 0.862E+03   -.219E+00 -.857E+00 -.861E+03   -.568E-01 0.537E-01 -.398E+00   0.145E-03 0.411E-01 0.792E-01
   -.232E+00 0.429E+01 0.864E+03   0.238E+00 -.426E+01 -.864E+03   -.144E-01 -.731E-01 -.445E+00   -.587E-02 -.500E-01 0.873E-01
   0.108E+01 0.407E+01 0.861E+03   -.107E+01 -.404E+01 -.860E+03   0.504E-01 -.110E+00 -.312E+00   -.311E-01 -.756E-02 0.769E-01
   0.200E+01 -.259E+00 0.862E+03   -.198E+01 0.366E+00 -.862E+03   -.198E-01 -.225E-01 -.341E+00   -.406E-01 -.757E-01 0.799E-01
   -.213E+01 -.249E+01 0.859E+03   0.216E+01 0.266E+01 -.859E+03   -.274E-01 -.708E-01 -.295E+00   0.261E-01 -.285E-01 0.102E+00
   -.141E+00 -.344E+01 0.861E+03   0.128E+00 0.347E+01 -.861E+03   0.173E-01 0.456E-01 -.360E+00   0.192E-01 -.134E-01 0.103E+00
   -.749E+00 0.293E+00 0.860E+03   0.856E+00 -.191E+00 -.860E+03   0.132E-01 -.696E-01 -.301E+00   -.490E-01 0.348E-01 0.960E-01
   0.966E+00 -.149E+00 -.628E+03   -.107E+01 0.140E+00 0.627E+03   -.914E-02 0.125E+00 0.719E+00   0.284E-01 -.530E-01 -.297E-01
   0.153E+01 -.190E+01 -.651E+03   -.156E+01 0.199E+01 0.651E+03   0.432E-03 0.612E-02 0.106E+00   0.459E-01 -.334E-01 0.502E-01
   -.322E+01 -.364E+00 -.649E+03   0.293E+01 0.720E+00 0.649E+03   0.319E+00 -.268E+00 0.616E+00   -.546E-02 -.411E-01 -.679E-01
   -.532E+01 0.105E+02 -.639E+03   0.481E+01 -.979E+01 0.639E+03   0.615E+00 -.638E+00 -.414E+00   -.213E-01 -.111E-02 -.205E-01
   0.115E+02 0.538E+00 -.639E+03   -.108E+02 -.750E+00 0.639E+03   -.825E+00 0.272E+00 -.236E+00   0.162E-01 0.130E-01 -.866E-02
   -.516E+01 -.729E+01 -.630E+03   0.509E+01 0.716E+01 0.629E+03   0.680E-02 -.493E-01 0.381E+00   -.561E-02 0.524E-01 0.476E-01
   -.287E+01 -.214E+01 -.637E+03   0.290E+01 0.215E+01 0.636E+03   0.225E-01 -.205E-01 0.431E+00   -.158E-01 0.282E-01 0.354E-01
   0.169E+01 -.103E+01 -.619E+03   -.167E+01 0.990E+00 0.619E+03   -.451E-01 0.696E-01 0.507E+00   0.471E-02 0.720E-02 -.157E-01
   0.379E+00 0.130E+01 -.631E+03   -.342E+00 -.154E+01 0.631E+03   -.458E-01 0.219E+00 0.902E-01   -.396E-01 0.125E-01 0.446E-02
   -.191E+02 -.433E+01 -.216E+04   0.196E+02 0.475E+01 0.216E+04   -.534E+00 -.436E+00 0.132E+01   0.699E-01 0.972E-02 -.363E-01
   0.181E+02 0.261E+02 -.216E+04   -.186E+02 -.267E+02 0.216E+04   0.446E+00 0.786E+00 0.123E+01   -.129E-02 -.617E-01 -.182E-01
   0.205E+02 -.597E+01 -.211E+04   -.210E+02 0.601E+01 0.211E+04   0.594E+00 -.111E+00 0.135E+01   -.174E-01 0.756E-02 -.641E-01
   -.728E+01 0.111E+02 -.219E+04   0.713E+01 -.113E+02 0.219E+04   0.199E+00 0.113E+00 0.813E+00   -.320E-01 0.193E-01 -.119E-01
   0.159E+02 0.114E+02 -.219E+04   -.161E+02 -.119E+02 0.219E+04   0.184E+00 0.426E+00 0.871E+00   -.249E-02 -.799E-02 -.104E-01
   0.616E+02 0.575E+02 -.197E+04   -.644E+02 -.558E+02 0.197E+04   0.264E+01 -.155E+01 -.358E+01   -.189E-01 -.222E-01 -.269E-01
   -.418E+02 -.403E+02 -.205E+04   0.433E+02 0.426E+02 0.205E+04   -.161E+01 -.246E+01 0.254E+01   0.138E-01 0.682E-01 -.613E-01
   -.603E+02 0.800E+02 -.204E+04   0.606E+02 -.807E+02 0.204E+04   -.425E+00 0.789E+00 -.132E+01   0.151E-01 -.957E-01 -.881E-01
   0.123E+02 -.547E+02 -.211E+04   -.121E+02 0.560E+02 0.210E+04   -.128E+00 -.129E+01 0.136E+01   -.127E-02 0.617E-01 -.396E-01
 -----------------------------------------------------------------------------------------------
   -.883E+01 0.269E+02 0.761E+02   0.604E-13 -.924E-13 -.136E-11   0.890E+01 -.267E+02 -.770E+02   -.505E-02 -.272E-01 0.927E+00
 
 
 POSITION                                       TOTAL-FORCE (eV/Angst)
 -----------------------------------------------------------------------------------
      5.02215      0.66242     10.35023        -0.405700     -0.417189      0.267849
      6.65384     -0.55686     10.15463         0.597320      0.240425      0.037107
      4.92021      1.06908     11.43375         0.215461      0.011915     -0.036482
      7.20031     -1.38846      1.62732         0.022675     -0.037678      0.135455
      2.33567      1.42014      1.62732        -0.043856     -0.038099      0.155976
      4.76799      0.01584      1.62732        -0.024993      0.008272      0.144074
      7.20031      1.42015      1.62732         0.000643      0.049103      0.100382
      2.33567      4.22875      1.62732        -0.003945      0.025567      0.127136
      4.76799      2.82445      1.62732         0.031901     -0.003062      0.128374
      2.33567      7.03734      1.62732         0.015156     -0.049634      0.083643
      4.76799      5.63304      1.62732         0.007614      0.016635      0.120060
      7.20031      4.22874      1.62732         0.004666      0.009483      0.049094
      1.52490      0.01584      3.92052         0.019008      0.025631     -0.028077
      3.95722     -1.38846      3.92052        -0.054825     -0.018955     -0.007126
      6.38953     -2.79276      3.92052         0.060188     -0.087765     -0.139039
      1.52490      2.82445      3.92052        -0.015422     -0.096310     -0.185296
      3.95722      1.42015      3.92052         0.021730     -0.092877     -0.064001
      6.38953      0.01585      3.92052        -0.033262      0.005100     -0.050879
      1.52490      5.63305      3.92052         0.026554      0.069579     -0.132325
      3.95722      4.22874      3.92052         0.022172      0.058595     -0.100375
      6.38953      2.82445      3.92052         0.070508      0.063695     -0.199909
      0.72093      4.19390      6.17467        -0.088280      0.059625      0.224848
      3.14470      5.61716      6.22112         0.015239      0.062843     -0.254617
      5.56668     -1.39781      6.20153         0.021482      0.043669      0.408764
      0.67304      1.42904      6.21007         0.074317      0.051555      0.096140
      3.17314     -0.02203      6.21951        -0.121847      0.069645     -0.164938
      0.72564      7.04648      6.18983        -0.069275     -0.135653     -0.014531
      5.57634      4.22113      6.19446         0.041111      0.016888     -0.028710
      3.15229      2.80128      6.16949        -0.021630      0.037618      0.131971
      5.58980      1.40016      6.20255        -0.049313     -0.014712     -0.140854
      2.36043      4.21332      8.47611         0.011090     -0.008517     -0.125446
      4.75654      5.59602      8.51036        -0.021250      0.119392     -0.255823
      2.31740      1.39309      8.41905         0.021743     -0.061327      0.177409
      7.19627      4.19542      8.53931         0.018418     -0.119410     -0.203739
      2.32357      7.00426      8.54299         0.045953     -0.051153     -0.208990
      4.67583      0.03406      8.60794        -0.260804      0.154631     -0.279113
      7.27034      1.43710      8.41289        -0.102129     -0.092767      0.262821
      7.26533     -1.52119      8.61362        -0.082469      0.069439      0.050191
      4.77868      2.84562      8.46729         0.034052      0.055802     -0.081025
 -----------------------------------------------------------------------------------
    total drift:                                0.061983      0.139646     -0.007339
  FORCES: max atom, RMS     0.644959    0.216391
  Number: max atom                 2
  FORCE total and by dimension    1.351361    0.597320


--------------------------------------------------------------------------------------------------------



  FREE ENERGIE OF THE ION-ELECTRON SYSTEM (eV)
  ---------------------------------------------------
  free  energy   TOTEN  =      -230.65409646 eV

  energy  without entropy=     -230.62732028  energy(sigma->0) =     -230.64517107
 
 d Force = 0.4711903E-01[ 0.410E-01, 0.533E-01]  d Energy = 0.4746664E-01-0.348E-03
 d Force =-0.2436271E+02[-0.243E+02,-0.244E+02]  d Ewald  =-0.2436296E+02 0.250E-03


--------------------------------------------------------------------------------------------------------


    POTLOK:  cpu time    0.2374: real time    0.4319


--------------------------------------------------------------------------------------------------------


 stress matrix after NEB project (eV)
    -35.53258      0.50084      0.85143
      0.50084    -38.12259     -0.00424
      0.85143     -0.00424     -3.85351
  FORCES: max atom, RMS     0.644959    0.216391
  FORCE total and by dimension    1.351361    0.597320
  Stress total and by dimension   52.275208   38.122593
 Quasi-Newton relaxation of ions (Broydens 2nd method)
  g(Force)  = 0.352E-01   g(Stress)= 0.000E+00

 retain information from N=  3 steps
 eigenvalues of (default step * inverse Hessian matrix)
  average eigenvalue of G=   3.2931
 eigenvalue spectrum of G is  0.1243  2.3474  7.4077
  RESET_HESSIAN           0


--------------------------------------------------------------------------------------------------------


    WAVPRE:  cpu time    0.0721: real time    0.2684
    FEWALD:  cpu time    0.0046: real time    0.0102

 real space projection operators:
  total allocation   :      13546.98 KBytes
  max/ min on nodes  :       6782.06       6764.92

    ORTHCH:  cpu time    1.2095: real time    1.2337
     LOOP+:  cpu time   81.5700: real time   88.7493
