 vasp.5.4.4 16052018 (build Apr 24 2014 20:13:14) complex standard
 Contain Constrained Minimization Technique (TS), Periodic NBO, VASPsol, libbeef, VASP2WANNIER90, Constrained Cell Relaxation
 executed on Center for Computational Chemistry by phu@node06 date 2025.09.27 23:37:09
 running on    8 total cores
 distrk:  each k-point on    8 cores,    1 groups
 distr:  one band on NCORES_PER_BAND=   2 cores,    4 groups


--------------------------------------------------------------------------------------------------------


 INCAR:
 POTCAR:   PAW_PBE C 08Apr2002                    
 POTCAR:   PAW_PBE O 08Apr2002                    
 POTCAR:    PAW_PBE Pt 04Feb2005                  
 POTCAR:   PAW_PBE C 08Apr2002                    
   VRHFIN =C: s2p2                                                              
   LEXCH  = PE                                                                  
   EATOM  =   147.1560 eV,   10.8157 Ry                                         
                                                                                
   TITEL  = PAW_PBE C 08Apr2002                                                 
   LULTRA =        F    use ultrasoft PP ?                                      
   IUNSCR =        0    unscreen: 0-lin 1-nonlin 2-no                           
   RPACOR =     .000    partial core radius                                     
   POMASS =   12.011; ZVAL   =    4.000    mass and valenz                      
   RCORE  =    1.500    outmost cutoff radius                                   
   RWIGS  =    1.630; RWIGS  =     .863    wigner-seitz radius (au A)           
   ENMAX  =  400.000; ENMIN  =  300.000 eV                                      
   ICORE  =        2    local potential                                         
   LCOR   =        T    correct aug charges                                     
   LPAW   =        T    paw PP                                                  
   EAUG   =  644.873                                                            
   DEXC   =     .000                                                            
   RMAX   =    2.266    core radius for proj-oper                               
   RAUG   =    1.300    factor for augmentation sphere                          
   RDEP   =    1.501    radius for radial grids                                 
   RDEPT  =    1.300    core radius for aug-charge                              
   QCUT   =   -5.516; QGAM   =   11.032    optimization parameters              
                                                                                
   Description                                                                  
     l     E      TYP  RCUT    TYP  RCUT                                        
     0   .000     23  1.200                                                     
     0   .000     23  1.200                                                     
     1   .000     23  1.500                                                     
     1  2.500     23  1.500                                                     
     2   .000      7  1.500                                                     
  local pseudopotential read in
  atomic valenz-charges read in
  non local Contribution for L=           0  read in
    real space projection operators read in
  non local Contribution for L=           0  read in
    real space projection operators read in
  non local Contribution for L=           1  read in
    real space projection operators read in
  non local Contribution for L=           1  read in
    real space projection operators read in
    PAW grid and wavefunctions read in
 
   number of l-projection  operators is LMAX  =           4
   number of lm-projection operators is LMMAX =           8
 
 POTCAR:   PAW_PBE O 08Apr2002                    
   VRHFIN =O: s2p4                                                              
   LEXCH  = PE                                                                  
   EATOM  =   432.3788 eV,   31.7789 Ry                                         
                                                                                
   TITEL  = PAW_PBE O 08Apr2002                                                 
   LULTRA =        F    use ultrasoft PP ?                                      
   IUNSCR =        0    unscreen: 0-lin 1-nonlin 2-no                           
   RPACOR =     .000    partial core radius                                     
   POMASS =   16.000; ZVAL   =    6.000    mass and valenz                      
   RCORE  =    1.520    outmost cutoff radius                                   
   RWIGS  =    1.550; RWIGS  =     .820    wigner-seitz radius (au A)           
   ENMAX  =  400.000; ENMIN  =  300.000 eV                                      
   ICORE  =        2    local potential                                         
   LCOR   =        T    correct aug charges                                     
   LPAW   =        T    paw PP                                                  
   EAUG   =  605.392                                                            
   DEXC   =     .000                                                            
   RMAX   =    2.264    core radius for proj-oper                               
   RAUG   =    1.300    factor for augmentation sphere                          
   RDEP   =    1.550    radius for radial grids                                 
   QCUT   =   -5.520; QGAM   =   11.041    optimization parameters              
                                                                                
   Description                                                                  
     l     E      TYP  RCUT    TYP  RCUT                                        
     0   .000     23  1.200                                                     
     0  -.700     23  1.200                                                     
     1   .000     23  1.520                                                     
     1   .600     23  1.520                                                     
     2   .000      7  1.500                                                     
  local pseudopotential read in
  atomic valenz-charges read in
  non local Contribution for L=           0  read in
    real space projection operators read in
  non local Contribution for L=           0  read in
    real space projection operators read in
  non local Contribution for L=           1  read in
    real space projection operators read in
  non local Contribution for L=           1  read in
    real space projection operators read in
    PAW grid and wavefunctions read in
 
   number of l-projection  operators is LMAX  =           4
   number of lm-projection operators is LMMAX =           8
 
 POTCAR:    PAW_PBE Pt 04Feb2005                  
   VRHFIN =Pt: s1d9                                                             
   LEXCH  = PE                                                                  
   EATOM  =   729.1182 eV,   53.5887 Ry                                         
                                                                                
   TITEL  = PAW_PBE Pt 04Feb2005                                                
   LULTRA =        F    use ultrasoft PP ?                                      
   IUNSCR =        1    unscreen: 0-lin 1-nonlin 2-no                           
   RPACOR =    2.330    partial core radius                                     
   POMASS =  195.080; ZVAL   =   10.000    mass and valenz                      
   RCORE  =    2.600    outmost cutoff radius                                   
   RWIGS  =    2.750; RWIGS  =    1.455    wigner-seitz radius (au A)           
   ENMAX  =  230.283; ENMIN  =  172.712 eV                                      
   ICORE  =        3    local potential                                         
   LCOR   =        T    correct aug charges                                     
   LPAW   =        T    paw PP                                                  
   EAUG   =  358.966                                                            
   DEXC   =     .000                                                            
   RMAX   =    3.038    core radius for proj-oper                               
   RAUG   =    1.300    factor for augmentation sphere                          
   RDEP   =    2.761    radius for radial grids                                 
   QCUT   =   -4.114; QGAM   =    8.228    optimization parameters              
                                                                                
   Description                                                                  
     l     E      TYP  RCUT    TYP  RCUT                                        
     2   .000     23  2.500                                                     
     2   .000     23  2.500                                                     
     0   .000     23  2.500                                                     
     0   .000     23  2.500                                                     
     1  -.200     23  2.600                                                     
     1  1.500     23  2.600                                                     
     3   .000     23  2.500                                                     
  local pseudopotential read in
  partial core-charges read in
  atomic valenz-charges read in
  non local Contribution for L=           2  read in
    real space projection operators read in
  non local Contribution for L=           2  read in
    real space projection operators read in
  non local Contribution for L=           0  read in
    real space projection operators read in
  non local Contribution for L=           0  read in
    real space projection operators read in
  non local Contribution for L=           1  read in
    real space projection operators read in
  non local Contribution for L=           1  read in
    real space projection operators read in
    PAW grid and wavefunctions read in
 
   number of l-projection  operators is LMAX  =           6
   number of lm-projection operators is LMMAX =          18
 
 Optimization of the real space projectors (new method)

 maximal supplied QI-value         = 25.13
 optimisation between [QCUT,QGAM] = [ 10.81, 21.61] = [ 32.71,130.83] Ry 
 Optimized for a Real-space Cutoff    1.23 Angstroem

   l    n(q)    QCUT    max X(q) W(low)/X(q) W(high)/X(q)  e(spline) 
   0      8    10.807     5.582    0.53E-04    0.84E-04    0.44E-07
   0      8    10.807    69.432    0.35E-03    0.71E-03    0.24E-06
   1      7    10.807     2.780    0.44E-04    0.88E-04    0.89E-07
   1      7    10.807     4.549    0.14E-03    0.28E-03    0.13E-06
 Optimization of the real space projectors (new method)

 maximal supplied QI-value         = 24.76
 optimisation between [QCUT,QGAM] = [ 10.64, 21.54] = [ 31.73,129.89] Ry 
 Optimized for a Real-space Cutoff    1.23 Angstroem

   l    n(q)    QCUT    max X(q) W(low)/X(q) W(high)/X(q)  e(spline) 
   0      8    10.645     4.192    0.69E-04    0.93E-04    0.58E-07
   0      8    10.645     8.473    0.40E-03    0.65E-03    0.17E-06
   1      7    10.645     2.474    0.80E-04    0.12E-03    0.30E-07
   1      7    10.645     3.912    0.24E-03    0.53E-03    0.16E-06
 Optimization of the real space projectors (new method)

 maximal supplied QI-value         = 14.36
 optimisation between [QCUT,QGAM] = [ 10.77, 21.69] = [ 32.49,131.70] Ry 
 Optimized for a Real-space Cutoff    1.46 Angstroem

   l    n(q)    QCUT    max X(q) W(low)/X(q) W(high)/X(q)  e(spline) 
   2      9    10.771     3.903    0.38E-04    0.12E-03    0.82E-07
   2      9    10.771    18.372    0.13E-03    0.32E-03    0.28E-06
   0     10    10.771    13.697    0.11E-04    0.86E-05    0.85E-08
   0     10    10.771    65.529    0.40E-04    0.12E-03    0.14E-06
   1      9    10.771     7.604    0.48E-04    0.31E-04    0.38E-07
   1      9    10.771    12.136    0.35E-03    0.16E-03    0.23E-06
 PAW_PBE C 08Apr2002                    :
 energy of atom  1       EATOM= -147.1560
 kinetic energy error for atom=    0.0116 (will be added to EATOM!!)
 PAW_PBE O 08Apr2002                    :
 energy of atom  2       EATOM= -432.3788
 kinetic energy error for atom=    0.0389 (will be added to EATOM!!)
  PAW_PBE Pt 04Feb2005                  :
 energy of atom  3       EATOM= -729.1182
 kinetic energy error for atom=    0.0051 (will be added to EATOM!!)
 
 
 POSCAR: C    O    Pt                            
  positions in direct lattice
  No initial velocities read in
 exchange correlation table for  LEXCH =        8
   RHO(1)=    0.500       N(1)  =     2000
   RHO(2)=  100.500       N(2)  =     4000

 VTST: version 3.2, (02/03/18)

 CHAIN: initializing optimizer
 
 OPT: Using VASP QUASI-newton optimizer
 CHAIN: Read ICHAIN            0
 
 POSCAR: C    O    Pt                            
  positions in direct lattice
  No initial velocities read in
 


--------------------------------------------------------------------------------------------------------


 ion  position               nearest neighbor table
   1  0.705  0.431  0.477-   3 1.16   2 1.89  36 2.08
   2  0.902  0.389  0.462-   1 1.89  38 1.99  36 2.53  37 2.61
   3  0.677  0.458  0.527-   1 1.16
   4  0.987  0.329  0.074-  15 2.81  16 2.81  12 2.81   5 2.81  11 2.81   6 2.81  18 2.81   8 2.81
                             7 2.81
   5  0.320  0.329  0.074-  13 2.81  10 2.81   4 2.81  12 2.81  16 2.81  17 2.81   8 2.81   9 2.81
                             6 2.81
   6  0.653  0.329  0.074-  14 2.81  18 2.81  11 2.81   4 2.81  17 2.81   7 2.81  10 2.81   9 2.81
                             5 2.81
   7  0.987  0.662  0.074-  18 2.81  21 2.81  19 2.81  12 2.81   8 2.81  10 2.81   9 2.81   6 2.81
                             4 2.81
   8  0.320  0.662  0.074-  16 2.81  19 2.81  10 2.81   7 2.81  20 2.81   4 2.81  11 2.81   5 2.81
                             9 2.81
   9  0.653  0.662  0.074-  17 2.81  20 2.81  21 2.81  11 2.81  12 2.81   7 2.81   6 2.81   5 2.81
                             8 2.81
  10  0.320  0.995  0.074-  13 2.81  19 2.81   5 2.81   8 2.81  12 2.81   7 2.81  14 2.81   6 2.81
                            11 2.81
  11  0.653  0.995  0.074-  14 2.81  20 2.81  15 2.81   9 2.81   6 2.81  12 2.81   4 2.81   8 2.81
                            10 2.81
  12  0.987  0.995  0.074-  15 2.81  21 2.81  13 2.81   7 2.81   4 2.81  10 2.81   5 2.81  11 2.81
                             9 2.81
  13  0.209  0.106  0.179-  27 2.74  10 2.81   5 2.81  12 2.81  19 2.81  15 2.81  21 2.81  16 2.81
                            17 2.81  14 2.81  26 2.83  25 2.85
  14  0.542  0.106  0.179-  23 2.73  26 2.79   6 2.81  11 2.81  20 2.81  15 2.81  10 2.81  18 2.81
                            19 2.81  17 2.81  13 2.81  24 2.88
  15  0.876  0.106  0.179-  28 2.77  25 2.79   4 2.81  12 2.81  11 2.81  21 2.81  13 2.81  20 2.81
                            14 2.81  16 2.81  18 2.81  24 2.91
  16  0.209  0.440  0.179-  29 2.77   8 2.81   4 2.81  19 2.81  18 2.81   5 2.81  15 2.81  20 2.81
                            13 2.81  17 2.81  25 2.81  22 2.86
  17  0.542  0.440  0.179-  29 2.76  30 2.78   9 2.81  20 2.81  21 2.81  18 2.81   6 2.81   5 2.81
                            14 2.81  16 2.81  13 2.81  26 2.83
  18  0.876  0.440  0.179-  30 2.80   7 2.81   6 2.81  21 2.81  16 2.81  19 2.81  17 2.81   4 2.81
                            14 2.81  15 2.81  22 2.87  24 2.90
  19  0.209  0.773  0.179-  27 2.70  23 2.74   8 2.81  10 2.81   7 2.81  16 2.81  13 2.81  18 2.81
                            21 2.81  14 2.81  20 2.81  22 2.86
  20  0.542  0.773  0.179-  23 2.76  28 2.79  29 2.79  11 2.81   9 2.81  17 2.81  14 2.81  21 2.81
                            15 2.81   8 2.81  16 2.81  19 2.81
  21  0.876  0.773  0.179-  27 2.71  28 2.77   7 2.81  12 2.81   9 2.81  18 2.81  15 2.81  19 2.81
                            13 2.81  17 2.81  20 2.81  30 2.81
  22  0.100  0.551  0.287-  31 2.69  25 2.76  27 2.78  37 2.79  29 2.80  23 2.81  38 2.82  24 2.84
                            30 2.84  16 2.86  19 2.86  18 2.87
  23  0.430  0.887  0.280-  14 2.73  26 2.74  19 2.74  20 2.76  27 2.78  24 2.79  22 2.81  31 2.82
                            28 2.85  29 2.87  32 2.89  35 2.90
  24  0.761  0.216  0.289-  36 2.72  26 2.74  32 2.76  25 2.77  23 2.79  38 2.79  30 2.80  28 2.82
                            22 2.84  14 2.88  18 2.90  15 2.91
  25  0.091  0.219  0.285-  38 2.70  22 2.76  24 2.77  28 2.78  34 2.78  15 2.79  29 2.81  16 2.81
                            33 2.84  13 2.85  27 2.90  26 2.92
  26  0.435  0.214  0.284-  23 2.74  24 2.74  36 2.74  30 2.77  14 2.79  29 2.83  17 2.83  13 2.83
                            27 2.85  33 2.86  35 2.86  25 2.92
  27  0.096  0.878  0.279-  19 2.70  21 2.71  13 2.74  23 2.78  22 2.78  28 2.80  30 2.81  34 2.82
                            26 2.85  37 2.87  25 2.90  35 2.99
  28  0.767  0.885  0.282-  21 2.77  15 2.77  25 2.78  34 2.78  20 2.79  27 2.80  24 2.82  30 2.82
                            29 2.84  23 2.85  32 2.89  39 2.95
  29  0.430  0.547  0.282-  17 2.76  16 2.77  30 2.78  20 2.79  22 2.80  25 2.81  31 2.82  26 2.83
                            28 2.84  33 2.86  23 2.87  39 2.97
  30  0.760  0.547  0.283-  26 2.77  17 2.78  29 2.78  24 2.80  18 2.80  36 2.81  27 2.81  21 2.81
                            28 2.82  22 2.84  39 2.88  37 2.88
  31  0.319  0.665  0.386-  22 2.69  35 2.75  32 2.78  37 2.78  23 2.82  29 2.82  38 2.83  33 2.84
                            39 2.90
  32  0.649  0.993  0.391-  35 2.74  24 2.76  31 2.78  36 2.81  38 2.83  39 2.85  34 2.89  28 2.89
                            23 2.89
  33  0.319  0.328  0.390-  38 2.68  36 2.77  34 2.83  39 2.84  31 2.84  25 2.84  35 2.84  29 2.86
                            26 2.86
  34  0.989  0.988  0.385-  37 2.70  38 2.76  39 2.77  25 2.78  28 2.78  35 2.81  27 2.82  33 2.83
                            32 2.89
  35  0.324  0.994  0.392-  32 2.74  36 2.75  31 2.75  37 2.77  34 2.81  33 2.84  26 2.86  23 2.90
                            27 2.99
  36  0.645  0.325  0.388-   1 2.08   2 2.53  24 2.72  26 2.74  35 2.75  33 2.77  39 2.77  32 2.81
                            30 2.81  37 2.91  38 2.98
  37  0.991  0.669  0.390-   2 2.61  34 2.70  39 2.76  35 2.77  31 2.78  22 2.79  27 2.87  30 2.88
                            36 2.91  38 2.97
  38  0.995  0.318  0.390-   2 1.99  33 2.68  25 2.70  34 2.76  24 2.79  22 2.82  32 2.83  31 2.83
                            37 2.97  36 2.98
  39  0.660  0.660  0.394-  37 2.76  36 2.77  34 2.77  33 2.84  32 2.85  30 2.88  31 2.90  28 2.95
                            29 2.97
 

IMPORTANT INFORMATION: All symmetrisations will be switched off!
NOSYMM: (Re-)initialisation of all symmetry stuff for point group C_1.

 
 
 KPOINTS: mesh auto                               

Automatic generation of k-mesh.
Space group operators:
 irot       det(A)        alpha          n_x          n_y          n_z        tau_x        tau_y        tau_z
    1     1.000000     0.000000     1.000000     0.000000     0.000000     0.000000     0.000000     0.000000
 
 Subroutine IBZKPT returns following result:
 ===========================================
 
 Found      4 irreducible k-points:
 
 Following reciprocal coordinates:
            Coordinates               Weight
  0.000000  0.000000  0.000000      1.000000
  0.500000  0.000000  0.000000      1.000000
 -0.000000  0.500000  0.000000      1.000000
  0.500000  0.500000  0.000000      1.000000
 
 Following cartesian coordinates:
            Coordinates               Weight
  0.000000  0.000000  0.000000      1.000000
  0.068522  0.000000  0.000000      1.000000
  0.034261  0.059342  0.000000      1.000000
  0.102783  0.059342  0.000000      1.000000
 


--------------------------------------------------------------------------------------------------------




 Dimension of arrays:
   k-points           NKPTS =      4   k-points in BZ     NKDIM =      4   number of bands    NBANDS=    228
   number of dos      NEDOS =    301   number of ions     NIONS =     39
   non local maximal  LDIM  =      6   non local SUM 2l+1 LMDIM =     18
   total plane-waves  NPLWV = 276480
   max r-space proj   IRMAX =   2756   max aug-charges    IRDMAX=  12646
   dimension x,y,z NGX =    48 NGY =   48 NGZ =  120
   dimension x,y,z NGXF=    96 NGYF=   96 NGZF=  240
   support grid    NGXF=    96 NGYF=   96 NGZF=  240
   ions per type =               1   2  36
   NGX,Y,Z   is equivalent  to a cutoff of   9.47,  9.47,  9.12 a.u.
   NGXF,Y,Z  is equivalent  to a cutoff of  18.94, 18.94, 18.24 a.u.

 SYSTEM =  metal                                   
 POSCAR =  C    O    Pt                            

 Startparameter for this run:
   NWRITE =      2    write-flag & timer
   PREC   = normal    normal or accurate (medium, high low for compatibility)
   ISTART =      0    job   : 0-new  1-cont  2-samecut
   ICHARG =      2    charge: 1-file 2-atom 10-const
   ISPIN  =      1    spin polarized calculation?
   LNONCOLLINEAR =      F non collinear calculations
   LSORBIT =      F    spin-orbit coupling
   INIWAV =      1    electr: 0-lowe 1-rand  2-diag
   LASPH  =      F    aspherical Exc in radial PAW
   METAGGA=      F    non-selfconsistent MetaGGA calc.

 Electronic Relaxation 1
   ENCUT  =  450.0 eV  33.07 Ry    5.75 a.u.  14.57 14.57 37.84*2*pi/ulx,y,z
   ENINI  =  450.0     initial cutoff
   ENAUG  =  644.9 eV  augmentation charge cutoff
   NELM   =     60;   NELMIN=  8; NELMDL= -5     # of ELM steps 
   EDIFF  = 0.1E-03   stopping-criterion for ELM
   LREAL  =      T    real-space projection
   NLSPLINE    = F    spline interpolate recip. space projectors
   LCOMPAT=      F    compatible to vasp.4.4
   GGA_COMPAT  = T    GGA compatible to vasp.4.4-vasp.4.6
   LMAXPAW     = -100 max onsite density
   LMAXMIX     =    2 max onsite mixed and CHGCAR
   VOSKOWN=      0    Vosko Wilk Nusair interpolation
   ROPT   =   -0.00050  -0.00050  -0.00050
 Ionic relaxation
   EDIFFG = -.5E-01   stopping-criterion for IOM
   NSW    =   5000    number of steps for IOM
   NBLOCK =      1;   KBLOCK =   5000    inner block; outer block 
   IBRION =      1    ionic relax: 0-MD 1-quasi-New 2-CG
   NFREE  =      0    steps in history (QN), initial steepest desc. (CG)
   ISIF   =      2    stress and relaxation
   IWAVPR =     11    prediction:  0-non 1-charg 2-wave 3-comb
   ISYM   =      0    0-nonsym 1-usesym 2-fastsym
   LCORR  =      T    Harris-Foulkes like correction to forces

   POTIM  = 0.2000    time-step for ionic-motion
   TEIN   =    0.0    initial temperature
   TEBEG  =    0.0;   TEEND  =   0.0 temperature during run
   SMASS  =  -3.00    Nose mass-parameter (am)
   estimated Nose-frequenzy (Omega)   =  0.10E-29 period in steps =****** mass=  -0.162E-26a.u.
   SCALEE = 1.0000    scale energy and forces
   NPACO  =    256;   APACO  = 16.0  distance and # of slots for P.C.
   PSTRESS=    0.0 pullay stress

  Mass of Ions in am
   POMASS =  12.01 16.00195.08
  Ionic Valenz
   ZVAL   =   4.00  6.00 10.00
  Atomic Wigner-Seitz radii
   RWIGS  =  -1.00 -1.00 -1.00
  virtual crystal weights 
   VCA    =   1.00  1.00  1.00
   NELECT =     376.0000    total number of electrons
   NUPDOWN=      -1.0000    fix difference up-down

 DOS related values:
   EMIN   =  10.00;   EMAX   =-10.00  energy-range for DOS
   EFERMI =   0.00
   ISMEAR =     1;   SIGMA  =   0.20  broadening in eV -4-tet -1-fermi 0-gaus

 Electronic relaxation 2 (details)
   IALGO  =     68    algorithm
   LDIAG  =      T    sub-space diagonalisation (order eigenvalues)
   LSUBROT=      F    optimize rotation matrix (better conditioning)
   TURBO    =      0    0=normal 1=particle mesh
   IRESTART =      0    0=no restart 2=restart with 2 vectors
   NREBOOT  =      0    no. of reboots
   NMIN     =      0    reboot dimension
   EREF     =   0.00    reference energy to select bands
   IMIX   =      4    mixing-type and parameters
     AMIX     =   0.40;   BMIX     =  1.00
     AMIX_MAG =   1.60;   BMIX_MAG =  1.00
     AMIN     =   0.10
     WC   =   100.;   INIMIX=   1;  MIXPRE=   1;  MAXMIX= -45

 Intra band minimization:
   WEIMIN = 0.0010     energy-eigenvalue tresh-hold
   EBREAK =  0.11E-06  absolut break condition
   DEPER  =   0.30     relativ break condition  

   TIME   =   0.40     timestep for ELM

  volume/ion in A,a.u.               =      34.49       232.77
  Fermi-wavevector in a.u.,A,eV,Ry     =   1.070385  2.022734 15.588510  1.145723
  Thomas-Fermi vector in A             =   2.206093
 
 Write flags
   LWAVE        =      F    write WAVECAR
   LDOWNSAMPLE  =      F    k-point downsampling of WAVECAR
   LCHARG       =      F    write CHGCAR
   LVTOT        =      F    write LOCPOT, total local potential
   LVHAR        =      F    write LOCPOT, Hartree potential only
   LELF         =      F    write electronic localiz. function (ELF)
   LORBIT       =      0    0 simple, 1 ext, 2 COOP (PROOUT), +10 PAW based schemes


 Dipole corrections
   LMONO  =      F    monopole corrections only (constant potential shift)
   LDIPOL =      F    correct potential (dipole corrections)
   IDIPOL =      0    1-x, 2-y, 3-z, 4-all directions 
   EPSILON=  1.0000000 bulk dielectric constant

 Exchange correlation treatment:
   GGA     =    --    GGA type
   LEXCH   =     8    internal setting for exchange type
   VOSKOWN=      0    Vosko Wilk Nusair interpolation
   LHFCALC =     F    Hartree Fock is set to
   LHFONE  =     F    Hartree Fock one center treatment
   AEXX    =    0.0000 exact exchange contribution

 Linear response parameters
   LEPSILON=     F    determine dielectric tensor
   LRPA    =     F    only Hartree local field effects (RPA)
   LNABLA  =     F    use nabla operator in PAW spheres
   LVEL    =     F    velocity operator in full k-point grid
   LINTERFAST=   F  fast interpolation
   KINTER  =     0    interpolate to denser k-point grid
   CSHIFT  =0.1000    complex shift for real part using Kramers Kronig
   OMEGAMAX=  -1.0    maximum frequency
   DEG_THRESHOLD= 0.2000000E-02 threshold for treating states as degnerate
   RTIME   =   -0.100 relaxation time in fs
  (WPLASMAI=    0.000 imaginary part of plasma frequency in eV, 0.658/RTIME)
   DFIELD  = 0.0000000 0.0000000 0.0000000 field for delta impulse in time
 
 Orbital magnetization related:
   ORBITALMAG=     F  switch on orbital magnetization
   LCHIMAG   =     F  perturbation theory with respect to B field
   DQ        =  0.001000  dq finite difference perturbation B field
   LLRAUG    =     F  two centre corrections for induced B field



--------------------------------------------------------------------------------------------------------


 quasi-Newton-method for relaxation of ions
   using selective dynamics as specified on POSCAR
 charge density and potential will be updated during run
 non-spin polarized calculation
 RMM-DIIS sequential band-by-band and
  variant of blocked Davidson during initial phase
 perform sub-space diagonalisation
    before iterative eigenvector-optimisation
 modified Broyden-mixing scheme, WC =      100.0
 initial mixing is a Kerker type mixing with AMIX =  0.4000 and BMIX =      1.0000
 Hartree-type preconditioning will be used
 using additional bands           40
 real space projection scheme for non local part
 use partial core corrections
 calculate Harris-corrections to forces 
   (improved forces if not selfconsistent)
 use gradient corrections 
 use of overlap-Matrix (Vanderbilt PP)
 Methfessel and Paxton  Order N= 1 SIGMA  =   0.20


--------------------------------------------------------------------------------------------------------


  energy-cutoff  :      450.00
  volume of cell :     1345.22
      direct lattice vectors                 reciprocal lattice vectors
     7.296955120 -4.212899000  0.000000000     0.137043463  0.000000000  0.000000000
     0.000000000  8.425798000  0.000000000     0.068521732  0.118683121  0.000000000
     0.000000000  0.000000000 21.879635000     0.000000000  0.000000000  0.045704602

  length of vectors
     8.425798004  8.425798000 21.879635000     0.137043463  0.137043463  0.045704602


 
 k-points in units of 2pi/SCALE and weight: mesh auto                               
   0.00000000  0.00000000  0.00000000       0.250
   0.06852173  0.00000000  0.00000000       0.250
   0.03426087  0.05934156  0.00000000       0.250
   0.10278260  0.05934156  0.00000000       0.250
 
 k-points in reciprocal lattice and weights: mesh auto                               
   0.00000000  0.00000000  0.00000000       0.250
   0.50000000  0.00000000  0.00000000       0.250
  -0.00000000  0.50000000  0.00000000       0.250
   0.50000000  0.50000000  0.00000000       0.250
 
 position of ions in fractional coordinates (direct lattice) 
   0.70524099  0.43113943  0.47661780
   0.90184235  0.38868188  0.46187038
   0.67710444  0.45799531  0.52650633
   0.98675500  0.32859100  0.07437600
   0.32008800  0.32859100  0.07437600
   0.65342200  0.32859100  0.07437600
   0.98675500  0.66192500  0.07437600
   0.32008800  0.66192500  0.07437600
   0.65342200  0.66192500  0.07437600
   0.32008800  0.99525800  0.07437600
   0.65342200  0.99525800  0.07437600
   0.98675500  0.99525800  0.07437600
   0.20897700  0.10636900  0.17918600
   0.54231100  0.10636900  0.17918600
   0.87564400  0.10636900  0.17918600
   0.20897700  0.43970300  0.17918600
   0.54231100  0.43970300  0.17918600
   0.87564400  0.43970300  0.17918600
   0.20897700  0.77303600  0.17918600
   0.54231100  0.77303600  0.17918600
   0.87564400  0.77303600  0.17918600
   0.09969434  0.55097774  0.28706949
   0.43012063  0.88717032  0.28045867
   0.76107559  0.21596401  0.28895297
   0.09146074  0.21927954  0.28463488
   0.43517024  0.21429300  0.28435408
   0.09629870  0.87825541  0.27889872
   0.76709888  0.88507224  0.28209996
   0.43041848  0.54726218  0.28200156
   0.76021903  0.54695375  0.28336146
   0.31894085  0.66488995  0.38567814
   0.64921743  0.99306565  0.39072821
   0.31873532  0.32835168  0.39017650
   0.98886369  0.98789357  0.38534066
   0.32412140  0.99355583  0.39248252
   0.64547992  0.32459750  0.38824819
   0.99111915  0.66859143  0.39003589
   0.99512586  0.31781584  0.38953567
   0.65979690  0.66002900  0.39394506
 
 position of ions in cartesian coordinates  (Angst):
   5.14611184  0.66158467 10.42822346
   6.58070318 -0.52441577 10.10555528
   4.94080074  1.00640334 11.51976633
   7.20030695 -1.38845776  1.62731973
   2.33566777  1.42014298  1.62731973
   4.76799101  0.01584050  1.62731973
   7.20030695  1.42014719  1.62731973
   2.33566777  4.22874793  1.62731973
   4.76799101  2.82444545  1.62731973
   2.33566777  7.03734445  1.62731973
   4.76799101  5.63304198  1.62731973
   7.20030695  4.22874371  1.62731973
   1.52489579  0.01584471  3.92052428
   3.95721903 -1.38845776  3.92052428
   6.38953497 -2.79275602  3.92052428
   1.52489579  2.82444966  3.92052428
   3.95721903  1.42014719  3.92052428
   6.38953497  0.01584893  3.92052428
   1.52489579  5.63304619  3.92052428
   3.95721903  4.22874371  3.92052428
   6.38953497  2.82444545  3.92052428
   0.72746509  4.22242498  6.28097563
   3.13857091  5.66306313  6.13633338
   5.55353444 -1.38666547  6.32218550
   0.66738493  1.46229027  6.22770718
   3.17541768 -0.02773872  6.22156347
   0.70268731  6.99430593  6.10220223
   5.59748607  4.22572986  6.17224418
   3.14074435  2.79781101  6.17009112
   5.54728411  1.40579585  6.19984529
   2.32729708  4.25856281  8.43849685
   4.73731047  5.63228313  8.54899052
   2.32579729  1.42382521  8.53691945
   7.21569394  4.15780883  8.43111291
   2.36509933  7.00600995  8.58737421
   4.71003804  0.01565120  8.49472879
   7.23215199  1.45793139  8.53384283
   7.26138876 -1.51451266  8.52289833
   4.81450835  2.78161337  8.61937409
 


--------------------------------------------------------------------------------------------------------


 k-point  1 :   0.0000 0.0000 0.0000  plane waves:   29241
 k-point  2 :   0.5000 0.0000 0.0000  plane waves:   29108
 k-point  3 :  -0.0000 0.5000 0.0000  plane waves:   29108
 k-point  4 :   0.5000 0.5000 0.0000  plane waves:   29108

 maximum and minimum number of plane-waves per node :     14624    14548

 maximum number of plane-waves:     29241
 maximum index in each direction: 
   IXMAX=   14   IYMAX=   14   IZMAX=   37
   IXMIN=  -15   IYMIN=  -15   IZMIN=  -37


 real space projection operators:
  total allocation   :      13558.70 KBytes
  max/ min on nodes  :       6784.97       6773.73


 parallel 3D FFT for wavefunctions:
    minimum data exchange during FFTs selected (reduces bandwidth)
 parallel 3D FFT for charge:
    minimum data exchange during FFTs selected (reduces bandwidth)


 total amount of memory used by VASP MPI-rank0   131951. kBytes
=======================================================================

   base      :      30000. kBytes
   nonlr-proj:      10143. kBytes
   fftplans  :      13556. kBytes
   grid      :      23353. kBytes
   one-center:        311. kBytes
   wavefun   :      54588. kBytes
 
     INWAV:  cpu time    0.0001: real time    0.0002
 Broyden mixing: mesh for mixing (old mesh)
   NGX = 29   NGY = 29   NGZ = 75
  (NGX  = 96   NGY  = 96   NGZ  =240)
  gives a total of  63075 points

 initial charge density was supplied:
 charge density of overlapping atoms calculated
 number of electron     376.0000000 magnetization 
 keeping initial charge density in first step


--------------------------------------------------------------------------------------------------------


 Maximum index for non-local projection operator         1317
 Maximum index for augmentation-charges         1558 (set IRDMAX)


--------------------------------------------------------------------------------------------------------


 First call to EWALD:  gamma=   0.161
 Maximum number of real-space cells 4x 4x 2
 Maximum number of reciprocal cells 2x 2x 5

    FEWALD:  cpu time    0.0022: real time    0.0022


--------------------------------------- Iteration      1(   1)  ---------------------------------------


    POTLOK:  cpu time    0.1370: real time    0.2517
    SETDIJ:  cpu time    0.0113: real time    0.0114
     EDDAV:  cpu time    8.4354: real time    8.5059
       DOS:  cpu time    0.0010: real time    0.0010
    --------------------------------------------
      LOOP:  cpu time    8.5848: real time    8.7701

 eigenvalue-minimisations  :  1824
 total energy-change (2. order) : 0.2418351E+04  (-0.1594800E+05)
 number of electron     376.0000000 magnetization 
 augmentation part      376.0000000 magnetization 

 Free energy of the ion-electron system (eV)
  ---------------------------------------------------
  alpha Z        PSCENC =       975.10247152
  Ewald energy   TEWEN  =     90940.96910366
  -Hartree energ DENC   =   -120035.22855184
  -exchange      EXHF   =         0.00000000
  -V(xc)+E(xc)   XCENC  =       189.28058028
  PAW double counting   =     24789.08602224   -23775.73976456
  entropy T*S    EENTRO =         0.00553255
  eigenvalues    EBANDS =      2074.98125880
  atomic energy  EATOM  =     27259.89416086
  Solvation  Ediel_sol  =         0.00000000
  ---------------------------------------------------
  free energy    TOTEN  =      2418.35081351 eV

  energy without entropy =     2418.34528096  energy(sigma->0) =     2418.34896932


--------------------------------------------------------------------------------------------------------




--------------------------------------- Iteration      1(   2)  ---------------------------------------


     EDDAV:  cpu time    9.0590: real time    9.1316
       DOS:  cpu time    0.0009: real time    0.0009
    --------------------------------------------
      LOOP:  cpu time    9.0599: real time    9.1326

 eigenvalue-minimisations  :  2128
 total energy-change (2. order) :-0.2482571E+04  (-0.2308078E+04)
 number of electron     376.0000000 magnetization 
 augmentation part      376.0000000 magnetization 

 Free energy of the ion-electron system (eV)
  ---------------------------------------------------
  alpha Z        PSCENC =       975.10247152
  Ewald energy   TEWEN  =     90940.96910366
  -Hartree energ DENC   =   -120035.22855184
  -exchange      EXHF   =         0.00000000
  -V(xc)+E(xc)   XCENC  =       189.28058028
  PAW double counting   =     24789.08602224   -23775.73976456
  entropy T*S    EENTRO =        -0.00411688
  eigenvalues    EBANDS =      -407.58003839
  atomic energy  EATOM  =     27259.89416086
  Solvation  Ediel_sol  =         0.00000000
  ---------------------------------------------------
  free energy    TOTEN  =       -64.22013311 eV

  energy without entropy =      -64.21601623  energy(sigma->0) =      -64.21876082


--------------------------------------------------------------------------------------------------------




--------------------------------------- Iteration      1(   3)  ---------------------------------------


     EDDAV:  cpu time    8.0633: real time    8.1253
       DOS:  cpu time    0.0010: real time    0.0011
    --------------------------------------------
      LOOP:  cpu time    8.0643: real time    8.1264

 eigenvalue-minimisations  :  2176
 total energy-change (2. order) :-0.1759870E+03  (-0.1599083E+03)
 number of electron     376.0000000 magnetization 
 augmentation part      376.0000000 magnetization 

 Free energy of the ion-electron system (eV)
  ---------------------------------------------------
  alpha Z        PSCENC =       975.10247152
  Ewald energy   TEWEN  =     90940.96910366
  -Hartree energ DENC   =   -120035.22855184
  -exchange      EXHF   =         0.00000000
  -V(xc)+E(xc)   XCENC  =       189.28058028
  PAW double counting   =     24789.08602224   -23775.73976456
  entropy T*S    EENTRO =        -0.01333794
  eigenvalues    EBANDS =      -583.55780128
  atomic energy  EATOM  =     27259.89416086
  Solvation  Ediel_sol  =         0.00000000
  ---------------------------------------------------
  free energy    TOTEN  =      -240.20711707 eV

  energy without entropy =     -240.19377912  energy(sigma->0) =     -240.20267108


--------------------------------------------------------------------------------------------------------




--------------------------------------- Iteration      1(   4)  ---------------------------------------


     EDDAV:  cpu time    9.8020: real time    9.8861
       DOS:  cpu time    0.0010: real time    0.0010
    --------------------------------------------
      LOOP:  cpu time    9.8030: real time    9.8871

 eigenvalue-minimisations  :  2352
 total energy-change (2. order) :-0.7551563E+01  (-0.7280957E+01)
 number of electron     376.0000000 magnetization 
 augmentation part      376.0000000 magnetization 

 Free energy of the ion-electron system (eV)
  ---------------------------------------------------
  alpha Z        PSCENC =       975.10247152
  Ewald energy   TEWEN  =     90940.96910366
  -Hartree energ DENC   =   -120035.22855184
  -exchange      EXHF   =         0.00000000
  -V(xc)+E(xc)   XCENC  =       189.28058028
  PAW double counting   =     24789.08602224   -23775.73976456
  entropy T*S    EENTRO =        -0.00262318
  eigenvalues    EBANDS =      -591.12007949
  atomic energy  EATOM  =     27259.89416086
  Solvation  Ediel_sol  =         0.00000000
  ---------------------------------------------------
  free energy    TOTEN  =      -247.75868050 eV

  energy without entropy =     -247.75605732  energy(sigma->0) =     -247.75780611


--------------------------------------------------------------------------------------------------------




--------------------------------------- Iteration      1(   5)  ---------------------------------------


     EDDAV:  cpu time   10.6517: real time   10.7444
       DOS:  cpu time    0.0010: real time    0.0010
    CHARGE:  cpu time    0.3824: real time    0.3855
    MIXING:  cpu time    0.0073: real time    0.0074
    --------------------------------------------
      LOOP:  cpu time   11.0424: real time   11.1384

 eigenvalue-minimisations  :  2560
 total energy-change (2. order) :-0.2233537E+00  (-0.2211845E+00)
 number of electron     376.0000019 magnetization 
 augmentation part      105.8377831 magnetization 

 Broyden mixing:
  rms(total) = 0.27135E+01    rms(broyden)= 0.27131E+01
  rms(prec ) = 0.30238E+01
  weight for this iteration     100.00

 Free energy of the ion-electron system (eV)
  ---------------------------------------------------
  alpha Z        PSCENC =       975.10247152
  Ewald energy   TEWEN  =     90940.96910366
  -Hartree energ DENC   =   -120035.22855184
  -exchange      EXHF   =         0.00000000
  -V(xc)+E(xc)   XCENC  =       189.28058028
  PAW double counting   =     24789.08602224   -23775.73976456
  entropy T*S    EENTRO =        -0.00239967
  eigenvalues    EBANDS =      -591.34365666
  atomic energy  EATOM  =     27259.89416086
  Solvation  Ediel_sol  =         0.00000000
  ---------------------------------------------------
  free energy    TOTEN  =      -247.98203416 eV

  energy without entropy =     -247.97963450  energy(sigma->0) =     -247.98123427


--------------------------------------------------------------------------------------------------------




--------------------------------------- Iteration      1(   6)  ---------------------------------------


    POTLOK:  cpu time    0.1306: real time    0.1317
    SETDIJ:  cpu time    0.0099: real time    0.0100
    EDDIAG:  cpu time    1.3266: real time    1.3378
  RMM-DIIS:  cpu time    4.3827: real time    4.4229
    ORTHCH:  cpu time    0.2180: real time    0.2197
       DOS:  cpu time    0.0011: real time    0.0011
    CHARGE:  cpu time    0.3792: real time    0.3824
    MIXING:  cpu time    0.0056: real time    0.0056
    --------------------------------------------
      LOOP:  cpu time    6.4537: real time    6.5111

 eigenvalue-minimisations  :  1832
 total energy-change (2. order) : 0.2934287E+01  (-0.5466089E+01)
 number of electron     376.0000034 magnetization 
 augmentation part      112.8854192 magnetization 

 Broyden mixing:
  rms(total) = 0.28069E+01    rms(broyden)= 0.28060E+01
  rms(prec ) = 0.37855E+01
  weight for this iteration     100.00

 eigenvalues of (default mixing * dielectric matrix)
  average eigenvalue GAMMA=   0.5044
  0.5044

 Free energy of the ion-electron system (eV)
  ---------------------------------------------------
  alpha Z        PSCENC =       975.10247152
  Ewald energy   TEWEN  =     90940.96910366
  -Hartree energ DENC   =   -119572.95802880
  -exchange      EXHF   =         0.00000000
  -V(xc)+E(xc)   XCENC  =       182.04645754
  PAW double counting   =     26687.42440600   -25727.35195994
  entropy T*S    EENTRO =        -0.23156994
  eigenvalues    EBANDS =      -989.94278769
  atomic energy  EATOM  =     27259.89416086
  Solvation  Ediel_sol  =         0.00000000
  ---------------------------------------------------
  free energy    TOTEN  =      -245.04774678 eV

  energy without entropy =     -244.81617684  energy(sigma->0) =     -244.97055680


--------------------------------------------------------------------------------------------------------




--------------------------------------- Iteration      1(   7)  ---------------------------------------


    POTLOK:  cpu time    0.1226: real time    0.1236
    SETDIJ:  cpu time    0.0099: real time    0.0100
    EDDIAG:  cpu time    1.2586: real time    1.2690
  RMM-DIIS:  cpu time    4.1716: real time    4.2095
    ORTHCH:  cpu time    0.2047: real time    0.2060
       DOS:  cpu time    0.0011: real time    0.0156
    CHARGE:  cpu time    0.3775: real time    0.3805
    MIXING:  cpu time    0.0041: real time    0.0041
    --------------------------------------------
      LOOP:  cpu time    6.1501: real time    6.2185

 eigenvalue-minimisations  :  1827
 total energy-change (2. order) : 0.4718497E+01  (-0.3175784E+01)
 number of electron     376.0000020 magnetization 
 augmentation part      111.5039862 magnetization 

 Broyden mixing:
  rms(total) = 0.19049E+01    rms(broyden)= 0.19041E+01
  rms(prec ) = 0.29950E+01
  weight for this iteration     100.00

 eigenvalues of (default mixing * dielectric matrix)
  average eigenvalue GAMMA=   0.6266
  0.9938  0.2594

 Free energy of the ion-electron system (eV)
  ---------------------------------------------------
  alpha Z        PSCENC =       975.10247152
  Ewald energy   TEWEN  =     90940.96910366
  -Hartree energ DENC   =   -119761.34736680
  -exchange      EXHF   =         0.00000000
  -V(xc)+E(xc)   XCENC  =       179.74017889
  PAW double counting   =     27340.16300211   -26387.63535257
  entropy T*S    EENTRO =        -0.13396262
  eigenvalues    EBANDS =      -787.08148526
  atomic energy  EATOM  =     27259.89416086
  Solvation  Ediel_sol  =         0.00000000
  ---------------------------------------------------
  free energy    TOTEN  =      -240.32925021 eV

  energy without entropy =     -240.19528760  energy(sigma->0) =     -240.28459601


--------------------------------------------------------------------------------------------------------




--------------------------------------- Iteration      1(   8)  ---------------------------------------


    POTLOK:  cpu time    0.1221: real time    0.1230
    SETDIJ:  cpu time    0.0099: real time    0.0099
    EDDIAG:  cpu time    1.2267: real time    1.2370
  RMM-DIIS:  cpu time    4.2888: real time    4.3272
    ORTHCH:  cpu time    0.2182: real time    0.2199
       DOS:  cpu time    0.0011: real time    0.0011
    CHARGE:  cpu time    0.3843: real time    0.3874
    MIXING:  cpu time    0.0041: real time    0.0042
    --------------------------------------------
      LOOP:  cpu time    6.2552: real time    6.3097

 eigenvalue-minimisations  :  1832
 total energy-change (2. order) :-0.4040287E+01  (-0.8774974E+00)
 number of electron     376.0000037 magnetization 
 augmentation part      112.2586749 magnetization 

 Broyden mixing:
  rms(total) = 0.23636E+01    rms(broyden)= 0.23635E+01
  rms(prec ) = 0.43136E+01
  weight for this iteration     100.00

 eigenvalues of (default mixing * dielectric matrix)
  average eigenvalue GAMMA=   0.5541
  1.2151  0.2940  0.1530

 Free energy of the ion-electron system (eV)
  ---------------------------------------------------
  alpha Z        PSCENC =       975.10247152
  Ewald energy   TEWEN  =     90940.96910366
  -Hartree energ DENC   =   -119711.13947409
  -exchange      EXHF   =         0.00000000
  -V(xc)+E(xc)   XCENC  =       178.70035861
  PAW double counting   =     28085.84518732   -27144.99235009
  entropy T*S    EENTRO =         0.00346849
  eigenvalues    EBANDS =      -828.75246341
  atomic energy  EATOM  =     27259.89416086
  Solvation  Ediel_sol  =         0.00000000
  ---------------------------------------------------
  free energy    TOTEN  =      -244.36953713 eV

  energy without entropy =     -244.37300562  energy(sigma->0) =     -244.37069329


--------------------------------------------------------------------------------------------------------




--------------------------------------- Iteration      1(   9)  ---------------------------------------


    POTLOK:  cpu time    0.1197: real time    0.1206
    SETDIJ:  cpu time    0.0106: real time    0.0106
    EDDIAG:  cpu time    1.2573: real time    1.2676
  RMM-DIIS:  cpu time    4.4055: real time    4.4459
    ORTHCH:  cpu time    0.2201: real time    0.2218
       DOS:  cpu time    0.0011: real time    0.0011
    CHARGE:  cpu time    0.3971: real time    0.4001
    MIXING:  cpu time    0.0043: real time    0.0043
    --------------------------------------------
      LOOP:  cpu time    6.4156: real time    6.4720

 eigenvalue-minimisations  :  1831
 total energy-change (2. order) : 0.1327506E+02  (-0.4161028E+00)
 number of electron     376.0000023 magnetization 
 augmentation part      112.6873495 magnetization 

 Broyden mixing:
  rms(total) = 0.74321E+00    rms(broyden)= 0.74309E+00
  rms(prec ) = 0.11001E+01
  weight for this iteration     100.00

 eigenvalues of (default mixing * dielectric matrix)
  average eigenvalue GAMMA=   0.5474
  1.3228  0.3689  0.3689  0.1292

 Free energy of the ion-electron system (eV)
  ---------------------------------------------------
  alpha Z        PSCENC =       975.10247152
  Ewald energy   TEWEN  =     90940.96910366
  -Hartree energ DENC   =   -119661.23603249
  -exchange      EXHF   =         0.00000000
  -V(xc)+E(xc)   XCENC  =       178.13726103
  PAW double counting   =     28679.51273655   -27747.82518413
  entropy T*S    EENTRO =         0.00412266
  eigenvalues    EBANDS =      -855.65311725
  atomic energy  EATOM  =     27259.89416086
  Solvation  Ediel_sol  =         0.00000000
  ---------------------------------------------------
  free energy    TOTEN  =      -231.09447760 eV

  energy without entropy =     -231.09860026  energy(sigma->0) =     -231.09585182


--------------------------------------------------------------------------------------------------------




--------------------------------------- Iteration      1(  10)  ---------------------------------------


    POTLOK:  cpu time    0.1257: real time    0.1267
    SETDIJ:  cpu time    0.0098: real time    0.0098
    EDDIAG:  cpu time    1.3143: real time    1.3252
  RMM-DIIS:  cpu time    4.5876: real time    4.6297
    ORTHCH:  cpu time    0.2188: real time    0.2205
       DOS:  cpu time    0.0011: real time    0.0011
    CHARGE:  cpu time    0.3928: real time    0.3960
    MIXING:  cpu time    0.0049: real time    0.0050
    --------------------------------------------
      LOOP:  cpu time    6.6551: real time    6.7140

 eigenvalue-minimisations  :  1831
 total energy-change (2. order) : 0.7859765E+00  (-0.1008911E+00)
 number of electron     376.0000026 magnetization 
 augmentation part      112.8543630 magnetization 

 Broyden mixing:
  rms(total) = 0.41088E+00    rms(broyden)= 0.41053E+00
  rms(prec ) = 0.52456E+00
  weight for this iteration     100.00

 eigenvalues of (default mixing * dielectric matrix)
  average eigenvalue GAMMA=   0.5435
  1.3951  0.5557  0.1281  0.3778  0.2608

 Free energy of the ion-electron system (eV)
  ---------------------------------------------------
  alpha Z        PSCENC =       975.10247152
  Ewald energy   TEWEN  =     90940.96910366
  -Hartree energ DENC   =   -119666.96390316
  -exchange      EXHF   =         0.00000000
  -V(xc)+E(xc)   XCENC  =       178.05999814
  PAW double counting   =     29004.60780832   -28077.50071589
  entropy T*S    EENTRO =        -0.01817097
  eigenvalues    EBANDS =      -844.45925364
  atomic energy  EATOM  =     27259.89416086
  Solvation  Ediel_sol  =         0.00000000
  ---------------------------------------------------
  free energy    TOTEN  =      -230.30850115 eV

  energy without entropy =     -230.29033018  energy(sigma->0) =     -230.30244416


--------------------------------------------------------------------------------------------------------




--------------------------------------- Iteration      1(  11)  ---------------------------------------


    POTLOK:  cpu time    0.1255: real time    0.1266
    SETDIJ:  cpu time    0.0091: real time    0.0092
    EDDIAG:  cpu time    1.3011: real time    1.3114
  RMM-DIIS:  cpu time    4.5689: real time    4.6107
    ORTHCH:  cpu time    0.2157: real time    0.2173
       DOS:  cpu time    0.0011: real time    0.0011
    CHARGE:  cpu time    0.3870: real time    0.3900
    MIXING:  cpu time    0.0047: real time    0.0048
    --------------------------------------------
      LOOP:  cpu time    6.6132: real time    6.6710

 eigenvalue-minimisations  :  1837
 total energy-change (2. order) : 0.3075137E+00  (-0.2991164E-01)
 number of electron     376.0000026 magnetization 
 augmentation part      112.9352459 magnetization 

 Broyden mixing:
  rms(total) = 0.23448E+00    rms(broyden)= 0.23446E+00
  rms(prec ) = 0.27587E+00
  weight for this iteration     100.00

 eigenvalues of (default mixing * dielectric matrix)
  average eigenvalue GAMMA=   0.6026
  1.5305  0.7186  0.5791  0.3824  0.2770  0.1280

 Free energy of the ion-electron system (eV)
  ---------------------------------------------------
  alpha Z        PSCENC =       975.10247152
  Ewald energy   TEWEN  =     90940.96910366
  -Hartree energ DENC   =   -119652.42862682
  -exchange      EXHF   =         0.00000000
  -V(xc)+E(xc)   XCENC  =       177.99844496
  PAW double counting   =     29256.59268737   -28332.71359481
  entropy T*S    EENTRO =        -0.01034662
  eigenvalues    EBANDS =      -855.40528755
  atomic energy  EATOM  =     27259.89416086
  Solvation  Ediel_sol  =         0.00000000
  ---------------------------------------------------
  free energy    TOTEN  =      -230.00098744 eV

  energy without entropy =     -229.99064081  energy(sigma->0) =     -229.99753856


--------------------------------------------------------------------------------------------------------




--------------------------------------- Iteration      1(  12)  ---------------------------------------


    POTLOK:  cpu time    0.1249: real time    0.1259
    SETDIJ:  cpu time    0.0103: real time    0.0104
    EDDIAG:  cpu time    1.3321: real time    1.3428
  RMM-DIIS:  cpu time    4.4147: real time    4.4548
    ORTHCH:  cpu time    0.1991: real time    0.2005
       DOS:  cpu time    0.0011: real time    0.0011
    CHARGE:  cpu time    0.3319: real time    0.3341
    MIXING:  cpu time    0.0043: real time    0.0043
    --------------------------------------------
      LOOP:  cpu time    6.4184: real time    6.4738

 eigenvalue-minimisations  :  1835
 total energy-change (2. order) : 0.2972068E-01  (-0.1852334E-01)
 number of electron     376.0000026 magnetization 
 augmentation part      113.0062578 magnetization 

 Broyden mixing:
  rms(total) = 0.24233E+00    rms(broyden)= 0.24226E+00
  rms(prec ) = 0.28286E+00
  weight for this iteration     100.00

 eigenvalues of (default mixing * dielectric matrix)
  average eigenvalue GAMMA=   0.7034
  1.9542  1.1276  0.7387  0.4364  0.1279  0.2666  0.2722

 Free energy of the ion-electron system (eV)
  ---------------------------------------------------
  alpha Z        PSCENC =       975.10247152
  Ewald energy   TEWEN  =     90940.96910366
  -Hartree energ DENC   =   -119646.69968318
  -exchange      EXHF   =         0.00000000
  -V(xc)+E(xc)   XCENC  =       177.94728333
  PAW double counting   =     29527.96012008   -28607.46766506
  entropy T*S    EENTRO =        -0.01022798
  eigenvalues    EBANDS =      -857.66683000
  atomic energy  EATOM  =     27259.89416086
  Solvation  Ediel_sol  =         0.00000000
  ---------------------------------------------------
  free energy    TOTEN  =      -229.97126676 eV

  energy without entropy =     -229.96103878  energy(sigma->0) =     -229.96785744


--------------------------------------------------------------------------------------------------------




--------------------------------------- Iteration      1(  13)  ---------------------------------------


    POTLOK:  cpu time    0.1186: real time    0.1194
    SETDIJ:  cpu time    0.0103: real time    0.0104
    EDDIAG:  cpu time    1.2582: real time    1.2683
  RMM-DIIS:  cpu time    4.4476: real time    4.4872
    ORTHCH:  cpu time    0.2182: real time    0.2199
       DOS:  cpu time    0.0011: real time    0.0011
    CHARGE:  cpu time    0.3976: real time    0.4007
    MIXING:  cpu time    0.0051: real time    0.0052
    --------------------------------------------
      LOOP:  cpu time    6.4568: real time    6.5122

 eigenvalue-minimisations  :  1831
 total energy-change (2. order) : 0.3047669E-01  (-0.1351867E-01)
 number of electron     376.0000026 magnetization 
 augmentation part      113.0231633 magnetization 

 Broyden mixing:
  rms(total) = 0.19095E+00    rms(broyden)= 0.19094E+00
  rms(prec ) = 0.23937E+00
  weight for this iteration     100.00

 eigenvalues of (default mixing * dielectric matrix)
  average eigenvalue GAMMA=   0.7292
  2.3165  1.2529  0.7995  0.4770  0.1279  0.3112  0.3112  0.2372

 Free energy of the ion-electron system (eV)
  ---------------------------------------------------
  alpha Z        PSCENC =       975.10247152
  Ewald energy   TEWEN  =     90940.96910366
  -Hartree energ DENC   =   -119646.57838208
  -exchange      EXHF   =         0.00000000
  -V(xc)+E(xc)   XCENC  =       177.85665165
  PAW double counting   =     29822.89975647   -28905.93518418
  entropy T*S    EENTRO =        -0.02305072
  eigenvalues    EBANDS =      -854.12631726
  atomic energy  EATOM  =     27259.89416086
  Solvation  Ediel_sol  =         0.00000000
  ---------------------------------------------------
  free energy    TOTEN  =      -229.94079007 eV

  energy without entropy =     -229.91773936  energy(sigma->0) =     -229.93310650


--------------------------------------------------------------------------------------------------------




--------------------------------------- Iteration      1(  14)  ---------------------------------------


    POTLOK:  cpu time    0.1317: real time    0.1327
    SETDIJ:  cpu time    0.0100: real time    0.0100
    EDDIAG:  cpu time    1.3473: real time    1.3584
  RMM-DIIS:  cpu time    4.5522: real time    4.5932
    ORTHCH:  cpu time    0.2181: real time    0.2198
       DOS:  cpu time    0.0012: real time    0.0012
    CHARGE:  cpu time    0.4065: real time    0.4097
    MIXING:  cpu time    0.0052: real time    0.0052
    --------------------------------------------
      LOOP:  cpu time    6.6722: real time    6.7302

 eigenvalue-minimisations  :  1831
 total energy-change (2. order) : 0.3897594E-01  (-0.8087200E-02)
 number of electron     376.0000025 magnetization 
 augmentation part      112.9937202 magnetization 

 Broyden mixing:
  rms(total) = 0.88756E-01    rms(broyden)= 0.88635E-01
  rms(prec ) = 0.11424E+00
  weight for this iteration     100.00

 eigenvalues of (default mixing * dielectric matrix)
  average eigenvalue GAMMA=   0.7219
  2.3755  1.2311  0.9045  0.6010  0.4569  0.1279  0.2993  0.2732  0.2273

 Free energy of the ion-electron system (eV)
  ---------------------------------------------------
  alpha Z        PSCENC =       975.10247152
  Ewald energy   TEWEN  =     90940.96910366
  -Hartree energ DENC   =   -119646.97010670
  -exchange      EXHF   =         0.00000000
  -V(xc)+E(xc)   XCENC  =       177.79236736
  PAW double counting   =     29976.37282448   -29061.13869448
  entropy T*S    EENTRO =        -0.01204176
  eigenvalues    EBANDS =      -851.91189906
  atomic energy  EATOM  =     27259.89416086
  Solvation  Ediel_sol  =         0.00000000
  ---------------------------------------------------
  free energy    TOTEN  =      -229.90181413 eV

  energy without entropy =     -229.88977236  energy(sigma->0) =     -229.89780021


--------------------------------------------------------------------------------------------------------




--------------------------------------- Iteration      1(  15)  ---------------------------------------


    POTLOK:  cpu time    0.1269: real time    0.1280
    SETDIJ:  cpu time    0.0102: real time    0.0103
    EDDIAG:  cpu time    1.3361: real time    1.3462
  RMM-DIIS:  cpu time    4.5536: real time    4.5943
    ORTHCH:  cpu time    0.2173: real time    0.2189
       DOS:  cpu time    0.0011: real time    0.0011
    CHARGE:  cpu time    0.3971: real time    0.4000
    MIXING:  cpu time    0.0059: real time    0.0059
    --------------------------------------------
      LOOP:  cpu time    6.6482: real time    6.7046

 eigenvalue-minimisations  :  1832
 total energy-change (2. order) : 0.8465544E-02  (-0.2249578E-02)
 number of electron     376.0000025 magnetization 
 augmentation part      112.9933195 magnetization 

 Broyden mixing:
  rms(total) = 0.49425E-01    rms(broyden)= 0.49419E-01
  rms(prec ) = 0.60618E-01
  weight for this iteration     100.00

 eigenvalues of (default mixing * dielectric matrix)
  average eigenvalue GAMMA=   0.7093
  2.4593  1.2388  0.8525  0.8103  0.4707  0.1279  0.3466  0.2865  0.2762  0.2237

 Free energy of the ion-electron system (eV)
  ---------------------------------------------------
  alpha Z        PSCENC =       975.10247152
  Ewald energy   TEWEN  =     90940.96910366
  -Hartree energ DENC   =   -119649.63072902
  -exchange      EXHF   =         0.00000000
  -V(xc)+E(xc)   XCENC  =       177.79779589
  PAW double counting   =     30006.97566050   -29092.05662441
  entropy T*S    EENTRO =        -0.01301423
  eigenvalues    EBANDS =      -848.93217335
  atomic energy  EATOM  =     27259.89416086
  Solvation  Ediel_sol  =         0.00000000
  ---------------------------------------------------
  free energy    TOTEN  =      -229.89334858 eV

  energy without entropy =     -229.88033435  energy(sigma->0) =     -229.88901051


--------------------------------------------------------------------------------------------------------




--------------------------------------- Iteration      1(  16)  ---------------------------------------


    POTLOK:  cpu time    0.1329: real time    0.1340
    SETDIJ:  cpu time    0.0096: real time    0.0097
    EDDIAG:  cpu time    1.3236: real time    1.3342
  RMM-DIIS:  cpu time    4.4791: real time    4.5193
    ORTHCH:  cpu time    0.2182: real time    0.2199
       DOS:  cpu time    0.0012: real time    0.0012
    CHARGE:  cpu time    0.3825: real time    0.3855
    MIXING:  cpu time    0.0056: real time    0.0056
    --------------------------------------------
      LOOP:  cpu time    6.5526: real time    6.6094

 eigenvalue-minimisations  :  1829
 total energy-change (2. order) : 0.3991291E-02  (-0.5350152E-03)
 number of electron     376.0000025 magnetization 
 augmentation part      112.9922364 magnetization 

 Broyden mixing:
  rms(total) = 0.20224E-01    rms(broyden)= 0.20223E-01
  rms(prec ) = 0.24793E-01
  weight for this iteration     100.00

 eigenvalues of (default mixing * dielectric matrix)
  average eigenvalue GAMMA=   0.7077
  2.5026  1.2478  0.8746  0.8746  0.5785  0.4792  0.1279  0.3220  0.2912  0.2638
  0.2223

 Free energy of the ion-electron system (eV)
  ---------------------------------------------------
  alpha Z        PSCENC =       975.10247152
  Ewald energy   TEWEN  =     90940.96910366
  -Hartree energ DENC   =   -119650.44111738
  -exchange      EXHF   =         0.00000000
  -V(xc)+E(xc)   XCENC  =       177.80102276
  PAW double counting   =     30025.86794968   -29111.12091869
  entropy T*S    EENTRO =        -0.01388278
  eigenvalues    EBANDS =      -847.94814693
  atomic energy  EATOM  =     27259.89416086
  Solvation  Ediel_sol  =         0.00000000
  ---------------------------------------------------
  free energy    TOTEN  =      -229.88935729 eV

  energy without entropy =     -229.87547451  energy(sigma->0) =     -229.88472970


--------------------------------------------------------------------------------------------------------




--------------------------------------- Iteration      1(  17)  ---------------------------------------


    POTLOK:  cpu time    0.1307: real time    0.1317
    SETDIJ:  cpu time    0.0095: real time    0.0096
    EDDIAG:  cpu time    1.2753: real time    1.2855
  RMM-DIIS:  cpu time    4.4236: real time    4.4628
    ORTHCH:  cpu time    0.2181: real time    0.2199
       DOS:  cpu time    0.0011: real time    0.0011
    CHARGE:  cpu time    0.4058: real time    0.4093
    MIXING:  cpu time    0.0057: real time    0.0057
    --------------------------------------------
      LOOP:  cpu time    6.4697: real time    6.5256

 eigenvalue-minimisations  :  1812
 total energy-change (2. order) : 0.1030997E-03  (-0.1540611E-03)
 number of electron     376.0000025 magnetization 
 augmentation part      112.9935825 magnetization 

 Broyden mixing:
  rms(total) = 0.15924E-01    rms(broyden)= 0.15923E-01
  rms(prec ) = 0.19440E-01
  weight for this iteration     100.00

 eigenvalues of (default mixing * dielectric matrix)
  average eigenvalue GAMMA=   0.7452
  2.5200  1.2528  1.2528  1.1595  0.7526  0.4788  0.1279  0.3447  0.3037  0.2753
  0.2528  0.2217

 Free energy of the ion-electron system (eV)
  ---------------------------------------------------
  alpha Z        PSCENC =       975.10247152
  Ewald energy   TEWEN  =     90940.96910366
  -Hartree energ DENC   =   -119650.87654206
  -exchange      EXHF   =         0.00000000
  -V(xc)+E(xc)   XCENC  =       177.80523832
  PAW double counting   =     30030.56209315   -29115.83521167
  entropy T*S    EENTRO =        -0.01410904
  eigenvalues    EBANDS =      -847.49645893
  atomic energy  EATOM  =     27259.89416086
  Solvation  Ediel_sol  =         0.00000000
  ---------------------------------------------------
  free energy    TOTEN  =      -229.88925419 eV

  energy without entropy =     -229.87514515  energy(sigma->0) =     -229.88455118


--------------------------------------------------------------------------------------------------------




--------------------------------------- Iteration      1(  18)  ---------------------------------------


    POTLOK:  cpu time    0.1251: real time    0.1261
    SETDIJ:  cpu time    0.0094: real time    0.0095
    EDDIAG:  cpu time    1.1756: real time    1.1855
  RMM-DIIS:  cpu time    3.8605: real time    3.8931
    ORTHCH:  cpu time    0.2053: real time    0.2067
       DOS:  cpu time    0.0010: real time    0.0010
    --------------------------------------------
      LOOP:  cpu time    5.3769: real time    5.4219

 eigenvalue-minimisations  :  1707
 total energy-change (2. order) :-0.8092121E-04  (-0.6695934E-04)
 number of electron     376.0000025 magnetization 
 augmentation part      112.9935825 magnetization 

 Free energy of the ion-electron system (eV)
  ---------------------------------------------------
  alpha Z        PSCENC =       975.10247152
  Ewald energy   TEWEN  =     90940.96910366
  -Hartree energ DENC   =   -119652.23230227
  -exchange      EXHF   =         0.00000000
  -V(xc)+E(xc)   XCENC  =       177.81398869
  PAW double counting   =     30030.09637607   -29115.30095548
  entropy T*S    EENTRO =        -0.01462251
  eigenvalues    EBANDS =      -846.21755566
  atomic energy  EATOM  =     27259.89416086
  Solvation  Ediel_sol  =         0.00000000
  ---------------------------------------------------
  free energy    TOTEN  =      -229.88933512 eV

  energy without entropy =     -229.87471260  energy(sigma->0) =     -229.88446094


--------------------------------------------------------------------------------------------------------




 average (electrostatic) potential at core
  the test charge radii are     0.6991  0.7215  1.2059
  (the norm of the test charge is              1.0000)
       1 -56.3386       2 -74.8098       3 -76.2407       4 -72.3443       5 -72.3382
       6 -72.3210       7 -72.3221       8 -72.3404       9 -72.3427      10 -72.2940
      11 -72.3447      12 -72.3112      13 -72.9011      14 -73.0008      15 -72.9516
      16 -72.9855      17 -73.0175      18 -72.9111      19 -73.0563      20 -73.0409
      21 -73.0166      22 -72.9579      23 -72.9891      24 -72.9461      25 -73.0393
      26 -72.9960      27 -73.0481      28 -72.9421      29 -72.9170      30 -72.9139
      31 -72.4095      32 -72.2577      33 -72.3678      34 -72.4815      35 -72.2464
      36 -73.2157      37 -72.4899      38 -73.1703      39 -72.2187
 
 
 
 E-fermi :   1.0886     XC(G=0):  -6.6345     alpha+bet : -6.8913


 k-point     1 :       0.0000    0.0000    0.0000
  band No.  band energies     occupation 
      1     -22.1323      2.00000
      2     -17.0519      2.00000
      3      -8.4390      2.00000
      4      -8.0971      2.00000
      5      -6.8188      2.00000
      6      -5.9612      2.00000
      7      -5.9148      2.00000
      8      -5.7268      2.00000
      9      -5.6865      2.00000
     10      -5.6627      2.00000
     11      -5.6166      2.00000
     12      -5.5924      2.00000
     13      -5.5688      2.00000
     14      -5.5489      2.00000
     15      -5.3967      2.00000
     16      -5.2352      2.00000
     17      -5.1045      2.00000
     18      -5.0863      2.00000
     19      -5.0314      2.00000
     20      -5.0076      2.00000
     21      -4.9961      2.00000
     22      -4.9775      2.00000
     23      -4.6515      2.00000
     24      -4.6179      2.00000
     25      -4.5664      2.00000
     26      -4.5228      2.00000
     27      -4.4936      2.00000
     28      -4.4574      2.00000
     29      -4.4068      2.00000
     30      -4.3604      2.00000
     31      -4.3434      2.00000
     32      -4.3158      2.00000
     33      -4.2870      2.00000
     34      -4.2237      2.00000
     35      -4.1576      2.00000
     36      -4.1421      2.00000
     37      -4.1223      2.00000
     38      -4.1000      2.00000
     39      -4.0766      2.00000
     40      -4.0504      2.00000
     41      -4.0276      2.00000
     42      -4.0174      2.00000
     43      -3.9925      2.00000
     44      -3.9874      2.00000
     45      -3.9701      2.00000
     46      -3.9370      2.00000
     47      -3.5917      2.00000
     48      -3.5263      2.00000
     49      -3.4457      2.00000
     50      -3.4191      2.00000
     51      -3.4045      2.00000
     52      -3.3849      2.00000
     53      -3.3591      2.00000
     54      -3.3356      2.00000
     55      -3.3017      2.00000
     56      -3.2740      2.00000
     57      -3.2457      2.00000
     58      -3.2093      2.00000
     59      -3.1633      2.00000
     60      -3.1038      2.00000
     61      -3.0019      2.00000
     62      -2.8673      2.00000
     63      -2.8081      2.00000
     64      -2.6285      2.00000
     65      -2.6026      2.00000
     66      -2.5975      2.00000
     67      -2.5300      2.00000
     68      -2.5079      2.00000
     69      -2.4902      2.00000
     70      -2.4638      2.00000
     71      -2.4360      2.00000
     72      -2.4255      2.00000
     73      -2.4014      2.00000
     74      -2.3809      2.00000
     75      -2.3586      2.00000
     76      -2.3473      2.00000
     77      -2.3433      2.00000
     78      -2.3359      2.00000
     79      -2.3128      2.00000
     80      -2.3055      2.00000
     81      -2.2983      2.00000
     82      -2.2802      2.00000
     83      -2.2538      2.00000
     84      -2.2190      2.00000
     85      -2.2047      2.00000
     86      -2.1581      2.00000
     87      -2.1360      2.00000
     88      -2.0802      2.00000
     89      -2.0703      2.00000
     90      -2.0461      2.00000
     91      -2.0201      2.00000
     92      -1.9884      2.00000
     93      -1.9381      2.00000
     94      -1.9228      2.00000
     95      -1.8973      2.00000
     96      -1.8705      2.00000
     97      -1.8325      2.00000
     98      -1.8009      2.00000
     99      -1.7668      2.00000
    100      -1.7532      2.00000
    101      -1.7107      2.00000
    102      -1.6347      2.00000
    103      -1.6255      2.00000
    104      -1.5870      2.00000
    105      -1.5476      2.00000
    106      -1.5440      2.00000
    107      -1.5149      2.00000
    108      -1.4993      2.00000
    109      -1.4960      2.00000
    110      -1.4932      2.00000
    111      -1.4592      2.00000
    112      -1.4470      2.00000
    113      -1.4088      2.00000
    114      -1.2576      2.00000
    115      -1.2068      2.00000
    116      -1.1520      2.00000
    117      -1.0841      2.00000
    118      -1.0119      2.00000
    119      -0.9955      2.00000
    120      -0.9726      2.00000
    121      -0.9450      2.00000
    122      -0.9078      2.00000
    123      -0.8853      2.00000
    124      -0.8467      2.00000
    125      -0.8343      2.00000
    126      -0.8011      2.00000
    127      -0.7554      2.00000
    128      -0.7367      2.00000
    129      -0.6819      2.00000
    130      -0.6703      2.00000
    131      -0.6634      2.00000
    132      -0.6522      2.00000
    133      -0.6110      2.00000
    134      -0.5714      2.00000
    135      -0.4820      2.00000
    136      -0.4380      2.00000
    137      -0.4095      2.00000
    138      -0.3888      2.00000
    139      -0.3675      2.00000
    140      -0.3517      2.00000
    141      -0.2974      2.00000
    142      -0.2167      2.00000
    143      -0.2063      2.00000
    144      -0.1363      2.00000
    145      -0.1316      2.00000
    146      -0.1050      2.00000
    147      -0.0391      2.00000
    148      -0.0197      2.00000
    149      -0.0045      2.00000
    150       0.0433      2.00000
    151       0.0791      2.00000
    152       0.1067      2.00000
    153       0.1140      2.00000
    154       0.1198      2.00000
    155       0.1434      2.00000
    156       0.1843      2.00000
    157       0.2410      2.00000
    158       0.2732      2.00000
    159       0.2773      2.00000
    160       0.2941      2.00000
    161       0.3102      2.00000
    162       0.3271      2.00000
    163       0.3329      2.00000
    164       0.3500      2.00000
    165       0.3595      2.00000
    166       0.3941      2.00001
    167       0.3998      2.00001
    168       0.4273      2.00003
    169       0.4862      2.00017
    170       0.4950      2.00022
    171       0.5217      2.00046
    172       0.5682      2.00145
    173       0.5792      2.00187
    174       0.6081      2.00354
    175       0.6328      2.00586
    176       0.6412      2.00690
    177       0.6562      2.00914
    178       0.6856      2.01522
    179       0.6886      2.01599
    180       0.7241      2.02714
    181       0.7617      2.04296
    182       0.7778      2.05040
    183       0.7971      2.05900
    184       0.8021      2.06103
    185       0.8031      2.06143
    186       0.8124      2.06487
    187       0.8233      2.06814
    188       0.8341      2.07025
    189       0.8415      2.07088
    190       0.8467      2.07085
    191       0.8558      2.06968
    192       0.8840      2.05469
    193       0.8959      2.04187
    194       0.9237      1.99210
    195       0.9357      1.96099
    196       1.0856      1.02545
    197       1.0921      0.97050
    198       1.1612      0.42851
    199       1.1958      0.22170
    200       1.1984      0.20825
    201       1.2123      0.14397
    202       1.2371      0.05253
    203       1.2435      0.03355
    204       1.3565     -0.06746
    205       1.4967     -0.01401
    206       1.9073     -0.00000
    207       1.9648     -0.00000
    208       2.0445     -0.00000
    209       2.0553     -0.00000
    210       2.1855     -0.00000
    211       2.4390     -0.00000
    212       3.4798     -0.00000
    213       4.0293     -0.00000
    214       4.3418     -0.00000
    215       4.3677     -0.00000
    216       4.4117     -0.00000
    217       4.5471     -0.00000
    218       4.8115     -0.00000
    219       5.3484     -0.00000
    220       5.7277     -0.00000
    221       5.8222     -0.00000
    222       5.9125     -0.00000
    223       5.9508     -0.00000
    224       5.9718     -0.00000
    225       6.1650     -0.00000
    226       6.2626     -0.00000
    227       6.6008      0.00000
    228       6.7756      0.00000

 k-point     2 :       0.5000    0.0000    0.0000
  band No.  band energies     occupation 
      1     -22.1322      2.00000
      2     -17.0516      2.00000
      3      -8.4176      2.00000
      4      -7.2571      2.00000
      5      -7.2254      2.00000
      6      -6.1395      2.00000
      7      -6.0207      2.00000
      8      -5.8725      2.00000
      9      -5.7845      2.00000
     10      -5.6863      2.00000
     11      -5.5111      2.00000
     12      -5.4181      2.00000
     13      -5.2902      2.00000
     14      -5.2574      2.00000
     15      -4.9799      2.00000
     16      -4.8824      2.00000
     17      -4.8696      2.00000
     18      -4.8511      2.00000
     19      -4.8449      2.00000
     20      -4.8364      2.00000
     21      -4.8133      2.00000
     22      -4.7770      2.00000
     23      -4.7755      2.00000
     24      -4.7506      2.00000
     25      -4.7246      2.00000
     26      -4.6961      2.00000
     27      -4.6692      2.00000
     28      -4.6338      2.00000
     29      -4.6232      2.00000
     30      -4.5216      2.00000
     31      -4.3695      2.00000
     32      -4.3274      2.00000
     33      -4.3226      2.00000
     34      -4.2886      2.00000
     35      -4.2694      2.00000
     36      -4.1649      2.00000
     37      -4.0358      2.00000
     38      -4.0047      2.00000
     39      -3.9853      2.00000
     40      -3.9651      2.00000
     41      -3.9367      2.00000
     42      -3.9042      2.00000
     43      -3.8517      2.00000
     44      -3.7788      2.00000
     45      -3.7530      2.00000
     46      -3.6532      2.00000
     47      -3.6380      2.00000
     48      -3.6125      2.00000
     49      -3.6006      2.00000
     50      -3.5538      2.00000
     51      -3.4532      2.00000
     52      -3.4198      2.00000
     53      -3.3848      2.00000
     54      -3.3474      2.00000
     55      -3.2965      2.00000
     56      -3.2655      2.00000
     57      -3.2432      2.00000
     58      -3.1805      2.00000
     59      -3.1677      2.00000
     60      -3.1029      2.00000
     61      -3.0697      2.00000
     62      -3.0414      2.00000
     63      -3.0138      2.00000
     64      -2.9675      2.00000
     65      -2.9352      2.00000
     66      -2.8995      2.00000
     67      -2.8819      2.00000
     68      -2.8324      2.00000
     69      -2.8071      2.00000
     70      -2.7887      2.00000
     71      -2.7566      2.00000
     72      -2.7429      2.00000
     73      -2.6176      2.00000
     74      -2.5750      2.00000
     75      -2.5431      2.00000
     76      -2.5262      2.00000
     77      -2.4869      2.00000
     78      -2.4545      2.00000
     79      -2.4187      2.00000
     80      -2.4156      2.00000
     81      -2.3458      2.00000
     82      -2.3133      2.00000
     83      -2.2570      2.00000
     84      -2.2353      2.00000
     85      -2.2217      2.00000
     86      -2.2104      2.00000
     87      -2.2017      2.00000
     88      -2.1918      2.00000
     89      -2.1631      2.00000
     90      -2.1261      2.00000
     91      -2.1108      2.00000
     92      -2.0580      2.00000
     93      -2.0449      2.00000
     94      -1.9716      2.00000
     95      -1.9500      2.00000
     96      -1.9412      2.00000
     97      -1.8836      2.00000
     98      -1.8653      2.00000
     99      -1.8589      2.00000
    100      -1.8307      2.00000
    101      -1.7822      2.00000
    102      -1.7577      2.00000
    103      -1.7290      2.00000
    104      -1.6992      2.00000
    105      -1.6954      2.00000
    106      -1.6701      2.00000
    107      -1.6602      2.00000
    108      -1.6387      2.00000
    109      -1.5796      2.00000
    110      -1.5639      2.00000
    111      -1.5291      2.00000
    112      -1.4548      2.00000
    113      -1.4121      2.00000
    114      -1.4024      2.00000
    115      -1.2901      2.00000
    116      -1.2644      2.00000
    117      -1.2032      2.00000
    118      -1.1707      2.00000
    119      -1.1487      2.00000
    120      -1.1040      2.00000
    121      -1.0627      2.00000
    122      -1.0324      2.00000
    123      -1.0159      2.00000
    124      -0.9938      2.00000
    125      -0.9758      2.00000
    126      -0.9428      2.00000
    127      -0.9310      2.00000
    128      -0.8960      2.00000
    129      -0.8647      2.00000
    130      -0.8593      2.00000
[...]
     89      -2.1677      2.00000
     90      -2.1533      2.00000
     91      -2.1061      2.00000
     92      -2.1019      2.00000
     93      -2.0698      2.00000
     94      -2.0083      2.00000
     95      -1.9897      2.00000
     96      -1.9664      2.00000
     97      -1.9261      2.00000
     98      -1.8725      2.00000
     99      -1.8642      2.00000
    100      -1.8294      2.00000
    101      -1.7912      2.00000
    102      -1.7727      2.00000
    103      -1.7341      2.00000
    104      -1.7239      2.00000
    105      -1.7111      2.00000
    106      -1.6996      2.00000
    107      -1.6772      2.00000
    108      -1.6623      2.00000
    109      -1.6131      2.00000
    110      -1.5739      2.00000
    111      -1.5416      2.00000
    112      -1.4807      2.00000
    113      -1.4562      2.00000
    114      -1.4095      2.00000
    115      -1.3165      2.00000
    116      -1.2985      2.00000
    117      -1.2270      2.00000
    118      -1.2015      2.00000
    119      -1.1253      2.00000
    120      -1.1139      2.00000
    121      -1.0871      2.00000
    122      -1.0566      2.00000
    123      -1.0216      2.00000
    124      -1.0144      2.00000
    125      -0.9977      2.00000
    126      -0.9695      2.00000
    127      -0.9526      2.00000
    128      -0.9370      2.00000
    129      -0.9180      2.00000
    130      -0.9096      2.00000
    131      -0.8744      2.00000
    132      -0.8269      2.00000
    133      -0.7796      2.00000
    134      -0.7594      2.00000
    135      -0.7440      2.00000
    136      -0.7134      2.00000
    137      -0.6957      2.00000
    138      -0.6665      2.00000
    139      -0.6151      2.00000
    140      -0.5753      2.00000
    141      -0.4932      2.00000
    142      -0.4782      2.00000
    143      -0.4032      2.00000
    144      -0.3147      2.00000
    145      -0.2971      2.00000
    146      -0.2073      2.00000
    147      -0.1853      2.00000
    148      -0.1394      2.00000
    149      -0.1177      2.00000
    150      -0.0698      2.00000
    151      -0.0587      2.00000
    152       0.0090      2.00000
    153       0.0385      2.00000
    154       0.0591      2.00000
    155       0.0734      2.00000
    156       0.0801      2.00000
    157       0.0949      2.00000
    158       0.1545      2.00000
    159       0.1760      2.00000
    160       0.1971      2.00000
    161       0.2264      2.00000
    162       0.2632      2.00000
    163       0.2923      2.00000
    164       0.3288      2.00000
    165       0.3560      2.00001
    166       0.3745      2.00001
    167       0.5073      2.00049
    168       0.5606      2.00179
    169       0.5710      2.00227
    170       0.6027      2.00449
    171       0.6169      2.00597
    172       0.6460      2.01031
    173       0.6801      2.01825
    174       0.7616      2.05066
    175       0.7672      2.05323
    176       0.7947      2.06458
    177       0.8254      2.07090
    178       0.8445      2.06823
    179       0.8863      2.03180
    180       0.8979      2.01149
    181       0.9070      1.99201
    182       0.9712      1.74367
    183       1.0186      1.43298
    184       1.0586      1.11158
    185       1.0701      1.01434
    186       1.0880      0.86333
    187       1.1087      0.69365
    188       1.1288      0.53856
    189       1.1382      0.47095
    190       1.1523      0.37597
    191       1.2753     -0.05365
    192       1.3116     -0.07070
    193       1.3460     -0.06555
    194       1.3703     -0.05598
    195       1.4009     -0.04194
    196       1.4555     -0.02064
    197       1.5858     -0.00168
    198       1.7125     -0.00006
    199       1.7976     -0.00000
    200       1.9575     -0.00000
    201       2.2295     -0.00000
    202       2.3404     -0.00000
    203       2.7392     -0.00000
    204       2.9429     -0.00000
    205       2.9484     -0.00000
    206       2.9718     -0.00000
    207       2.9917     -0.00000
    208       3.2144     -0.00000
    209       3.3847     -0.00000
    210       3.5068     -0.00000
    211       3.5522     -0.00000
    212       3.5917     -0.00000
    213       3.7055     -0.00000
    214       3.8024     -0.00000
    215       3.9695     -0.00000
    216       4.1597     -0.00000
    217       4.1976     -0.00000
    218       4.3866     -0.00000
    219       4.4392     -0.00000
    220       4.5834     -0.00000
    221       4.6766     -0.00000
    222       4.8275     -0.00000
    223       5.1762     -0.00000
    224       5.5370     -0.00000
    225       6.2097     -0.00000
    226       6.5048     -0.00000
    227       6.5202     -0.00000
    228       6.6106      0.00000


--------------------------------------------------------------------------------------------------------


 soft charge-density along one line, spin component           1
         0         1         2         3         4         5         6         7         8         9
 total charge-density along one line
 
 pseudopotential strength for first ion, spin component:           1
 10.091   0.015   0.003   0.009   0.001  -0.003  -0.008  -0.000
  0.015  -0.002  -0.000  -0.000  -0.000  -0.000  -0.000   0.000
  0.003  -0.000  -4.245  -0.006   0.001  -0.009  -0.002   0.000
  0.009  -0.000  -0.006  -4.258   0.004  -0.002  -0.015   0.000
  0.001  -0.000   0.001   0.004  -4.242   0.000   0.000  -0.008
 -0.003  -0.000  -0.009  -0.002   0.000  -0.770  -0.000   0.000
 -0.008  -0.000  -0.002  -0.015   0.000  -0.000  -0.770   0.000
 -0.000   0.000   0.000   0.000  -0.008   0.000   0.000  -0.770
 total augmentation occupancy for first ion, spin component:           1
  1.613  -0.842   0.023   0.008  -0.074   0.034   0.079  -0.023
 -0.842   1.171  -0.198  -0.508   0.075  -0.080  -0.213   0.027
  0.023  -0.198   0.846   0.178   0.004   0.114   0.053  -0.007
  0.008  -0.508   0.178   1.299   0.007   0.053   0.240  -0.010
 -0.074   0.075   0.004   0.007   0.799  -0.007  -0.010   0.101
  0.034  -0.080   0.114   0.053  -0.007   0.020   0.021  -0.004
  0.079  -0.213   0.053   0.240  -0.010   0.021   0.067  -0.007
 -0.023   0.027  -0.007  -0.010   0.101  -0.004  -0.007   0.015


------------------------ aborting loop because EDIFF is reached ----------------------------------------


    CHARGE:  cpu time    0.3919: real time    0.3951
    FORLOC:  cpu time    0.0421: real time    0.0424
    FORNL :  cpu time    2.0675: real time    2.0855
    STRESS:  cpu time    5.7229: real time    5.7695
    FORCOR:  cpu time    0.1457: real time    0.1467
    FORHAR:  cpu time    0.0672: real time    0.0676
    MIXING:  cpu time    0.0046: real time    0.0047
    OFIELD:  cpu time    0.0000: real time    0.0000

  FORCE on cell =-STRESS in cart. coord.  units (eV):
  Direction    XX          YY          ZZ          XY          YZ          ZX
  --------------------------------------------------------------------------------------
  Alpha Z   975.10247   975.10247   975.10247
  Ewald  110844.05864110829.28765************  -190.75960   231.98567   -87.79522
  Hartree117585.52746117551.72725************  -121.54905    98.53975   -53.05563
  E(xc)   -1665.53887 -1665.32051 -1673.14767    -0.48025     0.66270    -0.26249
  Local  ************************239086.15965   302.22032  -308.73627   134.31054
  n-local   121.99433   120.61398    85.82517    -0.78286     1.00539     0.64675
  augment  1894.52494  1892.87930  1934.87026     2.38488    -3.69866     0.77044
  Kinetic  5520.46590  5511.84193  5605.03127     9.84276   -20.31889     7.43265
  Fock        0.00000     0.00000     0.00000     0.00000     0.00000     0.00000
  -------------------------------------------------------------------------------------
  Total     -37.60828   -40.00119    -6.39655     0.87620    -0.56031     2.04704
  in kB     -44.79208   -47.64207    -7.61840     1.04357    -0.66734     2.43806
  external pressure =      -33.35 kB  Pullay stress =        0.00 kB


 VOLUME and BASIS-vectors are now :
 -----------------------------------------------------------------------------
  energy-cutoff  :      450.00
  volume of cell :     1345.22
      direct lattice vectors                 reciprocal lattice vectors
     7.296955120 -4.212899000  0.000000000     0.137043463  0.000000000  0.000000000
     0.000000000  8.425798000  0.000000000     0.068521732  0.118683121  0.000000000
     0.000000000  0.000000000 21.879635000     0.000000000  0.000000000  0.045704602

  length of vectors
     8.425798004  8.425798000 21.879635000     0.137043463  0.137043463  0.045704602


 FORCES acting on ions
    electron-ion (+dipol)            ewald-force                    non-local-force                 convergence-correction
 -----------------------------------------------------------------------------------------------
   0.218E+02 0.183E+02 -.891E+03   -.233E+02 -.221E+02 0.881E+03   0.173E+01 0.283E+01 0.992E+01   -.549E-02 0.439E-02 0.907E-02
   -.987E+02 0.601E+02 -.158E+04   0.104E+03 -.590E+02 0.160E+04   -.462E+01 -.560E+00 -.217E+02   0.745E-02 0.108E-02 0.124E-01
   0.624E+02 -.105E+03 -.155E+04   -.706E+02 0.126E+03 0.161E+04   0.831E+01 -.214E+02 -.564E+02   -.476E-02 0.471E-02 0.118E-01
   0.131E+00 0.266E+00 0.234E+04   -.188E+00 -.228E+00 -.234E+04   0.257E-01 -.407E-01 -.117E+01   0.454E-01 -.281E-01 -.312E-01
   0.305E+00 -.160E-01 0.234E+04   -.283E+00 -.232E-02 -.234E+04   -.339E-01 -.283E-01 -.108E+01   -.177E-01 -.288E-02 -.127E-01
   -.180E+00 0.267E+00 0.234E+04   0.156E+00 -.305E+00 -.234E+04   0.285E-01 -.580E-02 -.114E+01   -.270E-01 0.322E-01 -.358E-01
   0.226E+00 0.478E+00 0.234E+04   -.209E+00 -.451E+00 -.234E+04   -.423E-02 0.138E-01 -.115E+01   0.628E-02 0.219E-01 -.344E-01
   0.193E+00 0.461E+00 0.234E+04   -.212E+00 -.420E+00 -.234E+04   0.156E-01 0.149E-01 -.125E+01   -.119E-01 -.371E-01 -.381E-01
   0.149E+00 0.783E-01 0.234E+04   -.125E+00 -.753E-01 -.234E+04   0.155E-01 0.115E-01 -.119E+01   -.118E-01 -.149E-01 -.203E-01
   -.135E+00 -.558E+00 0.234E+04   0.244E+00 0.420E+00 -.234E+04   -.787E-01 0.847E-01 -.103E+01   -.336E-01 0.400E-01 -.286E-01
   -.543E+00 -.306E+00 0.234E+04   0.553E+00 0.381E+00 -.234E+04   -.973E-02 -.233E-01 -.122E+01   0.141E-01 -.171E-01 -.329E-01
   -.541E-01 -.700E+00 0.234E+04   0.615E-01 0.679E+00 -.234E+04   -.237E-01 0.183E-01 -.103E+01   0.363E-01 0.614E-02 -.687E-02
   -.151E+00 -.516E+01 0.855E+03   0.436E-01 0.516E+01 -.854E+03   0.671E-01 0.127E-01 -.399E+00   -.146E-01 0.343E-01 -.139E-01
   -.537E+01 -.251E+01 0.858E+03   0.531E+01 0.249E+01 -.858E+03   0.144E+00 0.751E-01 -.141E+00   -.292E-01 0.285E-01 -.161E-01
   0.966E-01 -.363E+01 0.853E+03   -.474E-01 0.359E+01 -.853E+03   -.703E-01 0.860E-01 -.149E+00   0.557E-01 -.421E-01 -.166E-01
   0.156E+01 0.118E+01 0.856E+03   -.163E+01 -.122E+01 -.856E+03   0.139E-01 0.103E+00 -.205E+00   0.170E-01 -.652E-01 -.387E-01
   0.196E+01 0.223E+01 0.858E+03   -.198E+01 -.222E+01 -.858E+03   0.203E-01 -.599E-01 -.239E+00   -.460E-01 0.140E-01 -.259E-01
   0.846E+00 0.510E+01 0.855E+03   -.834E+00 -.514E+01 -.855E+03   -.472E-01 -.193E-01 -.107E+00   0.378E-02 0.738E-02 -.362E-01
   0.786E+00 0.402E+01 0.862E+03   -.772E+00 -.392E+01 -.862E+03   -.453E-01 -.180E+00 -.346E+00   -.133E-01 0.309E-01 -.309E-01
   -.350E+00 0.898E+00 0.860E+03   0.389E+00 -.854E+00 -.860E+03   -.190E-01 -.308E-01 -.355E+00   0.139E-01 -.425E-01 -.144E-01
   0.150E+01 -.124E+01 0.861E+03   -.147E+01 0.134E+01 -.860E+03   -.308E-01 -.628E-01 -.315E+00   0.126E-01 0.348E-01 -.187E-01
   -.566E+00 0.382E+01 -.640E+03   0.446E+00 -.382E+01 0.640E+03   0.568E-01 -.610E-01 0.203E+00   0.220E-01 -.628E-02 0.170E-03
   -.333E+00 0.186E+01 -.625E+03   0.362E+00 -.176E+01 0.624E+03   -.499E-01 -.135E+00 0.599E+00   -.499E-03 -.846E-02 0.377E-01
   -.373E+01 0.297E+01 -.658E+03   0.342E+01 -.260E+01 0.658E+03   0.311E+00 -.273E+00 -.114E+00   0.989E-02 -.416E-01 -.172E-01
   -.420E+01 0.114E+02 -.632E+03   0.373E+01 -.106E+02 0.632E+03   0.419E+00 -.750E+00 -.528E+00   0.438E-01 -.607E-01 -.910E-02
   0.118E+02 -.990E+00 -.634E+03   -.111E+02 0.816E+00 0.634E+03   -.630E+00 0.193E+00 -.211E-01   -.921E-01 0.382E-01 -.570E-02
   -.546E+01 -.115E+02 -.618E+03   0.534E+01 0.112E+02 0.618E+03   0.107E+00 0.299E+00 0.599E+00   0.678E-02 0.689E-01 0.220E-01
   -.119E+01 -.364E+01 -.634E+03   0.117E+01 0.368E+01 0.633E+03   0.169E-01 0.128E-01 0.403E+00   0.144E-01 -.230E-01 0.230E-01
   0.155E+01 -.187E+01 -.633E+03   -.153E+01 0.186E+01 0.633E+03   -.303E-01 0.864E-01 0.347E+00   0.519E-02 -.300E-01 0.230E-01
   -.487E+00 -.504E+00 -.626E+03   0.430E+00 0.221E+00 0.626E+03   0.123E+00 0.200E+00 0.479E+00   -.143E-01 0.635E-01 -.916E-02
   -.191E+02 -.547E-01 -.214E+04   0.196E+02 0.434E+00 0.214E+04   -.596E+00 -.506E+00 0.148E+01   0.413E-01 -.937E-02 0.152E-01
   0.954E+01 0.323E+02 -.215E+04   -.101E+02 -.328E+02 0.215E+04   0.709E+00 0.704E+00 0.124E+01   -.131E-01 -.529E-01 0.233E-01
   0.378E+02 -.907E+01 -.214E+04   -.379E+02 0.914E+01 0.214E+04   0.106E+00 -.105E+00 0.106E+01   -.214E-02 -.787E-02 -.623E-02
   -.620E+01 -.818E+01 -.214E+04   0.608E+01 0.780E+01 0.214E+04   0.550E-01 0.583E+00 0.122E+01   0.231E-01 -.184E-01 -.273E-01
   0.201E+02 0.109E+02 -.218E+04   -.200E+02 -.113E+02 0.218E+04   -.879E-01 0.391E+00 0.732E+00   -.372E-01 0.213E-01 0.111E-01
   0.714E+02 0.583E+02 -.196E+04   -.745E+02 -.565E+02 0.196E+04   0.261E+01 -.174E+01 -.342E+01   -.188E-01 0.297E-01 0.918E-01
   -.613E+02 -.510E+02 -.207E+04   0.626E+02 0.537E+02 0.207E+04   -.135E+01 -.292E+01 0.210E+01   0.732E-02 0.552E-01 0.321E-01
   -.607E+02 0.897E+02 -.204E+04   0.612E+02 -.908E+02 0.204E+04   -.636E+00 0.123E+01 -.155E+00   0.333E-01 -.389E-01 0.326E-01
   0.183E+02 -.759E+02 -.213E+04   -.182E+02 0.769E+02 0.213E+04   -.227E+00 -.767E+00 0.102E+01   -.976E-02 0.992E-02 0.248E-01
 -----------------------------------------------------------------------------------------------
   -.626E+01 0.228E+02 0.737E+02   0.107E-13 0.284E-13 0.773E-11   0.630E+01 -.227E+02 -.735E+02   0.161E-01 -.320E-03 -.157E+00
 
 
 POSITION                                       TOTAL-FORCE (eV/Angst)
 -----------------------------------------------------------------------------------
      5.12256      0.57672     10.37955         0.220037     -0.990539      0.038333
      6.62769     -0.47052     10.14449         0.481028      0.612351      0.315849
      4.97117      0.98918     11.46323         0.135804      0.006242     -0.155346
      7.20031     -1.38846      1.62732         0.012620     -0.034113      0.157555
      2.33567      1.42014      1.62732        -0.031704     -0.053185      0.156680
      4.76799      0.01584      1.62732        -0.024269     -0.015257      0.130626
      7.20031      1.42015      1.62732         0.017519      0.059273      0.116750
      2.33567      4.22875      1.62732        -0.016604      0.014714      0.139061
      4.76799      2.82445      1.62732         0.026378     -0.004167      0.153345
      2.33567      7.03734      1.62732        -0.005569     -0.017700      0.053677
      4.76799      5.63304      1.62732         0.012633      0.030612      0.133540
      7.20031      4.22874      1.62732         0.018535     -0.000014      0.041336
      1.52490      0.01584      3.92052        -0.056241      0.036230     -0.061303
      3.95722     -1.38846      3.92052         0.059909      0.080541      0.019249
      6.38953     -2.79276      3.92052         0.032982      0.003634     -0.007176
      1.52490      2.82445      3.92052        -0.036568      0.000806     -0.013982
      3.95722      1.42015      3.92052        -0.046150     -0.041205      0.003115
      6.38953      0.01585      3.92052        -0.033266     -0.057291      0.160538
      1.52490      5.63305      3.92052        -0.045641     -0.050560     -0.158206
      3.95722      4.22874      3.92052         0.032691     -0.033158     -0.079689
      6.38953      2.82445      3.92052         0.002067      0.071087     -0.219567
      0.70397      4.21855      6.22419        -0.043429     -0.076155     -0.173603
      3.14729      5.63593      6.18181        -0.022639     -0.047259      0.104976
      5.56118     -1.38439      6.25747         0.012968      0.049379     -0.173172
      0.69096      1.44656      6.21798        -0.009373     -0.010397      0.018727
      3.14146     -0.00415      6.21882         0.005342      0.054078     -0.060844
      0.70987      7.01102      6.17614        -0.003977      0.042786      0.234090
      5.56824      4.22069      6.20088         0.005912      0.020497     -0.026618
      3.14923      2.80951      6.20397        -0.006713      0.036658      0.024416
      5.56811      1.41087      6.20506         0.050258     -0.023497      0.068172
      2.36471      4.23835      8.45391        -0.013729     -0.140331      0.099934
      4.74125      5.59677      8.50880         0.112473      0.064969     -0.239351
      2.33630      1.40915      8.49867        -0.061981     -0.049856     -0.159787
      7.21530      4.17189      8.45374        -0.042790      0.179026      0.277260
      2.34044      7.01010      8.54231        -0.068978     -0.011924     -0.261048
      4.66354      0.06245      8.59538        -0.417033      0.106872     -0.143762
      7.24865      1.45531      8.51110         0.036506     -0.164012     -0.174333
      7.24912     -1.51341      8.57722        -0.186667      0.094945      0.187963
      4.79086      2.83267      8.55045        -0.102341      0.255918     -0.527405
 -----------------------------------------------------------------------------------
    total drift:                                0.060004      0.141696      0.038505
  FORCES: max atom, RMS     1.015408    0.275324
  Number: max atom                 1
  FORCE total and by dimension    1.719397    0.990539


--------------------------------------------------------------------------------------------------------



  FREE ENERGIE OF THE ION-ELECTRON SYSTEM (eV)
  ---------------------------------------------------
  free  energy   TOTEN  =      -230.72246543 eV

  energy  without entropy=     -230.71417726  energy(sigma->0) =     -230.71970271
 
 d Force = 0.3616938E-01[ 0.209E-01, 0.515E-01]  d Energy = 0.3587553E-01 0.294E-03
 d Force =-0.2793477E+02[-0.281E+02,-0.278E+02]  d Ewald  =-0.2793583E+02 0.106E-02


--------------------------------------------------------------------------------------------------------


    POTLOK:  cpu time    0.1285: real time    0.1862


--------------------------------------------------------------------------------------------------------


 stress matrix after NEB project (eV)
    -37.60828      0.87620      2.04704
      0.87620    -40.00119     -0.56031
      2.04704     -0.56031     -6.39655
  FORCES: max atom, RMS     1.015408    0.275324
  FORCE total and by dimension    1.719397    0.990539
  Stress total and by dimension   55.370907   40.001185
 Quasi-Newton relaxation of ions (Broydens 2nd method)
  g(Force)  = 0.570E-01   g(Stress)= 0.000E+00

 retain information from N=  3 steps
 eigenvalues of (default step * inverse Hessian matrix)
  average eigenvalue of G=   1.3738
 eigenvalue spectrum of G is  3.3069  0.1807  0.6339
  RESET_HESSIAN           0


--------------------------------------------------------------------------------------------------------


    WAVPRE:  cpu time    0.0633: real time    0.1402
    FEWALD:  cpu time    0.0015: real time    0.0016

 real space projection operators:
  total allocation   :      13544.61 KBytes
  max/ min on nodes  :       6780.14       6764.47

    ORTHCH:  cpu time    0.8478: real time    0.8545
     LOOP+:  cpu time   60.9293: real time   61.7098


--------------------------------------- Iteration      6(   1)  ---------------------------------------


    POTLOK:  cpu time    0.1237: real time    0.2232
    SETDIJ:  cpu time    0.0095: real time    0.0096
