 running on    8 total cores
 distrk:  each k-point on    8 cores,    1 groups
 distr:  one band on    2 cores,    4 groups
 using from now: INCAR     
 vasp.5.4.4 16052018 (build Apr 24 2014 20:13:14) complex standard
 Contain Constrained Minimization Technique (TS), Periodic NBO, VASPsol, libbeef, VASP2WANNIER90, Constrained Cell Relaxation
 POSCAR found type information on POSCAR  C  O  Pt
 POSCAR found :  3 types and      39 ions
 scaLAPACK will be used
 LDA part: xc-table for Pade appr. of Perdew
 POSCAR found type information on POSCAR  C  O  Pt
 POSCAR found :  3 types and      39 ions
 POSCAR, INCAR and KPOINTS ok, starting setup
 FFT: planning ...
 WAVECAR not read
 entering main loop
       N       E                     dE             d eps       ncg     rms          rms(c)
DAV:   1     0.241835081351E+04    0.24184E+04   -0.15948E+05  1824   0.129E+03
DAV:   2    -0.642201331131E+02   -0.24826E+04   -0.23081E+04  2128   0.286E+02
DAV:   3    -0.240207117065E+03   -0.17599E+03   -0.15991E+03  2176   0.688E+01
DAV:   4    -0.247758680500E+03   -0.75516E+01   -0.72810E+01  2352   0.136E+01
DAV:   5    -0.247982034163E+03   -0.22335E+00   -0.22118E+00  2560   0.236E+00    0.271E+01
RMM:   6    -0.245047746782E+03    0.29343E+01   -0.54661E+01  1832   0.148E+01    0.281E+01
RMM:   7    -0.240329250214E+03    0.47185E+01   -0.31758E+01  1827   0.884E+00    0.190E+01
RMM:   8    -0.244369537126E+03   -0.40403E+01   -0.87750E+00  1832   0.464E+00    0.236E+01
RMM:   9    -0.231094477602E+03    0.13275E+02   -0.41610E+00  1831   0.333E+00    0.743E+00
RMM:  10    -0.230308501151E+03    0.78598E+00   -0.10089E+00  1831   0.159E+00    0.411E+00
RMM:  11    -0.230000987436E+03    0.30751E+00   -0.29912E-01  1837   0.858E-01    0.234E+00
RMM:  12    -0.229971266761E+03    0.29721E-01   -0.18523E-01  1835   0.679E-01    0.242E+00
RMM:  13    -0.229940790071E+03    0.30477E-01   -0.13519E-01  1831   0.615E-01    0.191E+00
RMM:  14    -0.229901814129E+03    0.38976E-01   -0.80872E-02  1831   0.491E-01    0.888E-01
RMM:  15    -0.229893348585E+03    0.84655E-02   -0.22496E-02  1832   0.249E-01    0.494E-01
RMM:  16    -0.229889357294E+03    0.39913E-02   -0.53502E-03  1829   0.126E-01    0.202E-01
RMM:  17    -0.229889254194E+03    0.10310E-03   -0.15406E-03  1812   0.660E-02    0.159E-01
RMM:  18    -0.229889335115E+03   -0.80921E-04   -0.66959E-04  1707   0.445E-02
   1 F= -.22988934E+03 E0= -.22988446E+03  d E =-.229889E+03
 BRION: g(F)=  0.449E+00 g(S)=  0.000E+00
 bond charge predicted
       N       E                     dE             d eps       ncg     rms          rms(c)
DAV:   1    -0.230145609009E+03   -0.25635E+00   -0.41795E+01  1856   0.118E+01    0.977E-01
RMM:   2    -0.230247174691E+03   -0.10157E+00   -0.86153E-01  1834   0.192E+00    0.156E+00
RMM:   3    -0.230237647456E+03    0.95272E-02   -0.56936E-02  1878   0.410E-01    0.139E+00
RMM:   4    -0.230210525995E+03    0.27121E-01   -0.18102E-02  1842   0.227E-01    0.608E-01
RMM:   5    -0.230207579353E+03    0.29466E-02   -0.10076E-02  1835   0.172E-01    0.477E-01
RMM:   6    -0.230207307063E+03    0.27229E-03   -0.11978E-02  1831   0.185E-01    0.442E-01
RMM:   7    -0.230204692190E+03    0.26149E-02   -0.51789E-03  1830   0.122E-01    0.192E-01
RMM:   8    -0.230204397524E+03    0.29467E-03   -0.13532E-03  1817   0.635E-02    0.126E-01
RMM:   9    -0.230204229323E+03    0.16820E-03   -0.36879E-04  1261   0.342E-02    0.609E-02
RMM:  10    -0.230204265187E+03   -0.35864E-04   -0.11758E-04   970   0.203E-02
   2 F= -.23020427E+03 E0= -.23020040E+03  d E =-.314930E+00
 BRION: g(F)=  0.471E+00 g(S)=  0.000E+00 retain N=  1 mean eig= 0.70
 eig:   0.705
 bond charge predicted
       N       E                     dE             d eps       ncg     rms          rms(c)
DAV:   1    -0.230307336585E+03   -0.10311E+00   -0.11321E+01  1848   0.642E+00    0.597E-01
RMM:   2    -0.230354225517E+03   -0.46889E-01   -0.46330E-01  1845   0.106E+00    0.758E-01
RMM:   3    -0.230349415913E+03    0.48096E-02   -0.16220E-02  1857   0.204E-01    0.724E-01
RMM:   4    -0.230342480820E+03    0.69351E-02   -0.46638E-03  1842   0.110E-01    0.392E-01
RMM:   5    -0.230342657043E+03   -0.17622E-03   -0.85601E-03  1833   0.150E-01    0.455E-01
RMM:   6    -0.230339990329E+03    0.26667E-02   -0.58194E-03  1829   0.128E-01    0.243E-01
RMM:   7    -0.230339195145E+03    0.79518E-03   -0.18688E-03  1821   0.729E-02    0.122E-01
RMM:   8    -0.230338958583E+03    0.23656E-03   -0.30333E-04  1089   0.321E-02    0.461E-02
RMM:   9    -0.230338952369E+03    0.62140E-05   -0.11549E-04   986   0.210E-02
   3 F= -.23033895E+03 E0= -.23033523E+03  d E =-.134687E+00
 BRION: g(F)=  0.263E+00 g(S)=  0.000E+00 retain N=  2 mean eig= 1.52
 eig:   0.207  2.824
 bond charge predicted
       N       E                     dE             d eps       ncg     rms          rms(c)
DAV:   1    -0.230455544565E+03   -0.11659E+00   -0.15864E+02  1824   0.234E+01    0.178E+00
RMM:   2    -0.230874694414E+03   -0.41915E+00   -0.30192E+00  1835   0.362E+00    0.322E+00
RMM:   3    -0.230781992386E+03    0.92702E-01   -0.21922E-01  1869   0.807E-01    0.231E+00
RMM:   4    -0.230702484148E+03    0.79508E-01   -0.65806E-02  1840   0.439E-01    0.985E-01
RMM:   5    -0.230692578996E+03    0.99052E-02   -0.25528E-02  1835   0.272E-01    0.706E-01
RMM:   6    -0.230696834123E+03   -0.42551E-02   -0.29659E-02  1834   0.289E-01    0.830E-01
RMM:   7    -0.230688344497E+03    0.84896E-02   -0.16340E-02  1833   0.218E-01    0.292E-01
RMM:   8    -0.230687162290E+03    0.11822E-02   -0.35908E-03  1835   0.103E-01    0.171E-01
RMM:   9    -0.230686734160E+03    0.42813E-03   -0.87797E-04  1812   0.516E-02    0.106E-01
RMM:  10    -0.230686574391E+03    0.15977E-03   -0.31065E-04  1115   0.315E-02    0.555E-02
RMM:  11    -0.230686589904E+03   -0.15513E-04   -0.22490E-04   983   0.276E-02
   4 F= -.23068659E+03 E0= -.23068341E+03  d E =-.347638E+00
 BRION: g(F)=  0.965E-01 g(S)=  0.000E+00 retain N=  2 mean eig= 1.20
 eig:   0.455  1.937
 bond charge predicted
       N       E                     dE             d eps       ncg     rms          rms(c)
DAV:   1    -0.230715207308E+03   -0.28633E-01   -0.46322E+00  1824   0.382E+00    0.343E-01
RMM:   2    -0.230724663721E+03   -0.94564E-02   -0.93800E-02  1836   0.606E-01    0.372E-01
RMM:   3    -0.230727876685E+03   -0.32130E-02   -0.72801E-03  1866   0.145E-01    0.588E-01
RMM:   4    -0.230723051814E+03    0.48249E-02   -0.22241E-03  1836   0.786E-02    0.216E-01
RMM:   5    -0.230722670483E+03    0.38133E-03   -0.10994E-03  1817   0.566E-02    0.151E-01
RMM:   6    -0.230722624677E+03    0.45806E-04   -0.96301E-04  1803   0.520E-02    0.115E-01
RMM:   7    -0.230722557088E+03    0.67588E-04   -0.45772E-04  1440   0.373E-02    0.736E-02
RMM:   8    -0.230722465429E+03    0.91659E-04   -0.14303E-04   988   0.232E-02
   5 F= -.23072247E+03 E0= -.23071970E+03  d E =-.358755E-01
 BRION: g(F)=  0.570E-01 g(S)=  0.000E+00 retain N=  3 mean eig= 1.37
 eig:   3.307  0.181  0.634
 bond charge predicted
       N       E                     dE             d eps       ncg     rms          rms(c)
[mpiexec@node06] Sending Ctrl-C to processes as requested
[mpiexec@node06] Press Ctrl-C again to force abort
