       N       E                     dE             d eps       ncg     rms          rms(c)
DAV:   1     0.242216128756E+04    0.24222E+04   -0.15954E+05  1824   0.129E+03
DAV:   2    -0.634568579714E+02   -0.24856E+04   -0.23089E+04  2120   0.286E+02
DAV:   3    -0.240224174204E+03   -0.17677E+03   -0.16059E+03  2184   0.689E+01
DAV:   4    -0.247838609074E+03   -0.76144E+01   -0.73033E+01  2344   0.136E+01
DAV:   5    -0.248054893254E+03   -0.21628E+00   -0.21474E+00  2304   0.239E+00    0.273E+01
RMM:   6    -0.245980990234E+03    0.20739E+01   -0.55156E+01  1831   0.149E+01    0.296E+01
RMM:   7    -0.245928985895E+03    0.52004E-01   -0.32237E+01  1831   0.899E+00    0.221E+01
RMM:   8    -0.243441244022E+03    0.24877E+01   -0.10358E+01  1826   0.484E+00    0.229E+01
RMM:   9    -0.231654148402E+03    0.11787E+02   -0.63279E+00  1831   0.416E+00    0.919E+00
RMM:  10    -0.230387361600E+03    0.12668E+01   -0.19663E+00  1831   0.230E+00    0.542E+00
RMM:  11    -0.230091113990E+03    0.29625E+00   -0.52987E-01  1831   0.115E+00    0.350E+00
RMM:  12    -0.229908782152E+03    0.18233E+00   -0.21219E-01  1844   0.742E-01    0.175E+00
RMM:  13    -0.229907622533E+03    0.11596E-02   -0.97222E-02  1833   0.523E-01    0.181E+00
RMM:  14    -0.229877503150E+03    0.30119E-01   -0.76491E-02  1830   0.479E-01    0.982E-01
RMM:  15    -0.229870576812E+03    0.69263E-02   -0.29610E-02  1830   0.295E-01    0.701E-01
RMM:  16    -0.229862801843E+03    0.77750E-02   -0.69716E-03  1824   0.145E-01    0.207E-01
RMM:  17    -0.229862449268E+03    0.35258E-03   -0.14171E-03  1814   0.634E-02    0.142E-01
RMM:  18    -0.229862674670E+03   -0.22540E-03   -0.89112E-04  1786   0.493E-02    0.136E-01
RMM:  19    -0.229862529221E+03    0.14545E-03   -0.38683E-04  1313   0.347E-02    0.488E-02
RMM:  20    -0.229862601188E+03   -0.71966E-04   -0.95963E-05  1003   0.178E-02
   1 F= -.22986260E+03 E0= -.22985639E+03  d E =-.229863E+03
       N       E                     dE             d eps       ncg     rms          rms(c)
DAV:   1    -0.230183880754E+03   -0.32135E+00   -0.47713E+01  1848   0.124E+01    0.916E-01
RMM:   2    -0.230306009916E+03   -0.12213E+00   -0.82558E-01  1835   0.194E+00    0.193E+00
RMM:   3    -0.230274266173E+03    0.31744E-01   -0.64299E-02  1871   0.438E-01    0.131E+00
RMM:   4    -0.230250420770E+03    0.23845E-01   -0.21754E-02  1840   0.249E-01    0.576E-01
RMM:   5    -0.230246446594E+03    0.39742E-02   -0.70995E-03  1836   0.142E-01    0.370E-01
RMM:   6    -0.230246848617E+03   -0.40202E-03   -0.87179E-03  1830   0.160E-01    0.379E-01
RMM:   7    -0.230245754022E+03    0.10946E-02   -0.51522E-03  1831   0.122E-01    0.234E-01
RMM:   8    -0.230244889140E+03    0.86488E-03   -0.13915E-03  1815   0.646E-02    0.790E-02
RMM:   9    -0.230244870765E+03    0.18374E-04   -0.22138E-04  1037   0.270E-02
   2 F= -.23024487E+03 E0= -.23023784E+03  d E =-.382270E+00
       N       E                     dE             d eps       ncg     rms          rms(c)
DAV:   1    -0.230305744070E+03   -0.60855E-01   -0.26363E+01  1840   0.971E+00    0.785E-01
RMM:   2    -0.230393994301E+03   -0.88250E-01   -0.86067E-01  1850   0.158E+00    0.101E+00
RMM:   3    -0.230390442198E+03    0.35521E-02   -0.35985E-02  1863   0.317E-01    0.108E+00
RMM:   4    -0.230375188549E+03    0.15254E-01   -0.91327E-03  1838   0.160E-01    0.548E-01
RMM:   5    -0.230372641232E+03    0.25473E-02   -0.91899E-03  1831   0.154E-01    0.498E-01
RMM:   6    -0.230372421314E+03    0.21992E-03   -0.10649E-02  1832   0.165E-01    0.552E-01
RMM:   7    -0.230368850992E+03    0.35703E-02   -0.46682E-03  1830   0.114E-01    0.190E-01
RMM:   8    -0.230368368121E+03    0.48287E-03   -0.10975E-03  1817   0.575E-02    0.966E-02
RMM:   9    -0.230368268601E+03    0.99520E-04   -0.25647E-04  1062   0.293E-02
   3 F= -.23036827E+03 E0= -.23036046E+03  d E =-.123398E+00
       N       E                     dE             d eps       ncg     rms          rms(c)
DAV:   1    -0.230508333806E+03   -0.13997E+00   -0.65954E+01  1824   0.149E+01    0.120E+00
RMM:   2    -0.230634507686E+03   -0.12617E+00   -0.13054E+00  1840   0.236E+00    0.132E+00
RMM:   3    -0.230661577200E+03   -0.27070E-01   -0.94602E-02  1848   0.538E-01    0.193E+00
RMM:   4    -0.230611908995E+03    0.49668E-01   -0.23074E-02  1848   0.250E-01    0.825E-01
RMM:   5    -0.230603884830E+03    0.80242E-02   -0.15543E-02  1828   0.210E-01    0.507E-01
RMM:   6    -0.230603930576E+03   -0.45746E-04   -0.13523E-02  1830   0.199E-01    0.542E-01
RMM:   7    -0.230601814898E+03    0.21157E-02   -0.75728E-03  1831   0.146E-01    0.357E-01
RMM:   8    -0.230600025308E+03    0.17896E-02   -0.22585E-03  1826   0.826E-02    0.136E-01
RMM:   9    -0.230599912373E+03    0.11294E-03   -0.60477E-04  1645   0.416E-02    0.104E-01
RMM:  10    -0.230599794116E+03    0.11826E-03   -0.17492E-04   993   0.247E-02    0.401E-02
RMM:  11    -0.230599825840E+03   -0.31724E-04   -0.97799E-05   966   0.189E-02
   4 F= -.23059983E+03 E0= -.23059061E+03  d E =-.231557E+00
       N       E                     dE             d eps       ncg     rms          rms(c)
DAV:   1    -0.230633988701E+03   -0.34195E-01   -0.30407E+00  1848   0.340E+00    0.311E-01
RMM:   2    -0.230644398256E+03   -0.10410E-01   -0.76171E-02  1837   0.518E-01    0.563E-01
RMM:   3    -0.230642413476E+03    0.19848E-02   -0.50094E-03  1857   0.121E-01    0.422E-01
RMM:   4    -0.230640227947E+03    0.21855E-02   -0.20462E-03  1828   0.766E-02    0.222E-01
RMM:   5    -0.230639773325E+03    0.45462E-03   -0.74634E-04  1677   0.464E-02    0.151E-01
RMM:   6    -0.230639650686E+03    0.12264E-03   -0.63945E-04  1547   0.438E-02    0.944E-02
RMM:   7    -0.230639651639E+03   -0.95327E-06   -0.37177E-04  1271   0.347E-02    0.805E-02
RMM:   8    -0.230639567449E+03    0.84191E-04   -0.15286E-04   998   0.242E-02
   5 F= -.23063957E+03 E0= -.23063013E+03  d E =-.397416E-01
       N       E                     dE             d eps       ncg     rms          rms(c)
