 vasp.5.4.4 16052018 (build Apr 24 2014 20:13:14) complex standard
 Contain Constrained Minimization Technique (TS), Periodic NBO, VASPsol, libbeef, VASP2WANNIER90, Constrained Cell Relaxation
 executed on Center for Computational Chemistry by phu@node09 date 2025.09.27 23:05:51
 running on    8 total cores
 distrk:  each k-point on    8 cores,    1 groups
 distr:  one band on NCORES_PER_BAND=   2 cores,    4 groups


--------------------------------------------------------------------------------------------------------


 INCAR:
 POTCAR:   PAW_PBE C 08Apr2002                    
 POTCAR:   PAW_PBE O 08Apr2002                    
 POTCAR:    PAW_PBE Pt 04Feb2005                  
 POTCAR:   PAW_PBE C 08Apr2002                    
   VRHFIN =C: s2p2                                                              
   LEXCH  = PE                                                                  
   EATOM  =   147.1560 eV,   10.8157 Ry                                         
                                                                                
   TITEL  = PAW_PBE C 08Apr2002                                                 
   LULTRA =        F    use ultrasoft PP ?                                      
   IUNSCR =        0    unscreen: 0-lin 1-nonlin 2-no                           
   RPACOR =     .000    partial core radius                                     
   POMASS =   12.011; ZVAL   =    4.000    mass and valenz                      
   RCORE  =    1.500    outmost cutoff radius                                   
   RWIGS  =    1.630; RWIGS  =     .863    wigner-seitz radius (au A)           
   ENMAX  =  400.000; ENMIN  =  300.000 eV                                      
   ICORE  =        2    local potential                                         
   LCOR   =        T    correct aug charges                                     
   LPAW   =        T    paw PP                                                  
   EAUG   =  644.873                                                            
   DEXC   =     .000                                                            
   RMAX   =    2.266    core radius for proj-oper                               
   RAUG   =    1.300    factor for augmentation sphere                          
   RDEP   =    1.501    radius for radial grids                                 
   RDEPT  =    1.300    core radius for aug-charge                              
   QCUT   =   -5.516; QGAM   =   11.032    optimization parameters              
                                                                                
   Description                                                                  
     l     E      TYP  RCUT    TYP  RCUT                                        
     0   .000     23  1.200                                                     
     0   .000     23  1.200                                                     
     1   .000     23  1.500                                                     
     1  2.500     23  1.500                                                     
     2   .000      7  1.500                                                     
  local pseudopotential read in
  atomic valenz-charges read in
  non local Contribution for L=           0  read in
    real space projection operators read in
  non local Contribution for L=           0  read in
    real space projection operators read in
  non local Contribution for L=           1  read in
    real space projection operators read in
  non local Contribution for L=           1  read in
    real space projection operators read in
    PAW grid and wavefunctions read in
 
   number of l-projection  operators is LMAX  =           4
   number of lm-projection operators is LMMAX =           8
 
 POTCAR:   PAW_PBE O 08Apr2002                    
   VRHFIN =O: s2p4                                                              
   LEXCH  = PE                                                                  
   EATOM  =   432.3788 eV,   31.7789 Ry                                         
                                                                                
   TITEL  = PAW_PBE O 08Apr2002                                                 
   LULTRA =        F    use ultrasoft PP ?                                      
   IUNSCR =        0    unscreen: 0-lin 1-nonlin 2-no                           
   RPACOR =     .000    partial core radius                                     
   POMASS =   16.000; ZVAL   =    6.000    mass and valenz                      
   RCORE  =    1.520    outmost cutoff radius                                   
   RWIGS  =    1.550; RWIGS  =     .820    wigner-seitz radius (au A)           
   ENMAX  =  400.000; ENMIN  =  300.000 eV                                      
   ICORE  =        2    local potential                                         
   LCOR   =        T    correct aug charges                                     
   LPAW   =        T    paw PP                                                  
   EAUG   =  605.392                                                            
   DEXC   =     .000                                                            
   RMAX   =    2.264    core radius for proj-oper                               
   RAUG   =    1.300    factor for augmentation sphere                          
   RDEP   =    1.550    radius for radial grids                                 
   QCUT   =   -5.520; QGAM   =   11.041    optimization parameters              
                                                                                
   Description                                                                  
     l     E      TYP  RCUT    TYP  RCUT                                        
     0   .000     23  1.200                                                     
     0  -.700     23  1.200                                                     
     1   .000     23  1.520                                                     
     1   .600     23  1.520                                                     
     2   .000      7  1.500                                                     
  local pseudopotential read in
  atomic valenz-charges read in
  non local Contribution for L=           0  read in
    real space projection operators read in
  non local Contribution for L=           0  read in
    real space projection operators read in
  non local Contribution for L=           1  read in
    real space projection operators read in
  non local Contribution for L=           1  read in
    real space projection operators read in
    PAW grid and wavefunctions read in
 
   number of l-projection  operators is LMAX  =           4
   number of lm-projection operators is LMMAX =           8
 
 POTCAR:    PAW_PBE Pt 04Feb2005                  
   VRHFIN =Pt: s1d9                                                             
   LEXCH  = PE                                                                  
   EATOM  =   729.1182 eV,   53.5887 Ry                                         
                                                                                
   TITEL  = PAW_PBE Pt 04Feb2005                                                
   LULTRA =        F    use ultrasoft PP ?                                      
   IUNSCR =        1    unscreen: 0-lin 1-nonlin 2-no                           
   RPACOR =    2.330    partial core radius                                     
   POMASS =  195.080; ZVAL   =   10.000    mass and valenz                      
   RCORE  =    2.600    outmost cutoff radius                                   
   RWIGS  =    2.750; RWIGS  =    1.455    wigner-seitz radius (au A)           
   ENMAX  =  230.283; ENMIN  =  172.712 eV                                      
   ICORE  =        3    local potential                                         
   LCOR   =        T    correct aug charges                                     
   LPAW   =        T    paw PP                                                  
   EAUG   =  358.966                                                            
   DEXC   =     .000                                                            
   RMAX   =    3.038    core radius for proj-oper                               
   RAUG   =    1.300    factor for augmentation sphere                          
   RDEP   =    2.761    radius for radial grids                                 
   QCUT   =   -4.114; QGAM   =    8.228    optimization parameters              
                                                                                
   Description                                                                  
     l     E      TYP  RCUT    TYP  RCUT                                        
     2   .000     23  2.500                                                     
     2   .000     23  2.500                                                     
     0   .000     23  2.500                                                     
     0   .000     23  2.500                                                     
     1  -.200     23  2.600                                                     
     1  1.500     23  2.600                                                     
     3   .000     23  2.500                                                     
  local pseudopotential read in
  partial core-charges read in
  atomic valenz-charges read in
  non local Contribution for L=           2  read in
    real space projection operators read in
  non local Contribution for L=           2  read in
    real space projection operators read in
  non local Contribution for L=           0  read in
    real space projection operators read in
  non local Contribution for L=           0  read in
    real space projection operators read in
  non local Contribution for L=           1  read in
    real space projection operators read in
  non local Contribution for L=           1  read in
    real space projection operators read in
    PAW grid and wavefunctions read in
 
   number of l-projection  operators is LMAX  =           6
   number of lm-projection operators is LMMAX =          18
 
 Optimization of the real space projectors (new method)

 maximal supplied QI-value         = 25.13
 optimisation between [QCUT,QGAM] = [ 10.81, 21.61] = [ 32.71,130.83] Ry 
 Optimized for a Real-space Cutoff    1.23 Angstroem

   l    n(q)    QCUT    max X(q) W(low)/X(q) W(high)/X(q)  e(spline) 
   0      8    10.807     5.582    0.53E-04    0.84E-04    0.44E-07
   0      8    10.807    69.432    0.35E-03    0.71E-03    0.24E-06
   1      7    10.807     2.780    0.44E-04    0.88E-04    0.89E-07
   1      7    10.807     4.549    0.14E-03    0.28E-03    0.13E-06
 Optimization of the real space projectors (new method)

 maximal supplied QI-value         = 24.76
 optimisation between [QCUT,QGAM] = [ 10.64, 21.54] = [ 31.73,129.89] Ry 
 Optimized for a Real-space Cutoff    1.23 Angstroem

   l    n(q)    QCUT    max X(q) W(low)/X(q) W(high)/X(q)  e(spline) 
   0      8    10.645     4.192    0.69E-04    0.93E-04    0.58E-07
   0      8    10.645     8.473    0.40E-03    0.65E-03    0.17E-06
   1      7    10.645     2.474    0.80E-04    0.12E-03    0.30E-07
   1      7    10.645     3.912    0.24E-03    0.53E-03    0.16E-06
 Optimization of the real space projectors (new method)

 maximal supplied QI-value         = 14.36
 optimisation between [QCUT,QGAM] = [ 10.77, 21.69] = [ 32.49,131.70] Ry 
 Optimized for a Real-space Cutoff    1.46 Angstroem

   l    n(q)    QCUT    max X(q) W(low)/X(q) W(high)/X(q)  e(spline) 
   2      9    10.771     3.903    0.38E-04    0.12E-03    0.82E-07
   2      9    10.771    18.372    0.13E-03    0.32E-03    0.28E-06
   0     10    10.771    13.697    0.11E-04    0.86E-05    0.85E-08
   0     10    10.771    65.529    0.40E-04    0.12E-03    0.14E-06
   1      9    10.771     7.604    0.48E-04    0.31E-04    0.38E-07
   1      9    10.771    12.136    0.35E-03    0.16E-03    0.23E-06
 PAW_PBE C 08Apr2002                    :
 energy of atom  1       EATOM= -147.1560
 kinetic energy error for atom=    0.0116 (will be added to EATOM!!)
 PAW_PBE O 08Apr2002                    :
 energy of atom  2       EATOM= -432.3788
 kinetic energy error for atom=    0.0389 (will be added to EATOM!!)
  PAW_PBE Pt 04Feb2005                  :
 energy of atom  3       EATOM= -729.1182
 kinetic energy error for atom=    0.0051 (will be added to EATOM!!)
 
 
 POSCAR: C    O    Pt                            
  positions in direct lattice
  No initial velocities read in
 exchange correlation table for  LEXCH =        8
   RHO(1)=    0.500       N(1)  =     2000
   RHO(2)=  100.500       N(2)  =     4000

 VTST: version 3.2, (02/03/18)

 CHAIN: initializing optimizer
 
 OPT: Using VASP QUASI-newton optimizer
 CHAIN: Read ICHAIN            0
 
 POSCAR: C    O    Pt                            
  positions in direct lattice
  No initial velocities read in
 


--------------------------------------------------------------------------------------------------------


 ion  position               nearest neighbor table
   1  0.697  0.439  0.474-   3 1.16  36 2.07  39 2.74
   2  0.908  0.385  0.461-  38 1.89  36 2.59  37 2.64
   3  0.669  0.466  0.524-   1 1.16
   4  0.987  0.329  0.074-  15 2.81  16 2.81  12 2.81   5 2.81  11 2.81   6 2.81  18 2.81   8 2.81
                             7 2.81
   5  0.320  0.329  0.074-  13 2.81  10 2.81   4 2.81  12 2.81  16 2.81  17 2.81   8 2.81   9 2.81
                             6 2.81
   6  0.653  0.329  0.074-  14 2.81  18 2.81  11 2.81   4 2.81  17 2.81   7 2.81  10 2.81   9 2.81
                             5 2.81
   7  0.987  0.662  0.074-  18 2.81  21 2.81  19 2.81  12 2.81   8 2.81  10 2.81   9 2.81   6 2.81
                             4 2.81
   8  0.320  0.662  0.074-  16 2.81  19 2.81  10 2.81   7 2.81  20 2.81   4 2.81  11 2.81   5 2.81
                             9 2.81
   9  0.653  0.662  0.074-  17 2.81  20 2.81  21 2.81  11 2.81  12 2.81   7 2.81   6 2.81   5 2.81
                             8 2.81
  10  0.320  0.995  0.074-  13 2.81  19 2.81   5 2.81   8 2.81  12 2.81   7 2.81  14 2.81   6 2.81
                            11 2.81
  11  0.653  0.995  0.074-  14 2.81  20 2.81  15 2.81   9 2.81   6 2.81  12 2.81   4 2.81   8 2.81
                            10 2.81
  12  0.987  0.995  0.074-  15 2.81  21 2.81  13 2.81   7 2.81   4 2.81  10 2.81   5 2.81  11 2.81
                             9 2.81
  13  0.209  0.106  0.179-  27 2.74  25 2.79   5 2.81  10 2.81  12 2.81  19 2.81  15 2.81  21 2.81
                            16 2.81  14 2.81  17 2.81  26 2.90
  14  0.542  0.106  0.179-  23 2.79  11 2.81   6 2.81  20 2.81  15 2.81  10 2.81  18 2.81  19 2.81
                            17 2.81  13 2.81  26 2.85  24 2.91
  15  0.876  0.106  0.179-  25 2.74  28 2.78   4 2.81  12 2.81  11 2.81  21 2.81  13 2.81  20 2.81
                            14 2.81  16 2.81  18 2.81  24 2.88
  16  0.209  0.440  0.179-  25 2.73  22 2.76   8 2.81   4 2.81  19 2.81  18 2.81   5 2.81  15 2.81
                            20 2.81  13 2.81  17 2.81  29 2.88
  17  0.542  0.440  0.179-   9 2.81  20 2.81  21 2.81  18 2.81   6 2.81   5 2.81  14 2.81  16 2.81
                            13 2.81  30 2.82  29 2.84  26 2.86
  18  0.876  0.440  0.179-  22 2.79   7 2.81   6 2.81  21 2.81  16 2.81  19 2.81  17 2.81   4 2.81
                            14 2.81  15 2.81  30 2.85  24 2.89
  19  0.209  0.773  0.179-  27 2.73  23 2.80  22 2.80  10 2.81   8 2.81   7 2.81  16 2.81  13 2.81
                            21 2.81  18 2.81  14 2.81  20 2.81
  20  0.542  0.773  0.179-  28 2.80  11 2.81   9 2.81  17 2.81  14 2.81  21 2.81  15 2.81   8 2.81
                            16 2.81  19 2.81  23 2.82  29 2.87
  21  0.876  0.773  0.179-  27 2.75  28 2.78   7 2.81  12 2.81   9 2.81  18 2.81  15 2.81  19 2.81
                            13 2.81  17 2.81  20 2.81  30 2.83
  22  0.099  0.547  0.283-  25 2.72  31 2.73  16 2.76  24 2.78  18 2.79  19 2.80  29 2.82  23 2.83
                            27 2.84  37 2.84  30 2.87  38 2.91
  23  0.430  0.887  0.284-  32 2.72  31 2.75  27 2.77  26 2.78  14 2.79  19 2.80  20 2.82  24 2.82
                            22 2.83  35 2.85  28 2.86  29 2.87
  24  0.768  0.218  0.289-  32 2.66  25 2.74  36 2.75  38 2.78  22 2.78  26 2.79  28 2.81  23 2.82
                            30 2.84  15 2.88  18 2.89  14 2.91
  25  0.094  0.222  0.281-  22 2.72  16 2.73  24 2.74  15 2.74  33 2.78  13 2.79  28 2.79  38 2.80
                            29 2.82  27 2.87  26 2.90  34 2.91
  26  0.438  0.220  0.287-  36 2.65  33 2.67  30 2.76  23 2.78  29 2.79  24 2.79  35 2.81  27 2.84
                            14 2.85  17 2.86  13 2.90  25 2.90
  27  0.100  0.884  0.280-  19 2.73  13 2.74  21 2.75  23 2.77  28 2.80  30 2.84  22 2.84  26 2.84
                            37 2.86  25 2.87  34 2.88  35 2.93
  28  0.768  0.885  0.283-  32 2.68  21 2.78  15 2.78  30 2.78  25 2.79  27 2.80  20 2.80  24 2.81
                            29 2.82  34 2.84  23 2.86  39 2.90
  29  0.435  0.549  0.287-  31 2.64  33 2.68  30 2.74  26 2.79  22 2.82  25 2.82  28 2.82  39 2.84
                            17 2.84  23 2.87  20 2.87  16 2.88
  30  0.761  0.551  0.285-  29 2.74  26 2.76  28 2.78  36 2.81  17 2.82  21 2.83  27 2.84  24 2.84
                            39 2.84  18 2.85  37 2.85  22 2.87
  31  0.323  0.657  0.383-  29 2.64  22 2.73  23 2.75  33 2.77  37 2.80  32 2.80  39 2.81  38 2.83
                            35 2.87
  32  0.657  0.986  0.383-  24 2.66  28 2.68  23 2.72  39 2.73  34 2.79  31 2.80  38 2.81  35 2.88
                            36 2.89
  33  0.317  0.325  0.384-  26 2.67  29 2.68  38 2.70  36 2.74  31 2.77  25 2.78  34 2.78  35 2.79
                            39 2.88
  34  0.990  0.992  0.390-  38 2.72  37 2.75  35 2.77  39 2.78  33 2.78  32 2.79  28 2.84  27 2.88
                            25 2.91
  35  0.322  0.997  0.392-  36 2.71  37 2.75  34 2.77  33 2.79  26 2.81  23 2.85  31 2.87  32 2.88
                            27 2.93
  36  0.640  0.321  0.388-   1 2.07   2 2.59  26 2.65  35 2.71  33 2.74  24 2.75  30 2.81  39 2.83
                            32 2.89  37 2.97  38 3.00
  37  0.997  0.669  0.389-   2 2.64  35 2.75  34 2.75  31 2.80  39 2.84  22 2.84  30 2.85  27 2.86
                            38 2.96  36 2.97
  38  0.994  0.316  0.391-   2 1.89  33 2.70  34 2.72  24 2.78  25 2.80  32 2.81  31 2.83  22 2.91
                            37 2.96  36 3.00
  39  0.659  0.665  0.393-  32 2.73   1 2.74  34 2.78  31 2.81  36 2.83  37 2.84  29 2.84  30 2.84
                            33 2.88  28 2.90
 

IMPORTANT INFORMATION: All symmetrisations will be switched off!
NOSYMM: (Re-)initialisation of all symmetry stuff for point group C_1.

 
 
 KPOINTS: mesh auto                               

Automatic generation of k-mesh.
Space group operators:
 irot       det(A)        alpha          n_x          n_y          n_z        tau_x        tau_y        tau_z
    1     1.000000     0.000000     1.000000     0.000000     0.000000     0.000000     0.000000     0.000000
 
 Subroutine IBZKPT returns following result:
 ===========================================
 
 Found      4 irreducible k-points:
 
 Following reciprocal coordinates:
            Coordinates               Weight
  0.000000  0.000000  0.000000      1.000000
  0.500000  0.000000  0.000000      1.000000
 -0.000000  0.500000  0.000000      1.000000
  0.500000  0.500000  0.000000      1.000000
 
 Following cartesian coordinates:
            Coordinates               Weight
  0.000000  0.000000  0.000000      1.000000
  0.068522  0.000000  0.000000      1.000000
  0.034261  0.059342  0.000000      1.000000
  0.102783  0.059342  0.000000      1.000000
 


--------------------------------------------------------------------------------------------------------




 Dimension of arrays:
   k-points           NKPTS =      4   k-points in BZ     NKDIM =      4   number of bands    NBANDS=    228
   number of dos      NEDOS =    301   number of ions     NIONS =     39
   non local maximal  LDIM  =      6   non local SUM 2l+1 LMDIM =     18
   total plane-waves  NPLWV = 276480
   max r-space proj   IRMAX =   2756   max aug-charges    IRDMAX=  12646
   dimension x,y,z NGX =    48 NGY =   48 NGZ =  120
   dimension x,y,z NGXF=    96 NGYF=   96 NGZF=  240
   support grid    NGXF=    96 NGYF=   96 NGZF=  240
   ions per type =               1   2  36
   NGX,Y,Z   is equivalent  to a cutoff of   9.47,  9.47,  9.12 a.u.
   NGXF,Y,Z  is equivalent  to a cutoff of  18.94, 18.94, 18.24 a.u.

 SYSTEM =  metal                                   
 POSCAR =  C    O    Pt                            

 Startparameter for this run:
   NWRITE =      2    write-flag & timer
   PREC   = normal    normal or accurate (medium, high low for compatibility)
   ISTART =      0    job   : 0-new  1-cont  2-samecut
   ICHARG =      2    charge: 1-file 2-atom 10-const
   ISPIN  =      1    spin polarized calculation?
   LNONCOLLINEAR =      F non collinear calculations
   LSORBIT =      F    spin-orbit coupling
   INIWAV =      1    electr: 0-lowe 1-rand  2-diag
   LASPH  =      F    aspherical Exc in radial PAW
   METAGGA=      F    non-selfconsistent MetaGGA calc.

 Electronic Relaxation 1
   ENCUT  =  450.0 eV  33.07 Ry    5.75 a.u.  14.57 14.57 37.84*2*pi/ulx,y,z
   ENINI  =  450.0     initial cutoff
   ENAUG  =  644.9 eV  augmentation charge cutoff
   NELM   =     60;   NELMIN=  8; NELMDL= -5     # of ELM steps 
   EDIFF  = 0.1E-03   stopping-criterion for ELM
   LREAL  =      T    real-space projection
   NLSPLINE    = F    spline interpolate recip. space projectors
   LCOMPAT=      F    compatible to vasp.4.4
   GGA_COMPAT  = T    GGA compatible to vasp.4.4-vasp.4.6
   LMAXPAW     = -100 max onsite density
   LMAXMIX     =    2 max onsite mixed and CHGCAR
   VOSKOWN=      0    Vosko Wilk Nusair interpolation
   ROPT   =   -0.00050  -0.00050  -0.00050
 Ionic relaxation
   EDIFFG = -.5E-01   stopping-criterion for IOM
   NSW    =   5000    number of steps for IOM
   NBLOCK =      1;   KBLOCK =   5000    inner block; outer block 
   IBRION =      1    ionic relax: 0-MD 1-quasi-New 2-CG
   NFREE  =      0    steps in history (QN), initial steepest desc. (CG)
   ISIF   =      2    stress and relaxation
   IWAVPR =     11    prediction:  0-non 1-charg 2-wave 3-comb
   ISYM   =      0    0-nonsym 1-usesym 2-fastsym
   LCORR  =      T    Harris-Foulkes like correction to forces

   POTIM  = 0.2000    time-step for ionic-motion
   TEIN   =    0.0    initial temperature
   TEBEG  =    0.0;   TEEND  =   0.0 temperature during run
   SMASS  =  -3.00    Nose mass-parameter (am)
   estimated Nose-frequenzy (Omega)   =  0.10E-29 period in steps =****** mass=  -0.162E-26a.u.
   SCALEE = 1.0000    scale energy and forces
   NPACO  =    256;   APACO  = 16.0  distance and # of slots for P.C.
   PSTRESS=    0.0 pullay stress

  Mass of Ions in am
   POMASS =  12.01 16.00195.08
  Ionic Valenz
   ZVAL   =   4.00  6.00 10.00
  Atomic Wigner-Seitz radii
   RWIGS  =  -1.00 -1.00 -1.00
  virtual crystal weights 
   VCA    =   1.00  1.00  1.00
   NELECT =     376.0000    total number of electrons
   NUPDOWN=      -1.0000    fix difference up-down

 DOS related values:
   EMIN   =  10.00;   EMAX   =-10.00  energy-range for DOS
   EFERMI =   0.00
   ISMEAR =     1;   SIGMA  =   0.20  broadening in eV -4-tet -1-fermi 0-gaus

 Electronic relaxation 2 (details)
   IALGO  =     68    algorithm
   LDIAG  =      T    sub-space diagonalisation (order eigenvalues)
   LSUBROT=      F    optimize rotation matrix (better conditioning)
   TURBO    =      0    0=normal 1=particle mesh
   IRESTART =      0    0=no restart 2=restart with 2 vectors
   NREBOOT  =      0    no. of reboots
   NMIN     =      0    reboot dimension
   EREF     =   0.00    reference energy to select bands
   IMIX   =      4    mixing-type and parameters
     AMIX     =   0.40;   BMIX     =  1.00
     AMIX_MAG =   1.60;   BMIX_MAG =  1.00
     AMIN     =   0.10
     WC   =   100.;   INIMIX=   1;  MIXPRE=   1;  MAXMIX= -45

 Intra band minimization:
   WEIMIN = 0.0010     energy-eigenvalue tresh-hold
   EBREAK =  0.11E-06  absolut break condition
   DEPER  =   0.30     relativ break condition  

   TIME   =   0.40     timestep for ELM

  volume/ion in A,a.u.               =      34.49       232.77
  Fermi-wavevector in a.u.,A,eV,Ry     =   1.070385  2.022734 15.588510  1.145723
  Thomas-Fermi vector in A             =   2.206093
 
 Write flags
   LWAVE        =      F    write WAVECAR
   LDOWNSAMPLE  =      F    k-point downsampling of WAVECAR
   LCHARG       =      F    write CHGCAR
   LVTOT        =      F    write LOCPOT, total local potential
   LVHAR        =      F    write LOCPOT, Hartree potential only
   LELF         =      F    write electronic localiz. function (ELF)
   LORBIT       =      0    0 simple, 1 ext, 2 COOP (PROOUT), +10 PAW based schemes


 Dipole corrections
   LMONO  =      F    monopole corrections only (constant potential shift)
   LDIPOL =      F    correct potential (dipole corrections)
   IDIPOL =      0    1-x, 2-y, 3-z, 4-all directions 
   EPSILON=  1.0000000 bulk dielectric constant

 Exchange correlation treatment:
   GGA     =    --    GGA type
   LEXCH   =     8    internal setting for exchange type
   VOSKOWN=      0    Vosko Wilk Nusair interpolation
   LHFCALC =     F    Hartree Fock is set to
   LHFONE  =     F    Hartree Fock one center treatment
   AEXX    =    0.0000 exact exchange contribution

 Linear response parameters
   LEPSILON=     F    determine dielectric tensor
   LRPA    =     F    only Hartree local field effects (RPA)
   LNABLA  =     F    use nabla operator in PAW spheres
   LVEL    =     F    velocity operator in full k-point grid
   LINTERFAST=   F  fast interpolation
   KINTER  =     0    interpolate to denser k-point grid
   CSHIFT  =0.1000    complex shift for real part using Kramers Kronig
   OMEGAMAX=  -1.0    maximum frequency
   DEG_THRESHOLD= 0.2000000E-02 threshold for treating states as degnerate
   RTIME   =   -0.100 relaxation time in fs
  (WPLASMAI=    0.000 imaginary part of plasma frequency in eV, 0.658/RTIME)
   DFIELD  = 0.0000000 0.0000000 0.0000000 field for delta impulse in time
 
 Orbital magnetization related:
   ORBITALMAG=     F  switch on orbital magnetization
   LCHIMAG   =     F  perturbation theory with respect to B field
   DQ        =  0.001000  dq finite difference perturbation B field
   LLRAUG    =     F  two centre corrections for induced B field



--------------------------------------------------------------------------------------------------------


 quasi-Newton-method for relaxation of ions
   using selective dynamics as specified on POSCAR
 charge density and potential will be updated during run
 non-spin polarized calculation
 RMM-DIIS sequential band-by-band and
  variant of blocked Davidson during initial phase
 perform sub-space diagonalisation
    before iterative eigenvector-optimisation
 modified Broyden-mixing scheme, WC =      100.0
 initial mixing is a Kerker type mixing with AMIX =  0.4000 and BMIX =      1.0000
 Hartree-type preconditioning will be used
 using additional bands           40
 real space projection scheme for non local part
 use partial core corrections
 calculate Harris-corrections to forces 
   (improved forces if not selfconsistent)
 use gradient corrections 
 use of overlap-Matrix (Vanderbilt PP)
 Methfessel and Paxton  Order N= 1 SIGMA  =   0.20


--------------------------------------------------------------------------------------------------------


  energy-cutoff  :      450.00
  volume of cell :     1345.22
      direct lattice vectors                 reciprocal lattice vectors
     7.296955120 -4.212899000  0.000000000     0.137043463  0.000000000  0.000000000
     0.000000000  8.425798000  0.000000000     0.068521732  0.118683121  0.000000000
     0.000000000  0.000000000 21.879635000     0.000000000  0.000000000  0.045704602

  length of vectors
     8.425798004  8.425798000 21.879635000     0.137043463  0.137043463  0.045704602


 
 k-points in units of 2pi/SCALE and weight: mesh auto                               
   0.00000000  0.00000000  0.00000000       0.250
   0.06852173  0.00000000  0.00000000       0.250
   0.03426087  0.05934156  0.00000000       0.250
   0.10278260  0.05934156  0.00000000       0.250
 
 k-points in reciprocal lattice and weights: mesh auto                               
   0.00000000  0.00000000  0.00000000       0.250
   0.50000000  0.00000000  0.00000000       0.250
  -0.00000000  0.50000000  0.00000000       0.250
   0.50000000  0.50000000  0.00000000       0.250
 
 position of ions in fractional coordinates (direct lattice) 
   0.69720370  0.43870101  0.47407916
   0.90837019  0.38473958  0.46062741
   0.66906715  0.46555689  0.52396769
   0.98675500  0.32859100  0.07437600
   0.32008800  0.32859100  0.07437600
   0.65342200  0.32859100  0.07437600
   0.98675500  0.66192500  0.07437600
   0.32008800  0.66192500  0.07437600
   0.65342200  0.66192500  0.07437600
   0.32008800  0.99525800  0.07437600
   0.65342200  0.99525800  0.07437600
   0.98675500  0.99525800  0.07437600
   0.20897700  0.10636900  0.17918600
   0.54231100  0.10636900  0.17918600
   0.87564400  0.10636900  0.17918600
   0.20897700  0.43970300  0.17918600
   0.54231100  0.43970300  0.17918600
   0.87564400  0.43970300  0.17918600
   0.20897700  0.77303600  0.17918600
   0.54231100  0.77303600  0.17918600
   0.87564400  0.77303600  0.17918600
   0.09942808  0.54711383  0.28275990
   0.43037853  0.88714011  0.28376444
   0.76843278  0.21821462  0.28873386
   0.09439114  0.22200150  0.28084330
   0.43763598  0.21996402  0.28737820
   0.10037388  0.88435831  0.27995866
   0.76836573  0.88539877  0.28279679
   0.43490542  0.54942336  0.28706014
   0.76089255  0.55137340  0.28526349
   0.32253312  0.65669953  0.38306276
   0.65694536  0.98647388  0.38257157
   0.31734605  0.32503199  0.38374079
   0.99042260  0.99222465  0.38954149
   0.32163782  0.99657892  0.39187480
   0.64021414  0.32084087  0.38814002
   0.99737305  0.66888054  0.38914810
   0.99358645  0.31603129  0.39123220
   0.65857023  0.66501837  0.39332267
 
 position of ions in cartesian coordinates  (Angst):
   5.08746410  0.75915735 10.37267896
   6.62833651 -0.58513390 10.07835967
   4.88215299  1.10397601 11.46422183
   7.20030695 -1.38845776  1.62731973
   2.33566777  1.42014298  1.62731973
   4.76799101  0.01584050  1.62731973
   7.20030695  1.42014719  1.62731973
   2.33566777  4.22874793  1.62731973
   4.76799101  2.82444545  1.62731973
   2.33566777  7.03734445  1.62731973
   4.76799101  5.63304198  1.62731973
   7.20030695  4.22874371  1.62731973
   1.52489579  0.01584471  3.92052428
   3.95721903 -1.38845776  3.92052428
   6.38953497 -2.79275602  3.92052428
   1.52489579  2.82444966  3.92052428
   3.95721903  1.42014719  3.92052428
   6.38953497  0.01584893  3.92052428
   1.52489579  5.63304619  3.92052428
   3.95721903  4.22874371  3.92052428
   6.38953497  2.82444545  3.92052428
   0.72552224  4.19099013  6.18668342
   3.14045280  5.66172208  6.20866244
   5.60721953 -1.39869739  6.31739140
   0.68876792  1.47287947  6.14474896
   3.19341014  0.00965616  6.28773013
   0.73242368  7.02855949  6.12539323
   5.60673021  4.22314398  6.18749055
   3.17348536  2.79711765  6.28077106
   5.55219875  1.44019748  6.24146097
   2.35350972  4.17441815  8.38127345
   4.79370082  5.54418519  8.37052622
   2.31565992  1.40170703  8.39610833
   7.22706929  4.18773409  8.52302559
   2.34697674  7.04194505  8.57407766
   4.67161383  0.00618288  8.49236187
   7.27778638  1.43402043  8.51441838
   7.25015571 -1.52306358  8.56001780
   4.80555738  2.82882057  8.60575636
 


--------------------------------------------------------------------------------------------------------


 k-point  1 :   0.0000 0.0000 0.0000  plane waves:   29241
 k-point  2 :   0.5000 0.0000 0.0000  plane waves:   29108
 k-point  3 :  -0.0000 0.5000 0.0000  plane waves:   29108
 k-point  4 :   0.5000 0.5000 0.0000  plane waves:   29108

 maximum and minimum number of plane-waves per node :     14624    14548

 maximum number of plane-waves:     29241
 maximum index in each direction: 
   IXMAX=   14   IYMAX=   14   IZMAX=   37
   IXMIN=  -15   IYMIN=  -15   IZMIN=  -37


 real space projection operators:
  total allocation   :      13549.02 KBytes
  max/ min on nodes  :       6780.36       6768.66


 parallel 3D FFT for wavefunctions:
    minimum data exchange during FFTs selected (reduces bandwidth)
 parallel 3D FFT for charge:
    minimum data exchange during FFTs selected (reduces bandwidth)


 total amount of memory used by VASP MPI-rank0   131945. kBytes
=======================================================================

   base      :      30000. kBytes
   nonlr-proj:      10137. kBytes
   fftplans  :      13556. kBytes
   grid      :      23353. kBytes
   one-center:        311. kBytes
   wavefun   :      54588. kBytes
 
     INWAV:  cpu time    0.0000: real time    0.0000
 Broyden mixing: mesh for mixing (old mesh)
   NGX = 29   NGY = 29   NGZ = 75
  (NGX  = 96   NGY  = 96   NGZ  =240)
  gives a total of  63075 points

 initial charge density was supplied:
 charge density of overlapping atoms calculated
 number of electron     376.0000000 magnetization 
 keeping initial charge density in first step


--------------------------------------------------------------------------------------------------------


 Maximum index for non-local projection operator         1319
 Maximum index for augmentation-charges         1558 (set IRDMAX)


--------------------------------------------------------------------------------------------------------


 First call to EWALD:  gamma=   0.161
 Maximum number of real-space cells 4x 4x 2
 Maximum number of reciprocal cells 2x 2x 5

    FEWALD:  cpu time    0.0083: real time    0.0083


--------------------------------------- Iteration      1(   1)  ---------------------------------------


    POTLOK:  cpu time    0.1865: real time    0.7561
    SETDIJ:  cpu time    0.0260: real time    0.0262
     EDDAV:  cpu time   10.3375: real time   10.4073
       DOS:  cpu time    0.0011: real time    0.0011
    --------------------------------------------
      LOOP:  cpu time   10.5512: real time   11.1907

 eigenvalue-minimisations  :  1824
 total energy-change (2. order) : 0.2422161E+04  (-0.1595375E+05)
 number of electron     376.0000000 magnetization 
 augmentation part      376.0000000 magnetization 

 Free energy of the ion-electron system (eV)
  ---------------------------------------------------
  alpha Z        PSCENC =       975.10247152
  Ewald energy   TEWEN  =     91630.93794071
  -Hartree energ DENC   =   -120719.24184740
  -exchange      EXHF   =         0.00000000
  -V(xc)+E(xc)   XCENC  =       189.85469936
  PAW double counting   =     24789.08602224   -23775.73976456
  entropy T*S    EENTRO =         0.01341259
  eigenvalues    EBANDS =      2072.25419224
  atomic energy  EATOM  =     27259.89416086
  Solvation  Ediel_sol  =         0.00000000
  ---------------------------------------------------
  free energy    TOTEN  =      2422.16128756 eV

  energy without entropy =     2422.14787497  energy(sigma->0) =     2422.15681670


--------------------------------------------------------------------------------------------------------




--------------------------------------- Iteration      1(   2)  ---------------------------------------


     EDDAV:  cpu time   10.0050: real time   10.0703
       DOS:  cpu time    0.0010: real time    0.0010
    --------------------------------------------
      LOOP:  cpu time   10.0060: real time   10.0713

 eigenvalue-minimisations  :  2120
 total energy-change (2. order) :-0.2485618E+04  (-0.2308896E+04)
 number of electron     376.0000000 magnetization 
 augmentation part      376.0000000 magnetization 

 Free energy of the ion-electron system (eV)
  ---------------------------------------------------
  alpha Z        PSCENC =       975.10247152
  Ewald energy   TEWEN  =     91630.93794071
  -Hartree energ DENC   =   -120719.24184740
  -exchange      EXHF   =         0.00000000
  -V(xc)+E(xc)   XCENC  =       189.85469936
  PAW double counting   =     24789.08602224   -23775.73976456
  entropy T*S    EENTRO =        -0.02439948
  eigenvalues    EBANDS =      -413.32614122
  atomic energy  EATOM  =     27259.89416086
  Solvation  Ediel_sol  =         0.00000000
  ---------------------------------------------------
  free energy    TOTEN  =       -63.45685797 eV

  energy without entropy =      -63.43245849  energy(sigma->0) =      -63.44872481


--------------------------------------------------------------------------------------------------------




--------------------------------------- Iteration      1(   3)  ---------------------------------------


     EDDAV:  cpu time    9.0841: real time    9.1382
       DOS:  cpu time    0.0011: real time    0.0011
    --------------------------------------------
      LOOP:  cpu time    9.0852: real time    9.1393

 eigenvalue-minimisations  :  2184
 total energy-change (2. order) :-0.1767673E+03  (-0.1605914E+03)
 number of electron     376.0000000 magnetization 
 augmentation part      376.0000000 magnetization 

 Free energy of the ion-electron system (eV)
  ---------------------------------------------------
  alpha Z        PSCENC =       975.10247152
  Ewald energy   TEWEN  =     91630.93794071
  -Hartree energ DENC   =   -120719.24184740
  -exchange      EXHF   =         0.00000000
  -V(xc)+E(xc)   XCENC  =       189.85469936
  PAW double counting   =     24789.08602224   -23775.73976456
  entropy T*S    EENTRO =        -0.00833973
  eigenvalues    EBANDS =      -590.10951720
  atomic energy  EATOM  =     27259.89416086
  Solvation  Ediel_sol  =         0.00000000
  ---------------------------------------------------
  free energy    TOTEN  =      -240.22417420 eV

  energy without entropy =     -240.21583447  energy(sigma->0) =     -240.22139429


--------------------------------------------------------------------------------------------------------




--------------------------------------- Iteration      1(   4)  ---------------------------------------


     EDDAV:  cpu time   10.1325: real time   10.1961
       DOS:  cpu time    0.0009: real time    0.0009
    --------------------------------------------
      LOOP:  cpu time   10.1334: real time   10.1971

 eigenvalue-minimisations  :  2344
 total energy-change (2. order) :-0.7614435E+01  (-0.7303254E+01)
 number of electron     376.0000000 magnetization 
 augmentation part      376.0000000 magnetization 

 Free energy of the ion-electron system (eV)
  ---------------------------------------------------
  alpha Z        PSCENC =       975.10247152
  Ewald energy   TEWEN  =     91630.93794071
  -Hartree energ DENC   =   -120719.24184740
  -exchange      EXHF   =         0.00000000
  -V(xc)+E(xc)   XCENC  =       189.85469936
  PAW double counting   =     24789.08602224   -23775.73976456
  entropy T*S    EENTRO =        -0.00064961
  eigenvalues    EBANDS =      -597.73164220
  atomic energy  EATOM  =     27259.89416086
  Solvation  Ediel_sol  =         0.00000000
  ---------------------------------------------------
  free energy    TOTEN  =      -247.83860907 eV

  energy without entropy =     -247.83795947  energy(sigma->0) =     -247.83839254


--------------------------------------------------------------------------------------------------------




--------------------------------------- Iteration      1(   5)  ---------------------------------------


     EDDAV:  cpu time   11.5946: real time   11.7325
       DOS:  cpu time    0.0012: real time    0.0012
    CHARGE:  cpu time    0.5557: real time    0.5596
    MIXING:  cpu time    0.0085: real time    0.0086
    --------------------------------------------
      LOOP:  cpu time   12.1601: real time   12.3020

 eigenvalue-minimisations  :  2304
 total energy-change (2. order) :-0.2162842E+00  (-0.2147373E+00)
 number of electron     376.0000058 magnetization 
 augmentation part      105.8141763 magnetization 

 Broyden mixing:
  rms(total) = 0.27347E+01    rms(broyden)= 0.27343E+01
  rms(prec ) = 0.30446E+01
  weight for this iteration     100.00

 Free energy of the ion-electron system (eV)
  ---------------------------------------------------
  alpha Z        PSCENC =       975.10247152
  Ewald energy   TEWEN  =     91630.93794071
  -Hartree energ DENC   =   -120719.24184740
  -exchange      EXHF   =         0.00000000
  -V(xc)+E(xc)   XCENC  =       189.85469936
  PAW double counting   =     24789.08602224   -23775.73976456
  entropy T*S    EENTRO =        -0.00052323
  eigenvalues    EBANDS =      -597.94805276
  atomic energy  EATOM  =     27259.89416086
  Solvation  Ediel_sol  =         0.00000000
  ---------------------------------------------------
  free energy    TOTEN  =      -248.05489325 eV

  energy without entropy =     -248.05437003  energy(sigma->0) =     -248.05471884


--------------------------------------------------------------------------------------------------------




--------------------------------------- Iteration      1(   6)  ---------------------------------------


    POTLOK:  cpu time    0.1699: real time    0.1713
    SETDIJ:  cpu time    0.0134: real time    0.0135
    EDDIAG:  cpu time    2.0052: real time    2.0178
  RMM-DIIS:  cpu time    6.4026: real time    6.4462
    ORTHCH:  cpu time    0.2498: real time    0.2512
       DOS:  cpu time    0.0011: real time    0.0011
    CHARGE:  cpu time    0.7546: real time    0.7596
    MIXING:  cpu time    0.0137: real time    0.0138
    --------------------------------------------
      LOOP:  cpu time    9.6104: real time    9.6745

 eigenvalue-minimisations  :  1831
 total energy-change (2. order) : 0.2073903E+01  (-0.5515593E+01)
 number of electron     376.0000052 magnetization 
 augmentation part      112.8727638 magnetization 

 Broyden mixing:
  rms(total) = 0.29610E+01    rms(broyden)= 0.29601E+01
  rms(prec ) = 0.40613E+01
  weight for this iteration     100.00

 eigenvalues of (default mixing * dielectric matrix)
  average eigenvalue GAMMA=   0.4886
  0.4886

 Free energy of the ion-electron system (eV)
  ---------------------------------------------------
  alpha Z        PSCENC =       975.10247152
  Ewald energy   TEWEN  =     91630.93794071
  -Hartree energ DENC   =   -120258.21550452
  -exchange      EXHF   =         0.00000000
  -V(xc)+E(xc)   XCENC  =       182.74057366
  PAW double counting   =     26742.34649872   -25782.79338501
  entropy T*S    EENTRO =        -0.16610763
  eigenvalues    EBANDS =      -995.82763855
  atomic energy  EATOM  =     27259.89416086
  Solvation  Ediel_sol  =         0.00000000
  ---------------------------------------------------
  free energy    TOTEN  =      -245.98099023 eV

  energy without entropy =     -245.81488260  energy(sigma->0) =     -245.92562102


--------------------------------------------------------------------------------------------------------




--------------------------------------- Iteration      1(   7)  ---------------------------------------


    POTLOK:  cpu time    0.2175: real time    0.2190
    SETDIJ:  cpu time    0.0125: real time    0.0125
    EDDIAG:  cpu time    1.7112: real time    1.7210
  RMM-DIIS:  cpu time    4.9752: real time    5.0271
    ORTHCH:  cpu time    0.2513: real time    0.2528
       DOS:  cpu time    0.0012: real time    0.0012
    CHARGE:  cpu time    0.4049: real time    0.4072
    MIXING:  cpu time    0.0057: real time    0.0058
    --------------------------------------------
      LOOP:  cpu time    7.5795: real time    7.6464

 eigenvalue-minimisations  :  1831
 total energy-change (2. order) : 0.5200434E-01  (-0.3223651E+01)
 number of electron     376.0000070 magnetization 
 augmentation part      111.3983225 magnetization 

 Broyden mixing:
  rms(total) = 0.22072E+01    rms(broyden)= 0.22065E+01
  rms(prec ) = 0.39211E+01
  weight for this iteration     100.00

 eigenvalues of (default mixing * dielectric matrix)
  average eigenvalue GAMMA=   0.5466
  0.8569  0.2363

 Free energy of the ion-electron system (eV)
  ---------------------------------------------------
  alpha Z        PSCENC =       975.10247152
  Ewald energy   TEWEN  =     91630.93794071
  -Hartree energ DENC   =   -120447.01431732
  -exchange      EXHF   =         0.00000000
  -V(xc)+E(xc)   XCENC  =       180.53018400
  PAW double counting   =     27371.93519162   -26419.55319852
  entropy T*S    EENTRO =        -0.12284976
  eigenvalues    EBANDS =      -797.63856901
  atomic energy  EATOM  =     27259.89416086
  Solvation  Ediel_sol  =         0.00000000
  ---------------------------------------------------
  free energy    TOTEN  =      -245.92898589 eV

  energy without entropy =     -245.80613613  energy(sigma->0) =     -245.88803597


--------------------------------------------------------------------------------------------------------




--------------------------------------- Iteration      1(   8)  ---------------------------------------


    POTLOK:  cpu time    0.1380: real time    0.1390
    SETDIJ:  cpu time    0.0120: real time    0.0121
    EDDIAG:  cpu time    1.4546: real time    1.4637
  RMM-DIIS:  cpu time    4.5026: real time    4.5311
    ORTHCH:  cpu time    0.2323: real time    0.2336
       DOS:  cpu time    0.0011: real time    0.0011
    CHARGE:  cpu time    0.4468: real time    0.4494
    MIXING:  cpu time    0.0044: real time    0.0044
    --------------------------------------------
      LOOP:  cpu time    6.7918: real time    6.8344

 eigenvalue-minimisations  :  1826
 total energy-change (2. order) : 0.2487742E+01  (-0.1035759E+01)
 number of electron     376.0000066 magnetization 
 augmentation part      111.8995873 magnetization 

 Broyden mixing:
  rms(total) = 0.22924E+01    rms(broyden)= 0.22922E+01
  rms(prec ) = 0.37937E+01
  weight for this iteration     100.00

 eigenvalues of (default mixing * dielectric matrix)
  average eigenvalue GAMMA=   0.5170
  1.1360  0.2705  0.1445

 Free energy of the ion-electron system (eV)
  ---------------------------------------------------
  alpha Z        PSCENC =       975.10247152
  Ewald energy   TEWEN  =     91630.93794071
  -Hartree energ DENC   =   -120425.23565941
  -exchange      EXHF   =         0.00000000
  -V(xc)+E(xc)   XCENC  =       179.49730519
  PAW double counting   =     27933.08563944   -26989.44312688
  entropy T*S    EENTRO =        -0.03697631
  eigenvalues    EBANDS =      -807.24299914
  atomic energy  EATOM  =     27259.89416086
  Solvation  Ediel_sol  =         0.00000000
  ---------------------------------------------------
  free energy    TOTEN  =      -243.44124402 eV

  energy without entropy =     -243.40426771  energy(sigma->0) =     -243.42891858


--------------------------------------------------------------------------------------------------------




--------------------------------------- Iteration      1(   9)  ---------------------------------------


    POTLOK:  cpu time    0.1543: real time    0.1551
    SETDIJ:  cpu time    0.0107: real time    0.0108
    EDDIAG:  cpu time    1.4558: real time    1.4650
  RMM-DIIS:  cpu time    4.8341: real time    4.8648
    ORTHCH:  cpu time    0.2854: real time    0.2871
       DOS:  cpu time    0.0012: real time    0.0012
    CHARGE:  cpu time    0.4385: real time    0.4415
    MIXING:  cpu time    0.0050: real time    0.0050
    --------------------------------------------
      LOOP:  cpu time    7.1850: real time    7.2306

 eigenvalue-minimisations  :  1831
 total energy-change (2. order) : 0.1178710E+02  (-0.6327918E+00)
 number of electron     376.0000059 magnetization 
 augmentation part      112.6310398 magnetization 

 Broyden mixing:
  rms(total) = 0.91923E+00    rms(broyden)= 0.91898E+00
  rms(prec ) = 0.11901E+01
  weight for this iteration     100.00

 eigenvalues of (default mixing * dielectric matrix)
  average eigenvalue GAMMA=   0.5181
  1.2791  0.3279  0.3279  0.1375

 Free energy of the ion-electron system (eV)
  ---------------------------------------------------
  alpha Z        PSCENC =       975.10247152
  Ewald energy   TEWEN  =     91630.93794071
  -Hartree energ DENC   =   -120351.60815362
  -exchange      EXHF   =         0.00000000
  -V(xc)+E(xc)   XCENC  =       178.78836971
  PAW double counting   =     28663.93799094   -27731.60148619
  entropy T*S    EENTRO =        -0.09178449
  eigenvalues    EBANDS =      -857.01365784
  atomic energy  EATOM  =     27259.89416086
  Solvation  Ediel_sol  =         0.00000000
  ---------------------------------------------------
  free energy    TOTEN  =      -231.65414840 eV

  energy without entropy =     -231.56236392  energy(sigma->0) =     -231.62355357


--------------------------------------------------------------------------------------------------------




--------------------------------------- Iteration      1(  10)  ---------------------------------------


    POTLOK:  cpu time    0.1624: real time    0.1636
    SETDIJ:  cpu time    0.0115: real time    0.0116
    EDDIAG:  cpu time    1.4227: real time    1.4320
  RMM-DIIS:  cpu time    5.0556: real time    5.0905
    ORTHCH:  cpu time    0.2347: real time    0.2361
       DOS:  cpu time    0.0011: real time    0.0011
    CHARGE:  cpu time    0.5014: real time    0.5043
    MIXING:  cpu time    0.0081: real time    0.0081
    --------------------------------------------
      LOOP:  cpu time    7.3976: real time    7.4473

 eigenvalue-minimisations  :  1831
 total energy-change (2. order) : 0.1266787E+01  (-0.1966321E+00)
 number of electron     376.0000061 magnetization 
 augmentation part      112.7669350 magnetization 

 Broyden mixing:
  rms(total) = 0.54223E+00    rms(broyden)= 0.54216E+00
  rms(prec ) = 0.67533E+00
  weight for this iteration     100.00

 eigenvalues of (default mixing * dielectric matrix)
  average eigenvalue GAMMA=   0.5379
  1.3924  0.4531  0.4531  0.1393  0.2514

 Free energy of the ion-electron system (eV)
  ---------------------------------------------------
  alpha Z        PSCENC =       975.10247152
  Ewald energy   TEWEN  =     91630.93794071
  -Hartree energ DENC   =   -120340.93788392
  -exchange      EXHF   =         0.00000000
  -V(xc)+E(xc)   XCENC  =       178.62518240
  PAW double counting   =     29039.52789922   -28112.35111223
  entropy T*S    EENTRO =         0.01086156
  eigenvalues    EBANDS =      -861.19688171
  atomic energy  EATOM  =     27259.89416086
  Solvation  Ediel_sol  =         0.00000000
  ---------------------------------------------------
  free energy    TOTEN  =      -230.38736160 eV

  energy without entropy =     -230.39822316  energy(sigma->0) =     -230.39098212


--------------------------------------------------------------------------------------------------------




--------------------------------------- Iteration      1(  11)  ---------------------------------------


    POTLOK:  cpu time    0.1492: real time    0.1503
    SETDIJ:  cpu time    0.0137: real time    0.0137
    EDDIAG:  cpu time    1.5277: real time    1.5371
  RMM-DIIS:  cpu time    4.6383: real time    4.6817
    ORTHCH:  cpu time    0.2519: real time    0.2535
       DOS:  cpu time    0.0011: real time    0.0011
    CHARGE:  cpu time    0.4043: real time    0.4069
    MIXING:  cpu time    0.0050: real time    0.0050
    --------------------------------------------
      LOOP:  cpu time    6.9913: real time    7.0494

 eigenvalue-minimisations  :  1831
 total energy-change (2. order) : 0.2962476E+00  (-0.5298678E-01)
 number of electron     376.0000059 magnetization 
 augmentation part      112.9181094 magnetization 

 Broyden mixing:
  rms(total) = 0.34964E+00    rms(broyden)= 0.34922E+00
  rms(prec ) = 0.47571E+00
  weight for this iteration     100.00

 eigenvalues of (default mixing * dielectric matrix)
  average eigenvalue GAMMA=   0.5811
  1.5806  0.8573  0.3436  0.3436  0.1378  0.2235

 Free energy of the ion-electron system (eV)
  ---------------------------------------------------
  alpha Z        PSCENC =       975.10247152
  Ewald energy   TEWEN  =     91630.93794071
  -Hartree energ DENC   =   -120338.86009925
  -exchange      EXHF   =         0.00000000
  -V(xc)+E(xc)   XCENC  =       178.61757604
  PAW double counting   =     29337.22929928   -28413.93473402
  entropy T*S    EENTRO =        -0.03331901
  eigenvalues    EBANDS =      -859.04441012
  atomic energy  EATOM  =     27259.89416086
  Solvation  Ediel_sol  =         0.00000000
  ---------------------------------------------------
  free energy    TOTEN  =      -230.09111399 eV

  energy without entropy =     -230.05779498  energy(sigma->0) =     -230.08000765


--------------------------------------------------------------------------------------------------------




--------------------------------------- Iteration      1(  12)  ---------------------------------------


    POTLOK:  cpu time    0.1335: real time    0.1345
    SETDIJ:  cpu time    0.0108: real time    0.0108
    EDDIAG:  cpu time    1.2283: real time    1.2360
  RMM-DIIS:  cpu time    4.5163: real time    4.5454
    ORTHCH:  cpu time    0.2269: real time    0.2282
       DOS:  cpu time    0.0011: real time    0.0012
    CHARGE:  cpu time    0.3693: real time    0.3715
    MIXING:  cpu time    0.0056: real time    0.0056
    --------------------------------------------
      LOOP:  cpu time    6.4919: real time    6.5333

 eigenvalue-minimisations  :  1844
 total energy-change (2. order) : 0.1823318E+00  (-0.2121885E-01)
 number of electron     376.0000059 magnetization 
 augmentation part      112.9685930 magnetization 

 Broyden mixing:
  rms(total) = 0.17500E+00    rms(broyden)= 0.17498E+00
  rms(prec ) = 0.19508E+00
  weight for this iteration     100.00

 eigenvalues of (default mixing * dielectric matrix)
  average eigenvalue GAMMA=   0.6711
  1.9223  1.0428  0.6586  0.3970  0.1379  0.3028  0.2364

 Free energy of the ion-electron system (eV)
  ---------------------------------------------------
  alpha Z        PSCENC =       975.10247152
  Ewald energy   TEWEN  =     91630.93794071
  -Hartree energ DENC   =   -120329.87579354
  -exchange      EXHF   =         0.00000000
  -V(xc)+E(xc)   XCENC  =       178.55144550
  PAW double counting   =     29662.62925655   -28743.31746600
  entropy T*S    EENTRO =        -0.01958685
  eigenvalues    EBANDS =      -863.81121090
  atomic energy  EATOM  =     27259.89416086
  Solvation  Ediel_sol  =         0.00000000
  ---------------------------------------------------
  free energy    TOTEN  =      -229.90878215 eV

  energy without entropy =     -229.88919531  energy(sigma->0) =     -229.90225320


--------------------------------------------------------------------------------------------------------




--------------------------------------- Iteration      1(  13)  ---------------------------------------


    POTLOK:  cpu time    0.1240: real time    0.1249
    SETDIJ:  cpu time    0.0105: real time    0.0105
    EDDIAG:  cpu time    1.4707: real time    1.4798
  RMM-DIIS:  cpu time    5.0362: real time    5.0701
    ORTHCH:  cpu time    0.2685: real time    0.2702
       DOS:  cpu time    0.0012: real time    0.0012
    CHARGE:  cpu time    0.4245: real time    0.4274
    MIXING:  cpu time    0.0057: real time    0.0057
    --------------------------------------------
      LOOP:  cpu time    7.3414: real time    7.3899

 eigenvalue-minimisations  :  1833
 total energy-change (2. order) : 0.1159619E-02  (-0.9722170E-02)
 number of electron     376.0000059 magnetization 
 augmentation part      112.9887237 magnetization 

 Broyden mixing:
  rms(total) = 0.18068E+00    rms(broyden)= 0.18067E+00
  rms(prec ) = 0.21821E+00
  weight for this iteration     100.00

 eigenvalues of (default mixing * dielectric matrix)
  average eigenvalue GAMMA=   0.7029
  2.1981  1.1574  0.8156  0.4487  0.1379  0.3187  0.3187  0.2277

 Free energy of the ion-electron system (eV)
  ---------------------------------------------------
  alpha Z        PSCENC =       975.10247152
  Ewald energy   TEWEN  =     91630.93794071
  -Hartree energ DENC   =   -120331.35007436
  -exchange      EXHF   =         0.00000000
  -V(xc)+E(xc)   XCENC  =       178.45689772
  PAW double counting   =     29926.66659120   -29010.51554071
  entropy T*S    EENTRO =        -0.02144205
  eigenvalues    EBANDS =      -859.07862742
  atomic energy  EATOM  =     27259.89416086
  Solvation  Ediel_sol  =         0.00000000
  ---------------------------------------------------
  free energy    TOTEN  =      -229.90762253 eV

  energy without entropy =     -229.88618048  energy(sigma->0) =     -229.90047518


--------------------------------------------------------------------------------------------------------




--------------------------------------- Iteration      1(  14)  ---------------------------------------


    POTLOK:  cpu time    0.1416: real time    0.1427
    SETDIJ:  cpu time    0.0103: real time    0.0103
    EDDIAG:  cpu time    1.3013: real time    1.3091
  RMM-DIIS:  cpu time    4.1981: real time    4.2235
    ORTHCH:  cpu time    0.2599: real time    0.2613
       DOS:  cpu time    0.0012: real time    0.0012
    CHARGE:  cpu time    0.3525: real time    0.3544
    MIXING:  cpu time    0.0067: real time    0.0067
    --------------------------------------------
      LOOP:  cpu time    6.2715: real time    6.3092

 eigenvalue-minimisations  :  1830
 total energy-change (2. order) : 0.3011938E-01  (-0.7649064E-02)
 number of electron     376.0000059 magnetization 
 augmentation part      112.9651643 magnetization 

 Broyden mixing:
  rms(total) = 0.98218E-01    rms(broyden)= 0.98193E-01
  rms(prec ) = 0.12248E+00
  weight for this iteration     100.00

 eigenvalues of (default mixing * dielectric matrix)
  average eigenvalue GAMMA=   0.7272
  2.4374  1.2624  0.8365  0.6877  0.1379  0.3598  0.3336  0.2271  0.2620

 Free energy of the ion-electron system (eV)
  ---------------------------------------------------
  alpha Z        PSCENC =       975.10247152
  Ewald energy   TEWEN  =     91630.93794071
  -Hartree energ DENC   =   -120334.78023555
  -exchange      EXHF   =         0.00000000
  -V(xc)+E(xc)   XCENC  =       178.40051067
  PAW double counting   =     30073.14908457   -29158.67009688
  entropy T*S    EENTRO =        -0.02037838
  eigenvalues    EBANDS =      -853.89096067
  atomic energy  EATOM  =     27259.89416086
  Solvation  Ediel_sol  =         0.00000000
  ---------------------------------------------------
  free energy    TOTEN  =      -229.87750315 eV

  energy without entropy =     -229.85712477  energy(sigma->0) =     -229.87071036


--------------------------------------------------------------------------------------------------------




--------------------------------------- Iteration      1(  15)  ---------------------------------------


    POTLOK:  cpu time    0.1212: real time    0.1219
    SETDIJ:  cpu time    0.0098: real time    0.0098
    EDDIAG:  cpu time    1.2698: real time    1.2768
  RMM-DIIS:  cpu time    4.5635: real time    4.5913
    ORTHCH:  cpu time    0.2421: real time    0.2435
       DOS:  cpu time    0.0014: real time    0.0014
    CHARGE:  cpu time    0.4424: real time    0.4450
    MIXING:  cpu time    0.0064: real time    0.0065
    --------------------------------------------
      LOOP:  cpu time    6.6567: real time    6.6963

 eigenvalue-minimisations  :  1830
 total energy-change (2. order) : 0.6926338E-02  (-0.2960985E-02)
 number of electron     376.0000059 magnetization 
 augmentation part      112.9478031 magnetization 

 Broyden mixing:
  rms(total) = 0.70117E-01    rms(broyden)= 0.70080E-01
  rms(prec ) = 0.87213E-01
  weight for this iteration     100.00

 eigenvalues of (default mixing * dielectric matrix)
  average eigenvalue GAMMA=   0.7028
  2.4775  1.2793  0.8091  0.8091  0.4259  0.1379  0.3104  0.3104  0.2267  0.2418

 Free energy of the ion-electron system (eV)
  ---------------------------------------------------
  alpha Z        PSCENC =       975.10247152
  Ewald energy   TEWEN  =     91630.93794071
  -Hartree energ DENC   =   -120336.68439915
  -exchange      EXHF   =         0.00000000
  -V(xc)+E(xc)   XCENC  =       178.38711425
  PAW double counting   =     30151.75542836   -29238.11444300
  entropy T*S    EENTRO =        -0.01574152
  eigenvalues    EBANDS =      -851.13310884
  atomic energy  EATOM  =     27259.89416086
  Solvation  Ediel_sol  =         0.00000000
  ---------------------------------------------------
  free energy    TOTEN  =      -229.87057681 eV

  energy without entropy =     -229.85483529  energy(sigma->0) =     -229.86532964


--------------------------------------------------------------------------------------------------------




--------------------------------------- Iteration      1(  16)  ---------------------------------------


    POTLOK:  cpu time    0.1175: real time    0.1183
    SETDIJ:  cpu time    0.0102: real time    0.0103
    EDDIAG:  cpu time    1.1748: real time    1.1823
  RMM-DIIS:  cpu time    4.0481: real time    4.0714
    ORTHCH:  cpu time    0.2106: real time    0.2117
       DOS:  cpu time    0.0012: real time    0.0012
    CHARGE:  cpu time    0.3522: real time    0.3541
    MIXING:  cpu time    0.0068: real time    0.0069
    --------------------------------------------
      LOOP:  cpu time    5.9215: real time    5.9561

 eigenvalue-minimisations  :  1824
 total energy-change (2. order) : 0.7774969E-02  (-0.6971603E-03)
 number of electron     376.0000059 magnetization 
 augmentation part      112.9519202 magnetization 

 Broyden mixing:
  rms(total) = 0.20720E-01    rms(broyden)= 0.20714E-01
  rms(prec ) = 0.24809E-01
  weight for this iteration     100.00

 eigenvalues of (default mixing * dielectric matrix)
  average eigenvalue GAMMA=   0.6885
  2.4983  1.2823  0.7508  0.7508  0.6729  0.1379  0.3895  0.3132  0.3132  0.2259
  0.2383

 Free energy of the ion-electron system (eV)
  ---------------------------------------------------
  alpha Z        PSCENC =       975.10247152
  Ewald energy   TEWEN  =     91630.93794071
  -Hartree energ DENC   =   -120337.80638118
  -exchange      EXHF   =         0.00000000
  -V(xc)+E(xc)   XCENC  =       178.39684159
  PAW double counting   =     30163.05633378   -29249.50776980
  entropy T*S    EENTRO =        -0.01858871
  eigenvalues    EBANDS =      -849.91781061
  atomic energy  EATOM  =     27259.89416086
  Solvation  Ediel_sol  =         0.00000000
  ---------------------------------------------------
  free energy    TOTEN  =      -229.86280184 eV

  energy without entropy =     -229.84421314  energy(sigma->0) =     -229.85660561


--------------------------------------------------------------------------------------------------------




--------------------------------------- Iteration      1(  17)  ---------------------------------------


    POTLOK:  cpu time    0.1216: real time    0.1224
    SETDIJ:  cpu time    0.0102: real time    0.0103
    EDDIAG:  cpu time    1.1365: real time    1.1428
  RMM-DIIS:  cpu time    4.2534: real time    4.2792
    ORTHCH:  cpu time    0.2235: real time    0.2248
       DOS:  cpu time    0.0013: real time    0.0013
    CHARGE:  cpu time    0.5787: real time    0.5830
    MIXING:  cpu time    0.0068: real time    0.0069
    --------------------------------------------
      LOOP:  cpu time    6.3323: real time    6.3706

 eigenvalue-minimisations  :  1814
 total energy-change (2. order) : 0.3525750E-03  (-0.1417135E-03)
 number of electron     376.0000059 magnetization 
 augmentation part      112.9532994 magnetization 

 Broyden mixing:
  rms(total) = 0.14180E-01    rms(broyden)= 0.14175E-01
  rms(prec ) = 0.16981E-01
  weight for this iteration     100.00

 eigenvalues of (default mixing * dielectric matrix)
  average eigenvalue GAMMA=   0.7348
  2.5564  1.3272  1.0977  1.0977  0.7912  0.4348  0.1379  0.3187  0.3187  0.2775
  0.2245  0.2357

 Free energy of the ion-electron system (eV)
  ---------------------------------------------------
  alpha Z        PSCENC =       975.10247152
  Ewald energy   TEWEN  =     91630.93794071
  -Hartree energ DENC   =   -120338.26969578
  -exchange      EXHF   =         0.00000000
  -V(xc)+E(xc)   XCENC  =       178.40359954
  PAW double counting   =     30164.69361549   -29251.13199571
  entropy T*S    EENTRO =        -0.01853118
  eigenvalues    EBANDS =      -849.47401472
  atomic energy  EATOM  =     27259.89416086
  Solvation  Ediel_sol  =         0.00000000
  ---------------------------------------------------
  free energy    TOTEN  =      -229.86244927 eV

  energy without entropy =     -229.84391809  energy(sigma->0) =     -229.85627221


--------------------------------------------------------------------------------------------------------




--------------------------------------- Iteration      1(  18)  ---------------------------------------


    POTLOK:  cpu time    0.1543: real time    0.1554
    SETDIJ:  cpu time    0.0118: real time    0.0119
    EDDIAG:  cpu time    1.3891: real time    1.3985
  RMM-DIIS:  cpu time    4.9972: real time    5.0308
    ORTHCH:  cpu time    0.2327: real time    0.2339
       DOS:  cpu time    0.0011: real time    0.0011
    CHARGE:  cpu time    0.3719: real time    0.3739
    MIXING:  cpu time    0.0060: real time    0.0060
    --------------------------------------------
      LOOP:  cpu time    7.1641: real time    7.2116

 eigenvalue-minimisations  :  1786
 total energy-change (2. order) :-0.2254021E-03  (-0.8911212E-04)
 number of electron     376.0000059 magnetization 
 augmentation part      112.9518255 magnetization 

 Broyden mixing:
  rms(total) = 0.13562E-01    rms(broyden)= 0.13561E-01
  rms(prec ) = 0.16982E-01
  weight for this iteration     100.00

 eigenvalues of (default mixing * dielectric matrix)
  average eigenvalue GAMMA=   0.7478
  2.5579  1.8606  1.2747  0.8756  0.8756  0.4424  0.1379  0.3536  0.3190  0.3190
  0.2501  0.2312  0.2233

 Free energy of the ion-electron system (eV)
  ---------------------------------------------------
  alpha Z        PSCENC =       975.10247152
  Ewald energy   TEWEN  =     91630.93794071
  -Hartree energ DENC   =   -120339.50187426
  -exchange      EXHF   =         0.00000000
  -V(xc)+E(xc)   XCENC  =       178.41422631
  PAW double counting   =     30166.43639542   -29252.83262345
  entropy T*S    EENTRO =        -0.01842225
  eigenvalues    EBANDS =      -848.29494954
  atomic energy  EATOM  =     27259.89416086
  Solvation  Ediel_sol  =         0.00000000
  ---------------------------------------------------
  free energy    TOTEN  =      -229.86267467 eV

  energy without entropy =     -229.84425242  energy(sigma->0) =     -229.85653392


--------------------------------------------------------------------------------------------------------




--------------------------------------- Iteration      1(  19)  ---------------------------------------


    POTLOK:  cpu time    0.1275: real time    0.1284
    SETDIJ:  cpu time    0.0116: real time    0.0116
    EDDIAG:  cpu time    1.3624: real time    1.3697
  RMM-DIIS:  cpu time    3.5948: real time    3.6170
    ORTHCH:  cpu time    0.2321: real time    0.2334
       DOS:  cpu time    0.0013: real time    0.0013
    CHARGE:  cpu time    0.3712: real time    0.3732
    MIXING:  cpu time    0.0078: real time    0.0079
    --------------------------------------------
      LOOP:  cpu time    5.7086: real time    5.7424

 eigenvalue-minimisations  :  1313
 total energy-change (2. order) : 0.1454484E-03  (-0.3868252E-04)
 number of electron     376.0000059 magnetization 
 augmentation part      112.9515168 magnetization 

 Broyden mixing:
  rms(total) = 0.48768E-02    rms(broyden)= 0.48734E-02
  rms(prec ) = 0.69162E-02
  weight for this iteration     100.00

 eigenvalues of (default mixing * dielectric matrix)
  average eigenvalue GAMMA=   0.7457
  2.5462  2.0104  1.2782  0.8612  0.8612  0.6441  0.4351  0.1379  0.3291  0.3291
  0.3102  0.2453  0.2296  0.2219

 Free energy of the ion-electron system (eV)
  ---------------------------------------------------
  alpha Z        PSCENC =       975.10247152
  Ewald energy   TEWEN  =     91630.93794071
  -Hartree energ DENC   =   -120340.79372655
  -exchange      EXHF   =         0.00000000
  -V(xc)+E(xc)   XCENC  =       178.42289270
  PAW double counting   =     30163.52818800   -29249.84868137
  entropy T*S    EENTRO =        -0.01881153
  eigenvalues    EBANDS =      -847.08696356
  atomic energy  EATOM  =     27259.89416086
  Solvation  Ediel_sol  =         0.00000000
  ---------------------------------------------------
  free energy    TOTEN  =      -229.86252922 eV

  energy without entropy =     -229.84371769  energy(sigma->0) =     -229.85625871


--------------------------------------------------------------------------------------------------------




--------------------------------------- Iteration      1(  20)  ---------------------------------------


    POTLOK:  cpu time    0.1241: real time    0.1248
    SETDIJ:  cpu time    0.0099: real time    0.0099
    EDDIAG:  cpu time    1.0925: real time    1.0986
  RMM-DIIS:  cpu time    2.8063: real time    2.8241
    ORTHCH:  cpu time    0.2821: real time    0.2839
       DOS:  cpu time    0.0012: real time    0.0012
    --------------------------------------------
      LOOP:  cpu time    4.3161: real time    4.3425

 eigenvalue-minimisations  :  1003
 total energy-change (2. order) :-0.7196637E-04  (-0.9596297E-05)
 number of electron     376.0000059 magnetization 
 augmentation part      112.9515168 magnetization 

 Free energy of the ion-electron system (eV)
  ---------------------------------------------------
  alpha Z        PSCENC =       975.10247152
  Ewald energy   TEWEN  =     91630.93794071
  -Hartree energ DENC   =   -120341.38199555
  -exchange      EXHF   =         0.00000000
  -V(xc)+E(xc)   XCENC  =       178.42606589
  PAW double counting   =     30161.97729227   -29248.26652904
  entropy T*S    EENTRO =        -0.01863347
  eigenvalues    EBANDS =      -846.53337438
  atomic energy  EATOM  =     27259.89416086
  Solvation  Ediel_sol  =         0.00000000
  ---------------------------------------------------
  free energy    TOTEN  =      -229.86260119 eV

  energy without entropy =     -229.84396772  energy(sigma->0) =     -229.85639003


--------------------------------------------------------------------------------------------------------




 average (electrostatic) potential at core
  the test charge radii are     0.6991  0.7215  1.2059
  (the norm of the test charge is              1.0000)
       1 -56.2844       2 -74.8435       3 -76.4435       4 -72.2844       5 -72.3001
       6 -72.2682       7 -72.2678       8 -72.3151       9 -72.2920      10 -72.2622
      11 -72.2847      12 -72.2566      13 -72.8709      14 -72.9063      15 -72.9457
      16 -72.9692      17 -72.9251      18 -72.8937      19 -73.0021      20 -72.9327
      21 -72.9746      22 -72.9222      23 -72.9325      24 -72.9144      25 -73.0115
      26 -73.0012      27 -72.9440      28 -72.9477      29 -72.9605      30 -72.8458
      31 -72.4882      32 -72.5083      33 -72.6351      34 -72.3790      35 -72.2664
      36 -73.1964      37 -72.4313      38 -73.3827      39 -72.3059
 
 
 
 E-fermi :   1.1279     XC(G=0):  -6.6191     alpha+bet : -6.8913


 k-point     1 :       0.0000    0.0000    0.0000
  band No.  band energies     occupation 
      1     -22.2606      2.00000
      2     -17.0974      2.00000
      3      -8.5023      2.00000
      4      -8.0706      2.00000
      5      -6.8318      2.00000
      6      -6.0465      2.00000
      7      -5.8828      2.00000
      8      -5.7646      2.00000
      9      -5.6768      2.00000
     10      -5.6387      2.00000
     11      -5.6186      2.00000
     12      -5.5901      2.00000
     13      -5.5350      2.00000
     14      -5.5110      2.00000
     15      -5.4286      2.00000
     16      -5.3005      2.00000
     17      -5.1342      2.00000
     18      -5.0793      2.00000
     19      -5.0523      2.00000
     20      -5.0195      2.00000
     21      -4.9998      2.00000
     22      -4.9594      2.00000
     23      -4.7306      2.00000
     24      -4.6297      2.00000
     25      -4.5743      2.00000
     26      -4.5548      2.00000
     27      -4.5279      2.00000
     28      -4.4912      2.00000
     29      -4.3998      2.00000
     30      -4.3761      2.00000
     31      -4.3424      2.00000
     32      -4.3210      2.00000
     33      -4.2897      2.00000
     34      -4.2305      2.00000
     35      -4.1820      2.00000
     36      -4.1605      2.00000
     37      -4.1155      2.00000
     38      -4.1030      2.00000
     39      -4.0752      2.00000
     40      -4.0551      2.00000
     41      -4.0441      2.00000
     42      -4.0143      2.00000
     43      -3.9900      2.00000
     44      -3.9712      2.00000
     45      -3.9564      2.00000
     46      -3.9203      2.00000
     47      -3.6978      2.00000
     48      -3.5928      2.00000
     49      -3.5138      2.00000
     50      -3.4564      2.00000
     51      -3.4265      2.00000
     52      -3.4135      2.00000
     53      -3.3927      2.00000
     54      -3.3559      2.00000
     55      -3.3449      2.00000
     56      -3.3248      2.00000
     57      -3.2625      2.00000
     58      -3.2085      2.00000
     59      -3.1518      2.00000
     60      -3.1214      2.00000
     61      -3.0735      2.00000
     62      -3.0319      2.00000
     63      -2.9234      2.00000
     64      -2.6288      2.00000
     65      -2.6048      2.00000
     66      -2.5691      2.00000
     67      -2.5119      2.00000
     68      -2.5019      2.00000
     69      -2.4831      2.00000
     70      -2.4677      2.00000
     71      -2.4399      2.00000
     72      -2.4233      2.00000
     73      -2.4043      2.00000
     74      -2.3909      2.00000
     75      -2.3615      2.00000
     76      -2.3548      2.00000
     77      -2.3420      2.00000
     78      -2.3361      2.00000
     79      -2.3219      2.00000
     80      -2.2994      2.00000
     81      -2.2827      2.00000
     82      -2.2471      2.00000
     83      -2.2418      2.00000
     84      -2.2286      2.00000
     85      -2.1901      2.00000
     86      -2.1415      2.00000
     87      -2.1333      2.00000
     88      -2.1154      2.00000
     89      -2.0755      2.00000
     90      -2.0537      2.00000
     91      -2.0355      2.00000
     92      -2.0021      2.00000
     93      -1.9652      2.00000
     94      -1.9331      2.00000
     95      -1.9009      2.00000
     96      -1.8839      2.00000
     97      -1.8429      2.00000
     98      -1.8255      2.00000
     99      -1.8055      2.00000
    100      -1.7748      2.00000
    101      -1.7513      2.00000
    102      -1.5965      2.00000
    103      -1.5937      2.00000
    104      -1.5609      2.00000
    105      -1.5257      2.00000
    106      -1.5136      2.00000
    107      -1.5001      2.00000
    108      -1.4946      2.00000
    109      -1.4630      2.00000
    110      -1.4534      2.00000
    111      -1.4478      2.00000
    112      -1.4282      2.00000
    113      -1.4087      2.00000
    114      -1.3473      2.00000
    115      -1.2724      2.00000
    116      -1.1848      2.00000
    117      -1.1303      2.00000
    118      -1.0808      2.00000
    119      -1.0466      2.00000
    120      -1.0154      2.00000
    121      -0.9607      2.00000
    122      -0.9222      2.00000
    123      -0.8987      2.00000
    124      -0.8707      2.00000
    125      -0.8562      2.00000
    126      -0.8154      2.00000
    127      -0.7582      2.00000
    128      -0.7366      2.00000
    129      -0.6568      2.00000
    130      -0.6445      2.00000
    131      -0.6288      2.00000
    132      -0.6280      2.00000
    133      -0.6156      2.00000
    134      -0.5401      2.00000
    135      -0.4920      2.00000
    136      -0.4026      2.00000
    137      -0.3725      2.00000
    138      -0.3395      2.00000
    139      -0.3216      2.00000
    140      -0.3109      2.00000
    141      -0.2722      2.00000
    142      -0.2155      2.00000
    143      -0.1811      2.00000
    144      -0.1676      2.00000
    145      -0.1088      2.00000
    146      -0.0902      2.00000
    147      -0.0484      2.00000
    148      -0.0129      2.00000
    149       0.0271      2.00000
    150       0.0561      2.00000
    151       0.1013      2.00000
    152       0.1237      2.00000
    153       0.1401      2.00000
    154       0.1489      2.00000
    155       0.1824      2.00000
    156       0.2005      2.00000
    157       0.2480      2.00000
    158       0.2867      2.00000
    159       0.2932      2.00000
    160       0.3084      2.00000
    161       0.3355      2.00000
    162       0.3423      2.00000
    163       0.3486      2.00000
    164       0.3804      2.00000
    165       0.3858      2.00000
    166       0.4272      2.00001
    167       0.4338      2.00001
    168       0.4584      2.00002
    169       0.4988      2.00008
    170       0.5223      2.00016
    171       0.5302      2.00020
    172       0.5542      2.00038
    173       0.6229      2.00207
    174       0.6370      2.00283
    175       0.6595      2.00456
    176       0.6640      2.00499
    177       0.6943      2.00895
    178       0.7196      2.01395
    179       0.7291      2.01631
    180       0.7422      2.02001
    181       0.7529      2.02343
    182       0.7939      2.03973
    183       0.8271      2.05495
    184       0.8306      2.05650
    185       0.8435      2.06188
    186       0.8475      2.06341
    187       0.8565      2.06645
    188       0.8656      2.06886
    189       0.8693      2.06961
    190       0.8801      2.07086
    191       0.8884      2.07068
    192       0.9206      2.05699
    193       0.9211      2.05662
    194       0.9684      1.97891
    195       0.9933      1.90030
    196       1.1226      1.04502
    197       1.1432      0.87129
    198       1.1961      0.45868
    199       1.2174      0.31994
    200       1.2414      0.19000
    201       1.2645      0.09223
    202       1.2946      0.00364
    203       1.3057     -0.01889
    204       1.4390     -0.05024
    205       1.5344     -0.01439
    206       1.9551     -0.00000
    207       2.0145     -0.00000
    208       2.1038     -0.00000
    209       2.1322     -0.00000
    210       2.2452     -0.00000
    211       2.4882     -0.00000
    212       3.5594     -0.00000
    213       3.9906     -0.00000
    214       4.3205     -0.00000
    215       4.4106     -0.00000
    216       4.4445     -0.00000
    217       4.5678     -0.00000
    218       4.8853     -0.00000
    219       5.4246     -0.00000
    220       5.5090     -0.00000
    221       5.8579     -0.00000
    222       5.8942     -0.00000
    223       5.9309     -0.00000
    224       5.9735     -0.00000
    225       6.0463     -0.00000
    226       6.1116     -0.00000
    227       6.5616     -0.00000
    228       6.7783      0.00000

 k-point     2 :       0.5000    0.0000    0.0000
  band No.  band energies     occupation 
      1     -22.2605      2.00000
      2     -17.0970      2.00000
      3      -8.4712      2.00000
      4      -7.2564      2.00000
      5      -7.1998      2.00000
      6      -6.1688      2.00000
      7      -6.0388      2.00000
      8      -5.8939      2.00000
      9      -5.8067      2.00000
     10      -5.6835      2.00000
[...]
     89      -2.1442      2.00000
     90      -2.1296      2.00000
     91      -2.0898      2.00000
     92      -2.0746      2.00000
     93      -2.0386      2.00000
     94      -1.9837      2.00000
     95      -1.9518      2.00000
     96      -1.9376      2.00000
     97      -1.8829      2.00000
     98      -1.8517      2.00000
     99      -1.8354      2.00000
    100      -1.8334      2.00000
    101      -1.7776      2.00000
    102      -1.7388      2.00000
    103      -1.7052      2.00000
    104      -1.6914      2.00000
    105      -1.6801      2.00000
    106      -1.6606      2.00000
    107      -1.6499      2.00000
    108      -1.6115      2.00000
    109      -1.5772      2.00000
    110      -1.5395      2.00000
    111      -1.5139      2.00000
    112      -1.4550      2.00000
    113      -1.4293      2.00000
    114      -1.3802      2.00000
    115      -1.2976      2.00000
    116      -1.2579      2.00000
    117      -1.1971      2.00000
    118      -1.1814      2.00000
    119      -1.1467      2.00000
    120      -1.0898      2.00000
    121      -1.0723      2.00000
    122      -1.0378      2.00000
    123      -1.0187      2.00000
    124      -0.9840      2.00000
    125      -0.9718      2.00000
    126      -0.9463      2.00000
    127      -0.9220      2.00000
    128      -0.9138      2.00000
    129      -0.8937      2.00000
    130      -0.8810      2.00000
    131      -0.8331      2.00000
    132      -0.7884      2.00000
    133      -0.7496      2.00000
    134      -0.7174      2.00000
    135      -0.7027      2.00000
    136      -0.6758      2.00000
    137      -0.6606      2.00000
    138      -0.6228      2.00000
    139      -0.5837      2.00000
    140      -0.5355      2.00000
    141      -0.4774      2.00000
    142      -0.4547      2.00000
    143      -0.3607      2.00000
    144      -0.2879      2.00000
    145      -0.2465      2.00000
    146      -0.1910      2.00000
    147      -0.1497      2.00000
    148      -0.0973      2.00000
    149      -0.0835      2.00000
    150      -0.0410      2.00000
    151      -0.0194      2.00000
    152       0.0578      2.00000
    153       0.0805      2.00000
    154       0.0962      2.00000
    155       0.1132      2.00000
    156       0.1189      2.00000
    157       0.1404      2.00000
    158       0.1842      2.00000
    159       0.2077      2.00000
    160       0.2236      2.00000
    161       0.2648      2.00000
    162       0.3093      2.00000
    163       0.3430      2.00000
    164       0.3691      2.00000
    165       0.3947      2.00000
    166       0.4177      2.00001
    167       0.5340      2.00026
    168       0.5943      2.00123
    169       0.6099      2.00178
    170       0.6373      2.00327
    171       0.6570      2.00492
    172       0.6835      2.00825
    173       0.7160      2.01459
    174       0.8044      2.04744
    175       0.8104      2.05019
    176       0.8253      2.05694
    177       0.8649      2.06993
    178       0.8913      2.06908
    179       0.9302      2.04014
    180       0.9535      1.99927
    181       0.9603      1.98339
    182       1.0458      1.59342
    183       1.0800      1.34349
    184       1.1013      1.17084
    185       1.1070      1.12285
    186       1.1154      1.05208
    187       1.1450      0.80318
    188       1.1756      0.56061
    189       1.1914      0.44708
    190       1.2090      0.33245
    191       1.3136     -0.04099
    192       1.3525     -0.06926
    193       1.3887     -0.06766
    194       1.4105     -0.06005
    195       1.4399     -0.04689
    196       1.5059     -0.02042
    197       1.5859     -0.00495
    198       1.7445     -0.00010
    199       1.8443     -0.00000
    200       1.9935     -0.00000
    201       2.2565     -0.00000
    202       2.3682     -0.00000
    203       2.7955     -0.00000
    204       2.9429     -0.00000
    205       2.9796     -0.00000
    206       3.0070     -0.00000
    207       3.0307     -0.00000
    208       3.2128     -0.00000
    209       3.3664     -0.00000
    210       3.5292     -0.00000
    211       3.5888     -0.00000
    212       3.6164     -0.00000
    213       3.7304     -0.00000
    214       3.8310     -0.00000
    215       3.9593     -0.00000
    216       4.1843     -0.00000
    217       4.2509     -0.00000
    218       4.3938     -0.00000
    219       4.4404     -0.00000
    220       4.6146     -0.00000
    221       4.6455     -0.00000
    222       4.8282     -0.00000
    223       5.1370     -0.00000
    224       5.5670     -0.00000
    225       5.7814     -0.00000
    226       6.5411     -0.00000
    227       6.5914      0.00000
    228       6.6591      0.00000


--------------------------------------------------------------------------------------------------------


 soft charge-density along one line, spin component           1
         0         1         2         3         4         5         6         7         8         9
 total charge-density along one line
 
 pseudopotential strength for first ion, spin component:           1
 10.100   0.016   0.004   0.010   0.000  -0.003  -0.009  -0.000
  0.016  -0.002  -0.000  -0.000  -0.000  -0.000  -0.000   0.000
  0.004  -0.000  -4.248  -0.006   0.001  -0.010  -0.002  -0.000
  0.010  -0.000  -0.006  -4.265   0.002  -0.002  -0.016   0.000
  0.000  -0.000   0.001   0.002  -4.247  -0.000   0.000  -0.010
 -0.003  -0.000  -0.010  -0.002  -0.000  -0.770  -0.000   0.000
 -0.009  -0.000  -0.002  -0.016   0.000  -0.000  -0.770   0.000
 -0.000   0.000  -0.000   0.000  -0.010   0.000   0.000  -0.770
 total augmentation occupancy for first ion, spin component:           1
  1.644  -0.868  -0.010  -0.003  -0.040   0.027   0.083  -0.017
 -0.868   1.200  -0.184  -0.544   0.065  -0.074  -0.229   0.021
 -0.010  -0.184   0.848   0.187   0.014   0.112   0.050  -0.001
 -0.003  -0.544   0.187   1.332   0.001   0.050   0.252  -0.004
 -0.040   0.065   0.014   0.001   0.780  -0.001  -0.005   0.096
  0.027  -0.074   0.112   0.050  -0.001   0.018   0.019  -0.001
  0.083  -0.229   0.050   0.252  -0.005   0.019   0.072  -0.004
 -0.017   0.021  -0.001  -0.004   0.096  -0.001  -0.004   0.012


------------------------ aborting loop because EDIFF is reached ----------------------------------------


    CHARGE:  cpu time    0.4148: real time    0.4182
    FORLOC:  cpu time    0.0468: real time    0.0472
    FORNL :  cpu time    1.9242: real time    1.9368
    STRESS:  cpu time    4.9528: real time    4.9825
    FORCOR:  cpu time    0.1558: real time    0.1567
    FORHAR:  cpu time    0.0679: real time    0.0683
    MIXING:  cpu time    0.0044: real time    0.0044
    OFIELD:  cpu time    0.0000: real time    0.0000

  FORCE on cell =-STRESS in cart. coord.  units (eV):
  Direction    XX          YY          ZZ          XY          YZ          ZX
  --------------------------------------------------------------------------------------
  Alpha Z   975.10247   975.10247   975.10247
  Ewald  111250.52204111294.52277************  -178.20760   231.66974   -86.83810
  Hartree118021.66580118016.99355************  -118.93851    92.76111   -52.07456
  E(xc)   -1666.09016 -1665.66606 -1673.39927    -0.40202     0.63091    -0.20387
  Local  ************************240007.18388   287.10717  -300.72166   133.29957
  n-local   124.61369   123.82597    90.91793    -1.53012     1.88646    -0.65288
  augment  1895.52045  1892.34043  1933.35464     2.87235    -4.56113     1.35714
  Kinetic  5525.68885  5512.75359  5600.26665     9.06439   -21.05129     5.68497
  Fock        0.00000     0.00000     0.00000     0.00000     0.00000     0.00000
  -------------------------------------------------------------------------------------
  Total     -34.73353   -37.88447    -3.61197    -0.03434     0.61414     0.57227
  in kB     -41.36821   -45.12103    -4.30192    -0.04089     0.73145     0.68158
  external pressure =      -30.26 kB  Pullay stress =        0.00 kB


 VOLUME and BASIS-vectors are now :
 -----------------------------------------------------------------------------
  energy-cutoff  :      450.00
  volume of cell :     1345.22
      direct lattice vectors                 reciprocal lattice vectors
     7.296955120 -4.212899000  0.000000000     0.137043463  0.000000000  0.000000000
     0.000000000  8.425798000  0.000000000     0.068521732  0.118683121  0.000000000
     0.000000000  0.000000000 21.879635000     0.000000000  0.000000000  0.045704602

  length of vectors
     8.425798004  8.425798000 21.879635000     0.137043463  0.137043463  0.045704602


 FORCES acting on ions
    electron-ion (+dipol)            ewald-force                    non-local-force                 convergence-correction
 -----------------------------------------------------------------------------------------------
   0.180E+02 0.137E+02 -.887E+03   -.190E+02 -.180E+02 0.876E+03   0.345E+00 0.415E+01 0.114E+02   0.797E-02 -.312E-02 0.118E-01
   -.685E+02 0.410E+02 -.160E+04   0.668E+02 -.354E+02 0.163E+04   0.233E+01 -.531E+01 -.246E+02   0.131E-01 -.378E-02 -.137E-01
   0.467E+02 -.914E+02 -.156E+04   -.514E+02 0.110E+03 0.162E+04   0.495E+01 -.186E+02 -.586E+02   0.885E-02 -.901E-02 -.610E-02
   0.288E+00 0.511E-01 0.234E+04   -.301E+00 -.383E-01 -.234E+04   0.287E-01 -.407E-01 -.118E+01   -.641E-02 -.235E-01 -.143E-01
   -.315E+00 0.187E+00 0.234E+04   0.286E+00 -.111E+00 -.234E+04   -.224E-01 -.346E-01 -.112E+01   0.201E-02 -.760E-01 -.123E-01
   0.165E+00 0.164E+00 0.234E+04   -.148E+00 -.125E+00 -.234E+04   0.286E-01 -.140E-01 -.114E+01   -.748E-01 -.376E-01 -.386E-02
   0.223E+00 0.214E+00 0.234E+04   -.279E+00 -.213E+00 -.234E+04   0.582E-02 0.198E-02 -.120E+01   0.595E-01 0.596E-01 -.112E-01
   -.254E+00 0.112E+00 0.234E+04   0.210E+00 -.207E+00 -.234E+04   0.112E-01 0.246E-01 -.128E+01   0.225E-01 0.743E-01 -.754E-02
   0.291E+00 0.196E+00 0.234E+04   -.303E+00 -.230E+00 -.234E+04   0.210E-01 0.158E-01 -.121E+01   0.530E-02 0.173E-01 -.288E-01
   -.389E+00 -.439E+00 0.234E+04   0.441E+00 0.316E+00 -.234E+04   -.648E-01 0.963E-01 -.107E+01   0.138E-02 0.209E-02 0.229E-01
   0.756E-01 -.325E+00 0.234E+04   0.261E-01 0.356E+00 -.234E+04   -.157E-01 -.250E-01 -.127E+01   -.573E-01 0.203E-01 0.307E-02
   -.931E-01 -.224E+00 0.234E+04   0.703E-01 0.252E+00 -.234E+04   -.343E-02 0.207E-01 -.105E+01   0.474E-01 -.362E-01 -.808E-02
   -.359E+01 -.202E+01 0.858E+03   0.348E+01 0.208E+01 -.858E+03   0.103E+00 0.701E-02 -.421E+00   0.296E-01 -.719E-01 -.124E-01
   -.427E+01 -.150E+01 0.860E+03   0.422E+01 0.154E+01 -.859E+03   0.200E+00 0.467E-01 -.192E+00   -.680E-01 -.133E-01 -.100E-01
   0.396E+01 -.358E+01 0.860E+03   -.382E+01 0.353E+01 -.860E+03   -.105E+00 0.847E-01 -.325E+00   -.137E-01 -.404E-02 0.174E-01
   -.387E+01 0.882E+00 0.861E+03   0.385E+01 -.943E+00 -.861E+03   0.102E+00 0.648E-01 -.323E+00   -.658E-02 -.333E-02 0.196E-01
   0.853E+00 0.215E+01 0.859E+03   -.899E+00 -.204E+01 -.859E+03   0.906E-01 -.560E-01 -.213E+00   -.348E-01 -.662E-01 -.184E-01
   0.454E+01 0.170E+01 0.860E+03   -.453E+01 -.173E+01 -.860E+03   -.661E-01 0.556E-01 -.210E+00   -.634E-02 -.137E-01 0.356E-01
   -.103E+01 0.103E+01 0.864E+03   0.104E+01 -.970E+00 -.864E+03   -.627E-01 -.990E-01 -.408E+00   0.464E-01 0.752E-01 -.261E-02
   0.106E+01 -.145E+00 0.860E+03   -.104E+01 0.599E-01 -.860E+03   0.213E-01 0.722E-02 -.342E+00   -.214E-01 0.792E-01 -.278E-01
   0.113E+01 0.209E+01 0.864E+03   -.119E+01 -.194E+01 -.864E+03   0.506E-01 -.132E+00 -.377E+00   0.746E-01 0.177E-01 -.138E-01
   -.297E+01 0.131E+01 -.629E+03   0.287E+01 -.132E+01 0.628E+03   0.155E+00 -.389E-01 0.578E+00   -.173E-01 0.151E-01 0.408E-01
   -.162E+01 0.249E+01 -.630E+03   0.164E+01 -.243E+01 0.630E+03   0.766E-01 -.275E+00 0.371E+00   -.427E-01 0.760E-01 -.230E-01
   0.189E+01 0.186E+01 -.659E+03   -.218E+01 -.145E+01 0.659E+03   0.149E+00 -.400E+00 -.137E+00   0.163E-01 -.242E-02 0.227E-01
   -.528E+01 0.114E+02 -.620E+03   0.481E+01 -.107E+02 0.620E+03   0.498E+00 -.763E+00 -.152E+00   -.203E-01 -.117E-01 0.406E-01
   0.100E+02 0.134E+01 -.634E+03   -.927E+01 -.142E+01 0.634E+03   -.778E+00 0.181E+00 -.168E+00   -.348E-01 -.692E-01 -.918E-02
   -.715E+01 -.916E+01 -.630E+03   0.696E+01 0.896E+01 0.629E+03   0.112E+00 0.180E+00 0.550E+00   0.532E-01 0.138E-02 0.109E-01
   0.248E+01 -.424E+01 -.628E+03   -.250E+01 0.414E+01 0.628E+03   -.126E+00 0.115E+00 0.552E+00   0.562E-01 0.384E-01 0.241E-01
   0.149E+01 -.373E+01 -.637E+03   -.134E+01 0.368E+01 0.637E+03   -.222E+00 0.664E-01 0.114E+00   -.399E-01 -.486E-02 0.323E-01
   0.112E+01 0.221E+01 -.640E+03   -.119E+01 -.231E+01 0.640E+03   0.644E-01 0.319E-01 0.281E+00   0.444E-01 -.357E-01 0.454E-01
   -.247E+02 -.105E+02 -.214E+04   0.253E+02 0.108E+02 0.214E+04   -.415E+00 -.284E+00 0.161E+01   -.636E-01 0.777E-02 0.274E-01
   0.207E+02 0.141E+02 -.213E+04   -.212E+02 -.150E+02 0.213E+04   0.355E+00 0.112E+01 0.160E+01   0.418E-01 0.199E-01 0.239E-01
   0.228E+02 -.749E+01 -.212E+04   -.233E+02 0.754E+01 0.211E+04   0.694E+00 -.547E-01 0.130E+01   -.632E-01 -.255E-01 0.417E-01
   -.453E+01 -.131E+01 -.217E+04   0.440E+01 0.900E+00 0.217E+04   0.156E-01 0.418E+00 0.848E+00   0.422E-01 0.366E-02 0.427E-01
   0.579E+01 0.202E+02 -.219E+04   -.592E+01 -.206E+02 0.219E+04   0.248E+00 0.191E+00 0.781E+00   -.544E-01 0.239E-01 0.347E-01
   0.622E+02 0.768E+02 -.197E+04   -.653E+02 -.752E+02 0.198E+04   0.285E+01 -.174E+01 -.313E+01   0.359E-01 -.470E-02 0.615E-01
   -.560E+02 -.435E+02 -.208E+04   0.575E+02 0.462E+02 0.208E+04   -.160E+01 -.281E+01 0.209E+01   0.142E-01 0.703E-02 0.405E-01
   -.521E+02 0.848E+02 -.204E+04   0.526E+02 -.857E+02 0.204E+04   -.485E+00 0.837E+00 -.118E+01   -.480E-02 0.371E-02 0.187E-01
   0.218E+02 -.762E+02 -.214E+04   -.215E+02 0.776E+02 0.214E+04   -.406E+00 -.122E+01 0.913E+00   0.423E-01 -.227E-01 0.997E-01
 -----------------------------------------------------------------------------------------------
   -.913E+01 0.243E+02 0.779E+02   0.142E-12 0.000E+00 -.132E-10   0.914E+01 -.242E+02 -.784E+02   0.349E-01 0.411E-02 0.495E+00
 
 
 POSITION                                       TOTAL-FORCE (eV/Angst)
 -----------------------------------------------------------------------------------
      5.00681      0.73237     10.32831        -0.648485     -0.148692      0.228151
      6.67787     -0.55021     10.10300         0.643011      0.284717     -0.111741
      4.92099      1.08527     11.43175         0.248528     -0.011987     -0.017644
      7.20031     -1.38846      1.62732         0.008769     -0.054452      0.119522
      2.33567      1.42014      1.62732        -0.050359     -0.037236      0.141535
      4.76799      0.01584      1.62732        -0.030317     -0.015552      0.150723
      7.20031      1.42015      1.62732         0.007744      0.060513      0.115519
      2.33567      4.22875      1.62732        -0.011002      0.000433      0.143426
      4.76799      2.82445      1.62732         0.012844     -0.004424      0.153935
      2.33567      7.03734      1.62732        -0.012514     -0.027903      0.075133
      4.76799      5.63304      1.62732         0.027563      0.023838      0.124440
      7.20031      4.22874      1.62732         0.020085      0.008751      0.013368
      1.52490      0.01584      3.92052         0.020400     -0.000012     -0.098220
      3.95722     -1.38846      3.92052         0.081963      0.069366     -0.005279
      6.38953     -2.79276      3.92052         0.018990      0.025725     -0.153603
      1.52490      2.82445      3.92052         0.068444     -0.001973     -0.153852
      3.95722      1.42015      3.92052         0.008553     -0.013827      0.036841
      6.38953      0.01585      3.92052        -0.065084      0.006205      0.071607
      1.52490      5.63305      3.92052        -0.008624      0.032406     -0.204211
      3.95722      4.22874      3.92052         0.026509     -0.001788     -0.078011
      6.38953      2.82445      3.92052         0.060246      0.034973     -0.224365
      0.71140      4.21744      6.18675         0.030409     -0.034269      0.060001
      3.14712      5.64527      6.18463         0.055767     -0.142565     -0.071020
      5.58708     -1.37449      6.24443        -0.126694      0.013721     -0.117873
      0.69697      1.44240      6.18338         0.000920     -0.038386      0.226541
      3.17202     -0.00530      6.21512        -0.061884      0.031690     -0.156267
      0.72253      7.02601      6.18528        -0.028959     -0.029806      0.166528
      5.59778      4.21010      6.18276        -0.089233      0.050444      0.044935
      3.17861      2.81218      6.20864        -0.118065      0.016315     -0.168019
      5.58884      1.42151      6.22003         0.035460     -0.109033     -0.086074
      2.36093      4.20714      8.43204         0.105195      0.045495      0.167722
      4.76810      5.55895      8.42872        -0.072488      0.249261      0.214567
      2.31361      1.38969      8.43706         0.097591     -0.029892      0.102436
      7.22488      4.17429      8.50491        -0.072374      0.011015     -0.044095
      2.33690      7.00944      8.53878         0.066619     -0.150858     -0.268963
      4.67110      0.05184      8.59926        -0.167911     -0.063601     -0.079066
      7.27764      1.43557      8.49514        -0.057311     -0.128126     -0.033739
      7.27042     -1.53338      8.57308         0.040107     -0.043720      0.164627
      4.81123      2.83033      8.56946        -0.064411      0.123233     -0.449514
 -----------------------------------------------------------------------------------
    total drift:                                0.043619      0.115353      0.028663
  FORCES: max atom, RMS     0.712049    0.221247
  Number: max atom                 2
  FORCE total and by dimension    1.381686    0.648485


--------------------------------------------------------------------------------------------------------



  FREE ENERGIE OF THE ION-ELECTRON SYSTEM (eV)
  ---------------------------------------------------
  free  energy   TOTEN  =      -230.63956745 eV

  energy  without entropy=     -230.61124767  energy(sigma->0) =     -230.63012752
 
 d Force = 0.3945980E-01[ 0.312E-01, 0.477E-01]  d Energy = 0.3974161E-01-0.282E-03
 d Force =-0.1904512E+02[-0.191E+02,-0.190E+02]  d Ewald  =-0.1904534E+02 0.222E-03


--------------------------------------------------------------------------------------------------------


    POTLOK:  cpu time    0.1491: real time    0.2365


--------------------------------------------------------------------------------------------------------


 stress matrix after NEB project (eV)
    -34.73353     -0.03434      0.57227
     -0.03434    -37.88447      0.61414
      0.57227      0.61414     -3.61197
  FORCES: max atom, RMS     0.712049    0.221247
  FORCE total and by dimension    1.381686    0.648485
  Stress total and by dimension   51.537457   37.884471
 Quasi-Newton relaxation of ions (Broydens 2nd method)
  g(Force)  = 0.368E-01   g(Stress)= 0.000E+00

 retain information from N=  1 steps
 eigenvalues of (default step * inverse Hessian matrix)
  average eigenvalue of G=   0.3747
 eigenvalue spectrum of G is  0.3747
  RESET_HESSIAN           0


--------------------------------------------------------------------------------------------------------


    WAVPRE:  cpu time    0.0604: real time    0.3395
    FEWALD:  cpu time    0.0052: real time    0.0052

 real space projection operators:
  total allocation   :      13546.56 KBytes
  max/ min on nodes  :       6780.55       6766.02

    ORTHCH:  cpu time    0.9341: real time    0.9473
     LOOP+:  cpu time   53.1639: real time   54.1340


--------------------------------------- Iteration      6(   1)  ---------------------------------------


    POTLOK:  cpu time    0.1857: real time    0.3520
    SETDIJ:  cpu time    0.0271: real time    0.0274
