metal                                   
           1
     7.296955   -4.212899    0.000000
     0.000000    8.425798    0.000000
     0.000000    0.000000   21.879635
   C    O    Pt
   1   2  36
Direct configuration=     1
   0.69720370  0.43870101  0.47407916
   0.90837019  0.38473958  0.46062741
   0.66906715  0.46555689  0.52396769
   0.98675500  0.32859100  0.07437600
   0.32008800  0.32859100  0.07437600
   0.65342200  0.32859100  0.07437600
   0.98675500  0.66192500  0.07437600
   0.32008800  0.66192500  0.07437600
   0.65342200  0.66192500  0.07437600
   0.32008800  0.99525800  0.07437600
   0.65342200  0.99525800  0.07437600
   0.98675500  0.99525800  0.07437600
   0.20897700  0.10636900  0.17918600
   0.54231100  0.10636900  0.17918600
   0.87564400  0.10636900  0.17918600
   0.20897700  0.43970300  0.17918600
   0.54231100  0.43970300  0.17918600
   0.87564400  0.43970300  0.17918600
   0.20897700  0.77303600  0.17918600
   0.54231100  0.77303600  0.17918600
   0.87564400  0.77303600  0.17918600
   0.09942808  0.54711383  0.28275990
   0.43037853  0.88714011  0.28376444
   0.76843278  0.21821462  0.28873386
   0.09439114  0.22200150  0.28084330
   0.43763598  0.21996402  0.28737820
   0.10037388  0.88435831  0.27995866
   0.76836573  0.88539877  0.28279679
   0.43490542  0.54942336  0.28706014
   0.76089255  0.55137340  0.28526349
   0.32253312  0.65669953  0.38306276
   0.65694536  0.98647388  0.38257157
   0.31734605  0.32503199  0.38374079
   0.99042260  0.99222465  0.38954149
   0.32163782  0.99657892  0.39187480
   0.64021414  0.32084087  0.38814002
   0.99737305  0.66888054  0.38914810
   0.99358645  0.31603129  0.39123220
   0.65857023  0.66501837  0.39332267
Direct configuration=     2
   0.69463156  0.43632172  0.47280573
   0.90960196  0.38656095  0.46121050
   0.67027461  0.46563435  0.52382726
   0.98675500  0.32859100  0.07437600
   0.32008800  0.32859100  0.07437600
   0.65342200  0.32859100  0.07437600
   0.98675500  0.66192500  0.07437600
   0.32008800  0.66192500  0.07437600
   0.65342200  0.66192500  0.07437600
   0.32008800  0.99525800  0.07437600
   0.65342200  0.99525800  0.07437600
   0.98675500  0.99525800  0.07437600
   0.20897700  0.10636900  0.17918600
   0.54231100  0.10636900  0.17918600
   0.87564400  0.10636900  0.17918600
   0.20897700  0.43970300  0.17918600
   0.54231100  0.43970300  0.17918600
   0.87564400  0.43970300  0.17918600
   0.20897700  0.77303600  0.17918600
   0.54231100  0.77303600  0.17918600
   0.87564400  0.77303600  0.17918600
   0.09856381  0.54795208  0.28269761
   0.43050513  0.88681816  0.28337802
   0.76787214  0.21897749  0.28747740
   0.09477528  0.22082590  0.28132574
   0.43641956  0.21848073  0.28610425
   0.09991209  0.88406638  0.28085301
   0.76814007  0.88451027  0.28263919
   0.43556093  0.55039963  0.28587202
   0.76277008  0.55181286  0.28493802
   0.32262935  0.65817695  0.38385260
   0.65576439  0.98599392  0.38348159
   0.31671299  0.32429550  0.38442988
   0.99052593  0.99167109  0.38927107
   0.32074668  0.99490353  0.39148579
   0.64078753  0.32337605  0.39014466
   0.99750730  0.66923113  0.38886174
   0.99481592  0.31603333  0.39127070
   0.65902178  0.66505205  0.39302780
Direct configuration=     3
   0.69187122  0.43511260  0.47341675
   0.91088619  0.38809951  0.46149245
   0.67192872  0.46500173  0.52230052
   0.98675500  0.32859100  0.07437600
   0.32008800  0.32859100  0.07437600
   0.65342200  0.32859100  0.07437600
   0.98675500  0.66192500  0.07437600
   0.32008800  0.66192500  0.07437600
   0.65342200  0.66192500  0.07437600
   0.32008800  0.99525800  0.07437600
   0.65342200  0.99525800  0.07437600
   0.98675500  0.99525800  0.07437600
   0.20897700  0.10636900  0.17918600
   0.54231100  0.10636900  0.17918600
   0.87564400  0.10636900  0.17918600
   0.20897700  0.43970300  0.17918600
   0.54231100  0.43970300  0.17918600
   0.87564400  0.43970300  0.17918600
   0.20897700  0.77303600  0.17918600
   0.54231100  0.77303600  0.17918600
   0.87564400  0.77303600  0.17918600
   0.09811394  0.54845387  0.28269249
   0.43070494  0.88650296  0.28313967
   0.76725182  0.21931943  0.28674404
   0.09503283  0.22015078  0.28170505
   0.43582156  0.21778863  0.28538809
   0.09960381  0.88385155  0.28146452
   0.76789021  0.88403618  0.28259149
   0.43573091  0.55088806  0.28515178
   0.76390699  0.55188367  0.28472668
   0.32282728  0.65913936  0.38435507
   0.65499882  0.98595547  0.38405210
   0.31665442  0.32393963  0.38483629
   0.99049073  0.99127830  0.38908260
   0.32042640  0.99391954  0.39114241
   0.64079799  0.32469126  0.39129872
   0.99751342  0.66932401  0.38866385
   0.99538601  0.31608239  0.39138879
   0.65922081  0.66512487  0.39271118
Direct configuration=     4
   0.68735907  0.43064563  0.47159746
   0.91371214  0.39116980  0.46190979
   0.67394184  0.46571835  0.52244573
   0.98675500  0.32859100  0.07437600
   0.32008800  0.32859100  0.07437600
   0.65342200  0.32859100  0.07437600
   0.98675500  0.66192500  0.07437600
   0.32008800  0.66192500  0.07437600
   0.65342200  0.66192500  0.07437600
   0.32008800  0.99525800  0.07437600
   0.65342200  0.99525800  0.07437600
   0.98675500  0.99525800  0.07437600
   0.20897700  0.10636900  0.17918600
   0.54231100  0.10636900  0.17918600
   0.87564400  0.10636900  0.17918600
   0.20897700  0.43970300  0.17918600
   0.54231100  0.43970300  0.17918600
   0.87564400  0.43970300  0.17918600
   0.20897700  0.77303600  0.17918600
   0.54231100  0.77303600  0.17918600
   0.87564400  0.77303600  0.17918600
   0.09734392  0.54935428  0.28270457
   0.43112480  0.88585910  0.28269695
   0.76599385  0.21987713  0.28541455
   0.09549919  0.21892816  0.28244480
   0.43475316  0.21659652  0.28409358
   0.09903849  0.88343927  0.28260788
   0.76736687  0.88319093  0.28252685
   0.43593749  0.55172169  0.28382866
   0.76596081  0.55192859  0.28432971
   0.32327994  0.66094187  0.38529058
   0.65356217  0.98601997  0.38511820
   0.31669833  0.32334692  0.38557615
   0.99034601  0.99053196  0.38873354
   0.31994198  0.99210339  0.39045513
   0.64078745  0.32709138  0.39344660
   0.99749040  0.66939473  0.38828649
   0.99640261  0.31619327  0.39167146
   0.65952794  0.66535141  0.39201054
Direct configuration=     5
   0.68615058  0.42999487  0.47205117
   0.91515804  0.39227818  0.46175354
   0.67439012  0.46599778  0.52248360
   0.98675500  0.32859100  0.07437600
   0.32008800  0.32859100  0.07437600
   0.65342200  0.32859100  0.07437600
   0.98675500  0.66192500  0.07437600
   0.32008800  0.66192500  0.07437600
   0.65342200  0.66192500  0.07437600
   0.32008800  0.99525800  0.07437600
   0.65342200  0.99525800  0.07437600
   0.98675500  0.99525800  0.07437600
   0.20897700  0.10636900  0.17918600
   0.54231100  0.10636900  0.17918600
   0.87564400  0.10636900  0.17918600
   0.20897700  0.43970300  0.17918600
   0.54231100  0.43970300  0.17918600
   0.87564400  0.43970300  0.17918600
   0.20897700  0.77303600  0.17918600
   0.54231100  0.77303600  0.17918600
   0.87564400  0.77303600  0.17918600
   0.09749269  0.54928521  0.28276296
   0.43129198  0.88564473  0.28266618
   0.76567277  0.21970710  0.28539911
   0.09551460  0.21894577  0.28260891
   0.43470459  0.21672353  0.28405969
   0.09901752  0.88337809  0.28269565
   0.76713900  0.88323702  0.28258075
   0.43560721  0.55156148  0.28376335
   0.76591394  0.55166606  0.28428388
   0.32355000  0.66109185  0.38538324
   0.65343654  0.98647222  0.38523141
   0.31706549  0.32346559  0.38561241
   0.99012207  0.99047834  0.38871339
   0.32025753  0.99203087  0.39026145
   0.64014434  0.32622428  0.39302591
   0.99735315  0.66905427  0.38826706
   0.99636371  0.31619509  0.39182914
   0.65934827  0.66558697  0.39166384
