       N       E                     dE             d eps       ncg     rms          rms(c)
DAV:   1     0.242490916720E+04    0.24249E+04   -0.15954E+05  1824   0.129E+03
DAV:   2    -0.606136340534E+02   -0.24855E+04   -0.23112E+04  2104   0.286E+02
DAV:   3    -0.240123210807E+03   -0.17951E+03   -0.16288E+03  2176   0.691E+01
DAV:   4    -0.247956479347E+03   -0.78333E+01   -0.75369E+01  2320   0.138E+01
DAV:   5    -0.248183629554E+03   -0.22715E+00   -0.22499E+00  2448   0.241E+00    0.272E+01
RMM:   6    -0.244555290409E+03    0.36283E+01   -0.54998E+01  1828   0.149E+01    0.278E+01
RMM:   7    -0.245569439165E+03   -0.10141E+01   -0.31166E+01  1831   0.883E+00    0.218E+01
RMM:   8    -0.243264925423E+03    0.23045E+01   -0.10046E+01  1827   0.482E+00    0.225E+01
RMM:   9    -0.231681892239E+03    0.11583E+02   -0.58257E+00  1831   0.398E+00    0.839E+00
RMM:  10    -0.230621489974E+03    0.10604E+01   -0.18027E+00  1831   0.218E+00    0.535E+00
RMM:  11    -0.230315247103E+03    0.30624E+00   -0.47570E-01  1831   0.110E+00    0.317E+00
RMM:  12    -0.230158492626E+03    0.15675E+00   -0.19951E-01  1843   0.714E-01    0.174E+00
RMM:  13    -0.230169468403E+03   -0.10976E-01   -0.10791E-01  1832   0.543E-01    0.188E+00
RMM:  14    -0.230124372354E+03    0.45096E-01   -0.68103E-02  1832   0.445E-01    0.901E-01
RMM:  15    -0.230119506612E+03    0.48657E-02   -0.26589E-02  1831   0.279E-01    0.621E-01
RMM:  16    -0.230113905370E+03    0.56012E-02   -0.66164E-03  1827   0.141E-01    0.257E-01
RMM:  17    -0.230113089719E+03    0.81565E-03   -0.14883E-03  1820   0.663E-02    0.125E-01
RMM:  18    -0.230113254337E+03   -0.16462E-03   -0.69688E-04  1712   0.448E-02    0.108E-01
RMM:  19    -0.230113259077E+03   -0.47405E-05   -0.33052E-04  1207   0.331E-02
   1 F= -.23011326E+03 E0= -.23010316E+03  d E =-.230113E+03
       N       E                     dE             d eps       ncg     rms          rms(c)
DAV:   1    -0.230324050999E+03   -0.21080E+00   -0.38106E+01  1848   0.119E+01    0.110E+00
RMM:   2    -0.230744464608E+03   -0.42041E+00   -0.10173E+00  1832   0.192E+00    0.553E+00
RMM:   3    -0.230414939753E+03    0.32952E+00   -0.10555E-01  1834   0.551E-01    0.132E+00
RMM:   4    -0.230394932103E+03    0.20008E-01   -0.28852E-02  1838   0.286E-01    0.738E-01
RMM:   5    -0.230386846642E+03    0.80855E-02   -0.86969E-03  1834   0.156E-01    0.466E-01
RMM:   6    -0.230384991306E+03    0.18553E-02   -0.58746E-03  1831   0.134E-01    0.284E-01
RMM:   7    -0.230385299551E+03   -0.30824E-03   -0.56399E-03  1830   0.131E-01    0.290E-01
RMM:   8    -0.230384074923E+03    0.12246E-02   -0.17929E-03  1825   0.723E-02    0.104E-01
RMM:   9    -0.230384011647E+03    0.63276E-04   -0.31917E-04  1180   0.321E-02
   2 F= -.23038401E+03 E0= -.23037469E+03  d E =-.270753E+00
       N       E                     dE             d eps       ncg     rms          rms(c)
DAV:   1    -0.230421892517E+03   -0.37818E-01   -0.16880E+01  1832   0.798E+00    0.628E-01
RMM:   2    -0.230493854040E+03   -0.71962E-01   -0.54335E-01  1845   0.131E+00    0.141E+00
RMM:   3    -0.230470487520E+03    0.23367E-01   -0.23634E-02  1858   0.262E-01    0.711E-01
RMM:   4    -0.230465179070E+03    0.53085E-02   -0.62432E-03  1839   0.135E-01    0.481E-01
RMM:   5    -0.230463146652E+03    0.20324E-02   -0.39990E-03  1838   0.103E-01    0.424E-01
RMM:   6    -0.230462393105E+03    0.75355E-03   -0.83923E-03  1830   0.151E-01    0.346E-01
RMM:   7    -0.230460526188E+03    0.18669E-02   -0.35348E-03  1831   0.101E-01    0.144E-01
RMM:   8    -0.230460313918E+03    0.21227E-03   -0.79146E-04  1749   0.479E-02    0.912E-02
RMM:   9    -0.230460216444E+03    0.97474E-04   -0.18125E-04  1025   0.251E-02
   3 F= -.23046022E+03 E0= -.23045145E+03  d E =-.762048E-01
       N       E                     dE             d eps       ncg     rms          rms(c)
