 vasp.5.4.4 16052018 (build Apr 24 2014 20:13:14) complex standard
 Contain Constrained Minimization Technique (TS), Periodic NBO, VASPsol, libbeef, VASP2WANNIER90, Constrained Cell Relaxation
 executed on Center for Computational Chemistry by phu@node09 date 2025.09.27 23:32:18
 running on    8 total cores
 distrk:  each k-point on    8 cores,    1 groups
 distr:  one band on NCORES_PER_BAND=   2 cores,    4 groups


--------------------------------------------------------------------------------------------------------


 INCAR:
 POTCAR:   PAW_PBE C 08Apr2002                    
 POTCAR:   PAW_PBE O 08Apr2002                    
 POTCAR:    PAW_PBE Pt 04Feb2005                  
 POTCAR:   PAW_PBE C 08Apr2002                    
   VRHFIN =C: s2p2                                                              
   LEXCH  = PE                                                                  
   EATOM  =   147.1560 eV,   10.8157 Ry                                         
                                                                                
   TITEL  = PAW_PBE C 08Apr2002                                                 
   LULTRA =        F    use ultrasoft PP ?                                      
   IUNSCR =        0    unscreen: 0-lin 1-nonlin 2-no                           
   RPACOR =     .000    partial core radius                                     
   POMASS =   12.011; ZVAL   =    4.000    mass and valenz                      
   RCORE  =    1.500    outmost cutoff radius                                   
   RWIGS  =    1.630; RWIGS  =     .863    wigner-seitz radius (au A)           
   ENMAX  =  400.000; ENMIN  =  300.000 eV                                      
   ICORE  =        2    local potential                                         
   LCOR   =        T    correct aug charges                                     
   LPAW   =        T    paw PP                                                  
   EAUG   =  644.873                                                            
   DEXC   =     .000                                                            
   RMAX   =    2.266    core radius for proj-oper                               
   RAUG   =    1.300    factor for augmentation sphere                          
   RDEP   =    1.501    radius for radial grids                                 
   RDEPT  =    1.300    core radius for aug-charge                              
   QCUT   =   -5.516; QGAM   =   11.032    optimization parameters              
                                                                                
   Description                                                                  
     l     E      TYP  RCUT    TYP  RCUT                                        
     0   .000     23  1.200                                                     
     0   .000     23  1.200                                                     
     1   .000     23  1.500                                                     
     1  2.500     23  1.500                                                     
     2   .000      7  1.500                                                     
  local pseudopotential read in
  atomic valenz-charges read in
  non local Contribution for L=           0  read in
    real space projection operators read in
  non local Contribution for L=           0  read in
    real space projection operators read in
  non local Contribution for L=           1  read in
    real space projection operators read in
  non local Contribution for L=           1  read in
    real space projection operators read in
    PAW grid and wavefunctions read in
 
   number of l-projection  operators is LMAX  =           4
   number of lm-projection operators is LMMAX =           8
 
 POTCAR:   PAW_PBE O 08Apr2002                    
   VRHFIN =O: s2p4                                                              
   LEXCH  = PE                                                                  
   EATOM  =   432.3788 eV,   31.7789 Ry                                         
                                                                                
   TITEL  = PAW_PBE O 08Apr2002                                                 
   LULTRA =        F    use ultrasoft PP ?                                      
   IUNSCR =        0    unscreen: 0-lin 1-nonlin 2-no                           
   RPACOR =     .000    partial core radius                                     
   POMASS =   16.000; ZVAL   =    6.000    mass and valenz                      
   RCORE  =    1.520    outmost cutoff radius                                   
   RWIGS  =    1.550; RWIGS  =     .820    wigner-seitz radius (au A)           
   ENMAX  =  400.000; ENMIN  =  300.000 eV                                      
   ICORE  =        2    local potential                                         
   LCOR   =        T    correct aug charges                                     
   LPAW   =        T    paw PP                                                  
   EAUG   =  605.392                                                            
   DEXC   =     .000                                                            
   RMAX   =    2.264    core radius for proj-oper                               
   RAUG   =    1.300    factor for augmentation sphere                          
   RDEP   =    1.550    radius for radial grids                                 
   QCUT   =   -5.520; QGAM   =   11.041    optimization parameters              
                                                                                
   Description                                                                  
     l     E      TYP  RCUT    TYP  RCUT                                        
     0   .000     23  1.200                                                     
     0  -.700     23  1.200                                                     
     1   .000     23  1.520                                                     
     1   .600     23  1.520                                                     
     2   .000      7  1.500                                                     
  local pseudopotential read in
  atomic valenz-charges read in
  non local Contribution for L=           0  read in
    real space projection operators read in
  non local Contribution for L=           0  read in
    real space projection operators read in
  non local Contribution for L=           1  read in
    real space projection operators read in
  non local Contribution for L=           1  read in
    real space projection operators read in
    PAW grid and wavefunctions read in
 
   number of l-projection  operators is LMAX  =           4
   number of lm-projection operators is LMMAX =           8
 
 POTCAR:    PAW_PBE Pt 04Feb2005                  
   VRHFIN =Pt: s1d9                                                             
   LEXCH  = PE                                                                  
   EATOM  =   729.1182 eV,   53.5887 Ry                                         
                                                                                
   TITEL  = PAW_PBE Pt 04Feb2005                                                
   LULTRA =        F    use ultrasoft PP ?                                      
   IUNSCR =        1    unscreen: 0-lin 1-nonlin 2-no                           
   RPACOR =    2.330    partial core radius                                     
   POMASS =  195.080; ZVAL   =   10.000    mass and valenz                      
   RCORE  =    2.600    outmost cutoff radius                                   
   RWIGS  =    2.750; RWIGS  =    1.455    wigner-seitz radius (au A)           
   ENMAX  =  230.283; ENMIN  =  172.712 eV                                      
   ICORE  =        3    local potential                                         
   LCOR   =        T    correct aug charges                                     
   LPAW   =        T    paw PP                                                  
   EAUG   =  358.966                                                            
   DEXC   =     .000                                                            
   RMAX   =    3.038    core radius for proj-oper                               
   RAUG   =    1.300    factor for augmentation sphere                          
   RDEP   =    2.761    radius for radial grids                                 
   QCUT   =   -4.114; QGAM   =    8.228    optimization parameters              
                                                                                
   Description                                                                  
     l     E      TYP  RCUT    TYP  RCUT                                        
     2   .000     23  2.500                                                     
     2   .000     23  2.500                                                     
     0   .000     23  2.500                                                     
     0   .000     23  2.500                                                     
     1  -.200     23  2.600                                                     
     1  1.500     23  2.600                                                     
     3   .000     23  2.500                                                     
  local pseudopotential read in
  partial core-charges read in
  atomic valenz-charges read in
  non local Contribution for L=           2  read in
    real space projection operators read in
  non local Contribution for L=           2  read in
    real space projection operators read in
  non local Contribution for L=           0  read in
    real space projection operators read in
  non local Contribution for L=           0  read in
    real space projection operators read in
  non local Contribution for L=           1  read in
    real space projection operators read in
  non local Contribution for L=           1  read in
    real space projection operators read in
    PAW grid and wavefunctions read in
 
   number of l-projection  operators is LMAX  =           6
   number of lm-projection operators is LMMAX =          18
 
 Optimization of the real space projectors (new method)

 maximal supplied QI-value         = 25.13
 optimisation between [QCUT,QGAM] = [ 10.81, 21.61] = [ 32.71,130.83] Ry 
 Optimized for a Real-space Cutoff    1.23 Angstroem

   l    n(q)    QCUT    max X(q) W(low)/X(q) W(high)/X(q)  e(spline) 
   0      8    10.807     5.582    0.53E-04    0.84E-04    0.44E-07
   0      8    10.807    69.432    0.35E-03    0.71E-03    0.24E-06
   1      7    10.807     2.780    0.44E-04    0.88E-04    0.89E-07
   1      7    10.807     4.549    0.14E-03    0.28E-03    0.13E-06
 Optimization of the real space projectors (new method)

 maximal supplied QI-value         = 24.76
 optimisation between [QCUT,QGAM] = [ 10.64, 21.54] = [ 31.73,129.89] Ry 
 Optimized for a Real-space Cutoff    1.23 Angstroem

   l    n(q)    QCUT    max X(q) W(low)/X(q) W(high)/X(q)  e(spline) 
   0      8    10.645     4.192    0.69E-04    0.93E-04    0.58E-07
   0      8    10.645     8.473    0.40E-03    0.65E-03    0.17E-06
   1      7    10.645     2.474    0.80E-04    0.12E-03    0.30E-07
   1      7    10.645     3.912    0.24E-03    0.53E-03    0.16E-06
 Optimization of the real space projectors (new method)

 maximal supplied QI-value         = 14.36
 optimisation between [QCUT,QGAM] = [ 10.77, 21.69] = [ 32.49,131.70] Ry 
 Optimized for a Real-space Cutoff    1.46 Angstroem

   l    n(q)    QCUT    max X(q) W(low)/X(q) W(high)/X(q)  e(spline) 
   2      9    10.771     3.903    0.38E-04    0.12E-03    0.82E-07
   2      9    10.771    18.372    0.13E-03    0.32E-03    0.28E-06
   0     10    10.771    13.697    0.11E-04    0.86E-05    0.85E-08
   0     10    10.771    65.529    0.40E-04    0.12E-03    0.14E-06
   1      9    10.771     7.604    0.48E-04    0.31E-04    0.38E-07
   1      9    10.771    12.136    0.35E-03    0.16E-03    0.23E-06
 PAW_PBE C 08Apr2002                    :
 energy of atom  1       EATOM= -147.1560
 kinetic energy error for atom=    0.0116 (will be added to EATOM!!)
 PAW_PBE O 08Apr2002                    :
 energy of atom  2       EATOM= -432.3788
 kinetic energy error for atom=    0.0389 (will be added to EATOM!!)
  PAW_PBE Pt 04Feb2005                  :
 energy of atom  3       EATOM= -729.1182
 kinetic energy error for atom=    0.0051 (will be added to EATOM!!)
 
 
 POSCAR: C    O    Pt                            
  positions in direct lattice
  No initial velocities read in
 exchange correlation table for  LEXCH =        8
   RHO(1)=    0.500       N(1)  =     2000
   RHO(2)=  100.500       N(2)  =     4000

 VTST: version 3.2, (02/03/18)

 CHAIN: initializing optimizer
 
 OPT: Using VASP QUASI-newton optimizer
 CHAIN: Read ICHAIN            0
 
 POSCAR: C    O    Pt                            
  positions in direct lattice
  No initial velocities read in
 


--------------------------------------------------------------------------------------------------------


 ion  position               nearest neighbor table
   1  0.702  0.437  0.472-   3 1.16  36 1.95   2 1.98
   2  0.904  0.383  0.462-  38 1.84   1 1.98  36 2.56  37 2.64
   3  0.674  0.464  0.522-   1 1.16
   4  0.987  0.329  0.074-  15 2.81  16 2.81  12 2.81   5 2.81  11 2.81   6 2.81  18 2.81   8 2.81
                             7 2.81
   5  0.320  0.329  0.074-  13 2.81  10 2.81   4 2.81  12 2.81  16 2.81  17 2.81   8 2.81   9 2.81
                             6 2.81
   6  0.653  0.329  0.074-  14 2.81  18 2.81  11 2.81   4 2.81  17 2.81   7 2.81  10 2.81   9 2.81
                             5 2.81
   7  0.987  0.662  0.074-  18 2.81  21 2.81  19 2.81  12 2.81   8 2.81  10 2.81   9 2.81   6 2.81
                             4 2.81
   8  0.320  0.662  0.074-  16 2.81  19 2.81  10 2.81   7 2.81  20 2.81   4 2.81  11 2.81   5 2.81
                             9 2.81
   9  0.653  0.662  0.074-  17 2.81  20 2.81  21 2.81  11 2.81  12 2.81   7 2.81   6 2.81   5 2.81
                             8 2.81
  10  0.320  0.995  0.074-  13 2.81  19 2.81   5 2.81   8 2.81  12 2.81   7 2.81  14 2.81   6 2.81
                            11 2.81
  11  0.653  0.995  0.074-  14 2.81  20 2.81  15 2.81   9 2.81   6 2.81  12 2.81   4 2.81   8 2.81
                            10 2.81
  12  0.987  0.995  0.074-  15 2.81  21 2.81  13 2.81   7 2.81   4 2.81  10 2.81   5 2.81  11 2.81
                             9 2.81
  13  0.209  0.106  0.179-  27 2.74  26 2.79   5 2.81  10 2.81  12 2.81  19 2.81  15 2.81  21 2.81
                            16 2.81  14 2.81  17 2.81  25 2.83
  14  0.542  0.106  0.179-  24 2.71  23 2.76  26 2.77  11 2.81   6 2.81  20 2.81  15 2.81  10 2.81
                            18 2.81  19 2.81  17 2.81  13 2.81
  15  0.876  0.106  0.179-  24 2.74  12 2.81   4 2.81  11 2.81  21 2.81  13 2.81  14 2.81  20 2.81
                            16 2.81  18 2.81  25 2.85  28 2.86
  16  0.209  0.440  0.179-  22 2.80   8 2.81   4 2.81  19 2.81  18 2.81   5 2.81  15 2.81  20 2.81
                            13 2.81  17 2.81  25 2.86  29 2.87
  17  0.542  0.440  0.179-  30 2.75  26 2.79   9 2.81  20 2.81  21 2.81  18 2.81   6 2.81   5 2.81
                            14 2.81  16 2.81  13 2.81  29 2.88
  18  0.876  0.440  0.179-  30 2.72  24 2.75   7 2.81   6 2.81  21 2.81  19 2.81  16 2.81  17 2.81
                             4 2.81  14 2.81  15 2.81  22 2.81
  19  0.209  0.773  0.179-  23 2.76  27 2.78   8 2.81  10 2.81   7 2.81  16 2.81  13 2.81  18 2.81
                            21 2.81  14 2.81  20 2.81  22 2.85
  20  0.542  0.773  0.179-  23 2.80  11 2.81   9 2.81  17 2.81  14 2.81  21 2.81  15 2.81   8 2.81
                            16 2.81  19 2.81  28 2.84  29 2.86
  21  0.876  0.773  0.179-  27 2.75  30 2.76   7 2.81  12 2.81   9 2.81  18 2.81  15 2.81  19 2.81
                            13 2.81  17 2.81  20 2.81  28 2.84
  22  0.096  0.544  0.285-  31 2.76  25 2.78  29 2.79  30 2.79  16 2.80  18 2.81  24 2.82  37 2.83
                            23 2.84  19 2.85  27 2.89  38 2.94
  23  0.428  0.886  0.282-  35 2.75  19 2.76  26 2.76  14 2.76  24 2.78  31 2.79  20 2.80  32 2.80
                            27 2.81  29 2.83  22 2.84  28 2.85
  24  0.760  0.213  0.280-  14 2.71  15 2.74  18 2.75  26 2.77  23 2.78  30 2.78  22 2.82  28 2.82
                            25 2.85  32 2.86  36 2.96  38 3.04
  25  0.098  0.215  0.286-  34 2.72  27 2.75  22 2.78  33 2.81  26 2.81  28 2.82  29 2.83  13 2.83
                            38 2.84  15 2.85  24 2.85  16 2.86
  26  0.432  0.216  0.283-  23 2.76  14 2.77  24 2.77  13 2.79  17 2.79  30 2.80  27 2.80  35 2.81
                            25 2.81  36 2.82  29 2.84  33 2.87
  27  0.096  0.887  0.281-  34 2.73  13 2.74  21 2.75  25 2.75  28 2.78  19 2.78  26 2.80  23 2.81
                            30 2.82  35 2.84  37 2.89  22 2.89
  28  0.763  0.881  0.286-  34 2.72  39 2.74  32 2.74  27 2.78  29 2.78  24 2.82  25 2.82  30 2.83
                            21 2.84  20 2.84  23 2.85  15 2.86
  29  0.432  0.553  0.288-  31 2.68  39 2.72  28 2.78  22 2.79  33 2.80  23 2.83  25 2.83  26 2.84
                            30 2.85  20 2.86  16 2.87  17 2.88
  30  0.767  0.547  0.280-  18 2.72  17 2.75  21 2.76  24 2.78  22 2.79  26 2.80  27 2.82  28 2.83
                            29 2.85  39 2.89  36 2.93  37 2.95
  31  0.322  0.663  0.386-  29 2.68  32 2.75  37 2.75  22 2.76  35 2.76  39 2.78  23 2.79  33 2.83
                            38 2.87
  32  0.648  0.990  0.387-  28 2.74  35 2.75  31 2.75  39 2.78  23 2.80  38 2.83  36 2.84  24 2.86
                            34 2.89
  33  0.319  0.326  0.391-  36 2.71  38 2.74  29 2.80  25 2.81  34 2.81  39 2.81  31 2.83  35 2.84
                            26 2.87
  34  0.990  0.989  0.385-  25 2.72  28 2.72  27 2.73  37 2.74  38 2.78  35 2.79  39 2.81  33 2.81
                            32 2.89
  35  0.322  0.991  0.386-  37 2.72  36 2.73  32 2.75  23 2.75  31 2.76  34 2.79  26 2.81  27 2.84
                            33 2.84
  36  0.639  0.322  0.391-   1 1.95   2 2.56  33 2.71  35 2.73  39 2.81  26 2.82  32 2.84  30 2.93
                            24 2.96  37 2.97  38 2.98
  37  0.999  0.668  0.391-   2 2.64  35 2.72  34 2.74  31 2.75  22 2.83  27 2.89  39 2.90  38 2.92
                            30 2.95  36 2.97
  38  0.990  0.317  0.395-   2 1.84  33 2.74  34 2.78  32 2.83  25 2.84  31 2.87  37 2.92  22 2.94
                            36 2.98  24 3.04
  39  0.652  0.662  0.388-  29 2.72  28 2.74  32 2.78  31 2.78  34 2.81  36 2.81  33 2.81  30 2.89
                            37 2.90
 

IMPORTANT INFORMATION: All symmetrisations will be switched off!
NOSYMM: (Re-)initialisation of all symmetry stuff for point group C_1.

 
 
 KPOINTS: mesh auto                               

Automatic generation of k-mesh.
Space group operators:
 irot       det(A)        alpha          n_x          n_y          n_z        tau_x        tau_y        tau_z
    1     1.000000     0.000000     1.000000     0.000000     0.000000     0.000000     0.000000     0.000000
 
 Subroutine IBZKPT returns following result:
 ===========================================
 
 Found      4 irreducible k-points:
 
 Following reciprocal coordinates:
            Coordinates               Weight
  0.000000  0.000000  0.000000      1.000000
  0.500000  0.000000  0.000000      1.000000
 -0.000000  0.500000  0.000000      1.000000
  0.500000  0.500000  0.000000      1.000000
 
 Following cartesian coordinates:
            Coordinates               Weight
  0.000000  0.000000  0.000000      1.000000
  0.068522  0.000000  0.000000      1.000000
  0.034261  0.059342  0.000000      1.000000
  0.102783  0.059342  0.000000      1.000000
 


--------------------------------------------------------------------------------------------------------




 Dimension of arrays:
   k-points           NKPTS =      4   k-points in BZ     NKDIM =      4   number of bands    NBANDS=    228
   number of dos      NEDOS =    301   number of ions     NIONS =     39
   non local maximal  LDIM  =      6   non local SUM 2l+1 LMDIM =     18
   total plane-waves  NPLWV = 276480
   max r-space proj   IRMAX =   2756   max aug-charges    IRDMAX=  12646
   dimension x,y,z NGX =    48 NGY =   48 NGZ =  120
   dimension x,y,z NGXF=    96 NGYF=   96 NGZF=  240
   support grid    NGXF=    96 NGYF=   96 NGZF=  240
   ions per type =               1   2  36
   NGX,Y,Z   is equivalent  to a cutoff of   9.47,  9.47,  9.12 a.u.
   NGXF,Y,Z  is equivalent  to a cutoff of  18.94, 18.94, 18.24 a.u.

 SYSTEM =  metal                                   
 POSCAR =  C    O    Pt                            

 Startparameter for this run:
   NWRITE =      2    write-flag & timer
   PREC   = normal    normal or accurate (medium, high low for compatibility)
   ISTART =      0    job   : 0-new  1-cont  2-samecut
   ICHARG =      2    charge: 1-file 2-atom 10-const
   ISPIN  =      1    spin polarized calculation?
   LNONCOLLINEAR =      F non collinear calculations
   LSORBIT =      F    spin-orbit coupling
   INIWAV =      1    electr: 0-lowe 1-rand  2-diag
   LASPH  =      F    aspherical Exc in radial PAW
   METAGGA=      F    non-selfconsistent MetaGGA calc.

 Electronic Relaxation 1
   ENCUT  =  450.0 eV  33.07 Ry    5.75 a.u.  14.57 14.57 37.84*2*pi/ulx,y,z
   ENINI  =  450.0     initial cutoff
   ENAUG  =  644.9 eV  augmentation charge cutoff
   NELM   =     60;   NELMIN=  8; NELMDL= -5     # of ELM steps 
   EDIFF  = 0.1E-03   stopping-criterion for ELM
   LREAL  =      T    real-space projection
   NLSPLINE    = F    spline interpolate recip. space projectors
   LCOMPAT=      F    compatible to vasp.4.4
   GGA_COMPAT  = T    GGA compatible to vasp.4.4-vasp.4.6
   LMAXPAW     = -100 max onsite density
   LMAXMIX     =    2 max onsite mixed and CHGCAR
   VOSKOWN=      0    Vosko Wilk Nusair interpolation
   ROPT   =   -0.00050  -0.00050  -0.00050
 Ionic relaxation
   EDIFFG = -.5E-01   stopping-criterion for IOM
   NSW    =   5000    number of steps for IOM
   NBLOCK =      1;   KBLOCK =   5000    inner block; outer block 
   IBRION =      1    ionic relax: 0-MD 1-quasi-New 2-CG
   NFREE  =      0    steps in history (QN), initial steepest desc. (CG)
   ISIF   =      2    stress and relaxation
   IWAVPR =     11    prediction:  0-non 1-charg 2-wave 3-comb
   ISYM   =      0    0-nonsym 1-usesym 2-fastsym
   LCORR  =      T    Harris-Foulkes like correction to forces

   POTIM  = 0.2000    time-step for ionic-motion
   TEIN   =    0.0    initial temperature
   TEBEG  =    0.0;   TEEND  =   0.0 temperature during run
   SMASS  =  -3.00    Nose mass-parameter (am)
   estimated Nose-frequenzy (Omega)   =  0.10E-29 period in steps =****** mass=  -0.162E-26a.u.
   SCALEE = 1.0000    scale energy and forces
   NPACO  =    256;   APACO  = 16.0  distance and # of slots for P.C.
   PSTRESS=    0.0 pullay stress

  Mass of Ions in am
   POMASS =  12.01 16.00195.08
  Ionic Valenz
   ZVAL   =   4.00  6.00 10.00
  Atomic Wigner-Seitz radii
   RWIGS  =  -1.00 -1.00 -1.00
  virtual crystal weights 
   VCA    =   1.00  1.00  1.00
   NELECT =     376.0000    total number of electrons
   NUPDOWN=      -1.0000    fix difference up-down

 DOS related values:
   EMIN   =  10.00;   EMAX   =-10.00  energy-range for DOS
   EFERMI =   0.00
   ISMEAR =     1;   SIGMA  =   0.20  broadening in eV -4-tet -1-fermi 0-gaus

 Electronic relaxation 2 (details)
   IALGO  =     68    algorithm
   LDIAG  =      T    sub-space diagonalisation (order eigenvalues)
   LSUBROT=      F    optimize rotation matrix (better conditioning)
   TURBO    =      0    0=normal 1=particle mesh
   IRESTART =      0    0=no restart 2=restart with 2 vectors
   NREBOOT  =      0    no. of reboots
   NMIN     =      0    reboot dimension
   EREF     =   0.00    reference energy to select bands
   IMIX   =      4    mixing-type and parameters
     AMIX     =   0.40;   BMIX     =  1.00
     AMIX_MAG =   1.60;   BMIX_MAG =  1.00
     AMIN     =   0.10
     WC   =   100.;   INIMIX=   1;  MIXPRE=   1;  MAXMIX= -45

 Intra band minimization:
   WEIMIN = 0.0010     energy-eigenvalue tresh-hold
   EBREAK =  0.11E-06  absolut break condition
   DEPER  =   0.30     relativ break condition  

   TIME   =   0.40     timestep for ELM

  volume/ion in A,a.u.               =      34.49       232.77
  Fermi-wavevector in a.u.,A,eV,Ry     =   1.070385  2.022734 15.588510  1.145723
  Thomas-Fermi vector in A             =   2.206093
 
 Write flags
   LWAVE        =      F    write WAVECAR
   LDOWNSAMPLE  =      F    k-point downsampling of WAVECAR
   LCHARG       =      F    write CHGCAR
   LVTOT        =      F    write LOCPOT, total local potential
   LVHAR        =      F    write LOCPOT, Hartree potential only
   LELF         =      F    write electronic localiz. function (ELF)
   LORBIT       =      0    0 simple, 1 ext, 2 COOP (PROOUT), +10 PAW based schemes


 Dipole corrections
   LMONO  =      F    monopole corrections only (constant potential shift)
   LDIPOL =      F    correct potential (dipole corrections)
   IDIPOL =      0    1-x, 2-y, 3-z, 4-all directions 
   EPSILON=  1.0000000 bulk dielectric constant

 Exchange correlation treatment:
   GGA     =    --    GGA type
   LEXCH   =     8    internal setting for exchange type
   VOSKOWN=      0    Vosko Wilk Nusair interpolation
   LHFCALC =     F    Hartree Fock is set to
   LHFONE  =     F    Hartree Fock one center treatment
   AEXX    =    0.0000 exact exchange contribution

 Linear response parameters
   LEPSILON=     F    determine dielectric tensor
   LRPA    =     F    only Hartree local field effects (RPA)
   LNABLA  =     F    use nabla operator in PAW spheres
   LVEL    =     F    velocity operator in full k-point grid
   LINTERFAST=   F  fast interpolation
   KINTER  =     0    interpolate to denser k-point grid
   CSHIFT  =0.1000    complex shift for real part using Kramers Kronig
   OMEGAMAX=  -1.0    maximum frequency
   DEG_THRESHOLD= 0.2000000E-02 threshold for treating states as degnerate
   RTIME   =   -0.100 relaxation time in fs
  (WPLASMAI=    0.000 imaginary part of plasma frequency in eV, 0.658/RTIME)
   DFIELD  = 0.0000000 0.0000000 0.0000000 field for delta impulse in time
 
 Orbital magnetization related:
   ORBITALMAG=     F  switch on orbital magnetization
   LCHIMAG   =     F  perturbation theory with respect to B field
   DQ        =  0.001000  dq finite difference perturbation B field
   LLRAUG    =     F  two centre corrections for induced B field



--------------------------------------------------------------------------------------------------------


 quasi-Newton-method for relaxation of ions
   using selective dynamics as specified on POSCAR
 charge density and potential will be updated during run
 non-spin polarized calculation
 RMM-DIIS sequential band-by-band and
  variant of blocked Davidson during initial phase
 perform sub-space diagonalisation
    before iterative eigenvector-optimisation
 modified Broyden-mixing scheme, WC =      100.0
 initial mixing is a Kerker type mixing with AMIX =  0.4000 and BMIX =      1.0000
 Hartree-type preconditioning will be used
 using additional bands           40
 real space projection scheme for non local part
 use partial core corrections
 calculate Harris-corrections to forces 
   (improved forces if not selfconsistent)
 use gradient corrections 
 use of overlap-Matrix (Vanderbilt PP)
 Methfessel and Paxton  Order N= 1 SIGMA  =   0.20


--------------------------------------------------------------------------------------------------------


  energy-cutoff  :      450.00
  volume of cell :     1345.22
      direct lattice vectors                 reciprocal lattice vectors
     7.296955120 -4.212899000  0.000000000     0.137043463  0.000000000  0.000000000
     0.000000000  8.425798000  0.000000000     0.068521732  0.118683121  0.000000000
     0.000000000  0.000000000 21.879635000     0.000000000  0.000000000  0.045704602

  length of vectors
     8.425798004  8.425798000 21.879635000     0.137043463  0.137043463  0.045704602


 
 k-points in units of 2pi/SCALE and weight: mesh auto                               
   0.00000000  0.00000000  0.00000000       0.250
   0.06852173  0.00000000  0.00000000       0.250
   0.03426087  0.05934156  0.00000000       0.250
   0.10278260  0.05934156  0.00000000       0.250
 
 k-points in reciprocal lattice and weights: mesh auto                               
   0.00000000  0.00000000  0.00000000       0.250
   0.50000000  0.00000000  0.00000000       0.250
  -0.00000000  0.50000000  0.00000000       0.250
   0.50000000  0.50000000  0.00000000       0.250
 
 position of ions in fractional coordinates (direct lattice) 
   0.70243647  0.43669652  0.47163745
   0.90449920  0.38284283  0.46245207
   0.67429992  0.46355240  0.52152598
   0.98675500  0.32859100  0.07437600
   0.32008800  0.32859100  0.07437600
   0.65342200  0.32859100  0.07437600
   0.98675500  0.66192500  0.07437600
   0.32008800  0.66192500  0.07437600
   0.65342200  0.66192500  0.07437600
   0.32008800  0.99525800  0.07437600
   0.65342200  0.99525800  0.07437600
   0.98675500  0.99525800  0.07437600
   0.20897700  0.10636900  0.17918600
   0.54231100  0.10636900  0.17918600
   0.87564400  0.10636900  0.17918600
   0.20897700  0.43970300  0.17918600
   0.54231100  0.43970300  0.17918600
   0.87564400  0.43970300  0.17918600
   0.20897700  0.77303600  0.17918600
   0.54231100  0.77303600  0.17918600
   0.87564400  0.77303600  0.17918600
   0.09636267  0.54436598  0.28468232
   0.42800960  0.88629610  0.28202339
   0.75975084  0.21328348  0.27968972
   0.09821091  0.21486691  0.28602109
   0.43213511  0.21640173  0.28252563
   0.09559005  0.88733023  0.28098254
   0.76312469  0.88109539  0.28626211
   0.43151383  0.55304000  0.28752861
   0.76653242  0.54683370  0.28018155
   0.32223953  0.66318427  0.38570938
   0.64784230  0.98968610  0.38700026
   0.31939332  0.32629857  0.39093237
   0.99039192  0.98852201  0.38482422
   0.32231542  0.99069630  0.38638284
   0.63915104  0.32205578  0.39127281
   0.99863739  0.66821625  0.39080889
   0.98976819  0.31711180  0.39540138
   0.65185548  0.66156161  0.38776196
 
 position of ions in cartesian coordinates  (Angst):
   5.12564739  0.72022278 10.31925523
   6.60009007 -0.58480739 10.11828250
   4.92033628  1.06504145 11.41079810
   7.20030695 -1.38845776  1.62731973
   2.33566777  1.42014298  1.62731973
   4.76799101  0.01584050  1.62731973
   7.20030695  1.42014719  1.62731973
   2.33566777  4.22874793  1.62731973
   4.76799101  2.82444545  1.62731973
   2.33566777  7.03734445  1.62731973
   4.76799101  5.63304198  1.62731973
   7.20030695  4.22874371  1.62731973
   1.52489579  0.01584471  3.92052428
   3.95721903 -1.38845776  3.92052428
   6.38953497 -2.79275602  3.92052428
   1.52489579  2.82444966  3.92052428
   3.95721903  1.42014719  3.92052428
   6.38953497  0.01584893  3.92052428
   1.52489579  5.63304619  3.92052428
   3.95721903  4.22874371  3.92052428
   6.38953497  2.82444545  3.92052428
   0.70315409  4.18075155  6.22874530
   3.12316683  5.66459069  6.17056888
   5.54386779 -1.40367003  6.11950908
   0.71664057  1.39667256  6.25803710
   3.15327051  0.00281565  6.18155766
   0.69751630  7.07375403  6.14779544
   5.56848662  4.20896450  6.26331055
   3.14873703  2.84187917  6.29102106
   5.59335270  1.37818664  6.13027011
   2.35136735  4.23029410  8.43918037
   4.72727622  5.60960097  8.46742447
   2.33059872  1.40375408  8.55345765
   7.22684542  4.15666566  8.41981347
   2.35192116  6.98952459  8.45391547
   4.66385644  0.02089818  8.56090637
   7.28701221  1.42309665  8.55075592
   7.22229404 -1.49787345  8.65123790
   4.75656016  2.82798323  8.48409021
 


--------------------------------------------------------------------------------------------------------


 k-point  1 :   0.0000 0.0000 0.0000  plane waves:   29241
 k-point  2 :   0.5000 0.0000 0.0000  plane waves:   29108
 k-point  3 :  -0.0000 0.5000 0.0000  plane waves:   29108
 k-point  4 :   0.5000 0.5000 0.0000  plane waves:   29108

 maximum and minimum number of plane-waves per node :     14624    14548

 maximum number of plane-waves:     29241
 maximum index in each direction: 
   IXMAX=   14   IYMAX=   14   IZMAX=   37
   IXMIN=  -15   IYMIN=  -15   IZMIN=  -37


 real space projection operators:
  total allocation   :      13562.83 KBytes
  max/ min on nodes  :       6787.05       6775.78


 parallel 3D FFT for wavefunctions:
    minimum data exchange during FFTs selected (reduces bandwidth)
 parallel 3D FFT for charge:
    minimum data exchange during FFTs selected (reduces bandwidth)


 total amount of memory used by VASP MPI-rank0   131960. kBytes
=======================================================================

   base      :      30000. kBytes
   nonlr-proj:      10152. kBytes
   fftplans  :      13556. kBytes
   grid      :      23353. kBytes
   one-center:        311. kBytes
   wavefun   :      54588. kBytes
 
     INWAV:  cpu time    0.0001: real time    0.0000
 Broyden mixing: mesh for mixing (old mesh)
   NGX = 29   NGY = 29   NGZ = 75
  (NGX  = 96   NGY  = 96   NGZ  =240)
  gives a total of  63075 points

 initial charge density was supplied:
 charge density of overlapping atoms calculated
 number of electron     376.0000000 magnetization 
 keeping initial charge density in first step


--------------------------------------------------------------------------------------------------------


 Maximum index for non-local projection operator         1325
 Maximum index for augmentation-charges         1558 (set IRDMAX)


--------------------------------------------------------------------------------------------------------


 First call to EWALD:  gamma=   0.161
 Maximum number of real-space cells 4x 4x 2
 Maximum number of reciprocal cells 2x 2x 5

    FEWALD:  cpu time    0.0024: real time    0.0024


--------------------------------------- Iteration      1(   1)  ---------------------------------------


    POTLOK:  cpu time    0.1862: real time    0.5526
    SETDIJ:  cpu time    0.0193: real time    0.0194
     EDDAV:  cpu time    8.0626: real time    8.1152
       DOS:  cpu time    0.0009: real time    0.0009
    --------------------------------------------
      LOOP:  cpu time    8.2690: real time    8.6880

 eigenvalue-minimisations  :  1824
 total energy-change (2. order) : 0.2424909E+04  (-0.1595430E+05)
 number of electron     376.0000000 magnetization 
 augmentation part      376.0000000 magnetization 

 Free energy of the ion-electron system (eV)
  ---------------------------------------------------
  alpha Z        PSCENC =       975.10247152
  Ewald energy   TEWEN  =     91508.41650172
  -Hartree energ DENC   =   -120594.86095925
  -exchange      EXHF   =         0.00000000
  -V(xc)+E(xc)   XCENC  =       189.96825385
  PAW double counting   =     24789.08602224   -23775.73976456
  entropy T*S    EENTRO =         0.01342812
  eigenvalues    EBANDS =      2073.02905270
  atomic energy  EATOM  =     27259.89416086
  Solvation  Ediel_sol  =         0.00000000
  ---------------------------------------------------
  free energy    TOTEN  =      2424.90916720 eV

  energy without entropy =     2424.89573908  energy(sigma->0) =     2424.90469116


--------------------------------------------------------------------------------------------------------




--------------------------------------- Iteration      1(   2)  ---------------------------------------


     EDDAV:  cpu time    8.1339: real time    8.1874
       DOS:  cpu time    0.0010: real time    0.0010
    --------------------------------------------
      LOOP:  cpu time    8.1349: real time    8.1885

 eigenvalue-minimisations  :  2104
 total energy-change (2. order) :-0.2485523E+04  (-0.2311232E+04)
 number of electron     376.0000000 magnetization 
 augmentation part      376.0000000 magnetization 

 Free energy of the ion-electron system (eV)
  ---------------------------------------------------
  alpha Z        PSCENC =       975.10247152
  Ewald energy   TEWEN  =     91508.41650172
  -Hartree energ DENC   =   -120594.86095925
  -exchange      EXHF   =         0.00000000
  -V(xc)+E(xc)   XCENC  =       189.96825385
  PAW double counting   =     24789.08602224   -23775.73976456
  entropy T*S    EENTRO =        -0.02023117
  eigenvalues    EBANDS =      -412.46008925
  atomic energy  EATOM  =     27259.89416086
  Solvation  Ediel_sol  =         0.00000000
  ---------------------------------------------------
  free energy    TOTEN  =       -60.61363405 eV

  energy without entropy =      -60.59340288  energy(sigma->0) =      -60.60689033


--------------------------------------------------------------------------------------------------------




--------------------------------------- Iteration      1(   3)  ---------------------------------------


     EDDAV:  cpu time   10.8754: real time   10.9483
       DOS:  cpu time    0.0010: real time    0.0011
    --------------------------------------------
      LOOP:  cpu time   10.8765: real time   10.9494

 eigenvalue-minimisations  :  2176
 total energy-change (2. order) :-0.1795096E+03  (-0.1628758E+03)
 number of electron     376.0000000 magnetization 
 augmentation part      376.0000000 magnetization 

 Free energy of the ion-electron system (eV)
  ---------------------------------------------------
  alpha Z        PSCENC =       975.10247152
  Ewald energy   TEWEN  =     91508.41650172
  -Hartree energ DENC   =   -120594.86095925
  -exchange      EXHF   =         0.00000000
  -V(xc)+E(xc)   XCENC  =       189.96825385
  PAW double counting   =     24789.08602224   -23775.73976456
  entropy T*S    EENTRO =        -0.00747488
  eigenvalues    EBANDS =      -591.98242230
  atomic energy  EATOM  =     27259.89416086
  Solvation  Ediel_sol  =         0.00000000
  ---------------------------------------------------
  free energy    TOTEN  =      -240.12321081 eV

  energy without entropy =     -240.11573593  energy(sigma->0) =     -240.12071918


--------------------------------------------------------------------------------------------------------




--------------------------------------- Iteration      1(   4)  ---------------------------------------


     EDDAV:  cpu time   12.0538: real time   12.1304
       DOS:  cpu time    0.0010: real time    0.0010
    --------------------------------------------
      LOOP:  cpu time   12.0548: real time   12.1314

 eigenvalue-minimisations  :  2320
 total energy-change (2. order) :-0.7833269E+01  (-0.7536925E+01)
 number of electron     376.0000000 magnetization 
 augmentation part      376.0000000 magnetization 

 Free energy of the ion-electron system (eV)
  ---------------------------------------------------
  alpha Z        PSCENC =       975.10247152
  Ewald energy   TEWEN  =     91508.41650172
  -Hartree energ DENC   =   -120594.86095925
  -exchange      EXHF   =         0.00000000
  -V(xc)+E(xc)   XCENC  =       189.96825385
  PAW double counting   =     24789.08602224   -23775.73976456
  entropy T*S    EENTRO =        -0.00001148
  eigenvalues    EBANDS =      -599.82315424
  atomic energy  EATOM  =     27259.89416086
  Solvation  Ediel_sol  =         0.00000000
  ---------------------------------------------------
  free energy    TOTEN  =      -247.95647935 eV

  energy without entropy =     -247.95646786  energy(sigma->0) =     -247.95647552


--------------------------------------------------------------------------------------------------------




--------------------------------------- Iteration      1(   5)  ---------------------------------------


     EDDAV:  cpu time   10.7532: real time   10.8192
       DOS:  cpu time    0.0010: real time    0.0010
    CHARGE:  cpu time    0.4780: real time    0.4815
    MIXING:  cpu time    0.0071: real time    0.0202
    --------------------------------------------
      LOOP:  cpu time   11.2393: real time   11.3218

 eigenvalue-minimisations  :  2448
 total energy-change (2. order) :-0.2271502E+00  (-0.2249927E+00)
 number of electron     376.0000050 magnetization 
 augmentation part      105.8576912 magnetization 

 Broyden mixing:
  rms(total) = 0.27240E+01    rms(broyden)= 0.27236E+01
  rms(prec ) = 0.30266E+01
  weight for this iteration     100.00

 Free energy of the ion-electron system (eV)
  ---------------------------------------------------
  alpha Z        PSCENC =       975.10247152
  Ewald energy   TEWEN  =     91508.41650172
  -Hartree energ DENC   =   -120594.86095925
  -exchange      EXHF   =         0.00000000
  -V(xc)+E(xc)   XCENC  =       189.96825385
  PAW double counting   =     24789.08602224   -23775.73976456
  entropy T*S    EENTRO =         0.00021830
  eigenvalues    EBANDS =      -600.05053423
  atomic energy  EATOM  =     27259.89416086
  Solvation  Ediel_sol  =         0.00000000
  ---------------------------------------------------
  free energy    TOTEN  =      -248.18362955 eV

  energy without entropy =     -248.18384786  energy(sigma->0) =     -248.18370232


--------------------------------------------------------------------------------------------------------




--------------------------------------- Iteration      1(   6)  ---------------------------------------


    POTLOK:  cpu time    0.1359: real time    0.1801
    SETDIJ:  cpu time    0.0117: real time    0.0179
    EDDIAG:  cpu time    1.1904: real time    1.2437
  RMM-DIIS:  cpu time    4.3794: real time    4.4086
    ORTHCH:  cpu time    0.2147: real time    0.2159
       DOS:  cpu time    0.0011: real time    0.0011
    CHARGE:  cpu time    0.3476: real time    0.3497
    MIXING:  cpu time    0.0058: real time    0.0058
    --------------------------------------------
      LOOP:  cpu time    6.2867: real time    6.4229

 eigenvalue-minimisations  :  1828
 total energy-change (2. order) : 0.3628339E+01  (-0.5499794E+01)
 number of electron     376.0000056 magnetization 
 augmentation part      112.7947374 magnetization 

 Broyden mixing:
  rms(total) = 0.27836E+01    rms(broyden)= 0.27827E+01
  rms(prec ) = 0.38152E+01
  weight for this iteration     100.00

 eigenvalues of (default mixing * dielectric matrix)
  average eigenvalue GAMMA=   0.5117
  0.5117

 Free energy of the ion-electron system (eV)
  ---------------------------------------------------
  alpha Z        PSCENC =       975.10247152
  Ewald energy   TEWEN  =     91508.41650172
  -Hartree energ DENC   =   -120141.37757897
  -exchange      EXHF   =         0.00000000
  -V(xc)+E(xc)   XCENC  =       182.83058154
  PAW double counting   =     26752.74228782   -25793.11138525
  entropy T*S    EENTRO =        -0.13506276
  eigenvalues    EBANDS =      -988.91726689
  atomic energy  EATOM  =     27259.89416086
  Solvation  Ediel_sol  =         0.00000000
  ---------------------------------------------------
  free energy    TOTEN  =      -244.55529041 eV

  energy without entropy =     -244.42022765  energy(sigma->0) =     -244.51026949


--------------------------------------------------------------------------------------------------------




--------------------------------------- Iteration      1(   7)  ---------------------------------------


    POTLOK:  cpu time    0.1662: real time    0.1672
    SETDIJ:  cpu time    0.0217: real time    0.0218
    EDDIAG:  cpu time    1.0840: real time    1.0902
  RMM-DIIS:  cpu time    4.2504: real time    4.2777
    ORTHCH:  cpu time    0.2314: real time    0.2329
       DOS:  cpu time    0.0011: real time    0.0011
    CHARGE:  cpu time    0.3683: real time    0.3705
    MIXING:  cpu time    0.0041: real time    0.0041
    --------------------------------------------
      LOOP:  cpu time    6.1271: real time    6.1654

 eigenvalue-minimisations  :  1831
 total energy-change (2. order) :-0.1014149E+01  (-0.3116566E+01)
 number of electron     376.0000066 magnetization 
 augmentation part      111.3803607 magnetization 

 Broyden mixing:
  rms(total) = 0.21818E+01    rms(broyden)= 0.21812E+01
  rms(prec ) = 0.37794E+01
  weight for this iteration     100.00

 eigenvalues of (default mixing * dielectric matrix)
  average eigenvalue GAMMA=   0.5642
  0.8874  0.2409

 Free energy of the ion-electron system (eV)
  ---------------------------------------------------
  alpha Z        PSCENC =       975.10247152
  Ewald energy   TEWEN  =     91508.41650172
  -Hartree energ DENC   =   -120329.24982180
  -exchange      EXHF   =         0.00000000
  -V(xc)+E(xc)   XCENC  =       180.61598197
  PAW double counting   =     27403.43785008   -26451.36902521
  entropy T*S    EENTRO =        -0.11680353
  eigenvalues    EBANDS =      -792.30075478
  atomic energy  EATOM  =     27259.89416086
  Solvation  Ediel_sol  =         0.00000000
  ---------------------------------------------------
  free energy    TOTEN  =      -245.56943917 eV

  energy without entropy =     -245.45263563  energy(sigma->0) =     -245.53050465


--------------------------------------------------------------------------------------------------------




--------------------------------------- Iteration      1(   8)  ---------------------------------------


    POTLOK:  cpu time    0.1096: real time    0.1104
    SETDIJ:  cpu time    0.0103: real time    0.0104
    EDDIAG:  cpu time    1.1573: real time    1.1646
  RMM-DIIS:  cpu time    4.6463: real time    4.6779
    ORTHCH:  cpu time    0.2370: real time    0.2383
       DOS:  cpu time    0.0010: real time    0.0010
    CHARGE:  cpu time    0.3665: real time    0.3686
    MIXING:  cpu time    0.0036: real time    0.0037
    --------------------------------------------
      LOOP:  cpu time    6.5316: real time    6.5749

 eigenvalue-minimisations  :  1827
 total energy-change (2. order) : 0.2304514E+01  (-0.1004578E+01)
 number of electron     376.0000058 magnetization 
 augmentation part      111.9397232 magnetization 

 Broyden mixing:
  rms(total) = 0.22529E+01    rms(broyden)= 0.22527E+01
  rms(prec ) = 0.37879E+01
  weight for this iteration     100.00

 eigenvalues of (default mixing * dielectric matrix)
  average eigenvalue GAMMA=   0.5226
  1.1434  0.2736  0.1507

 Free energy of the ion-electron system (eV)
  ---------------------------------------------------
  alpha Z        PSCENC =       975.10247152
  Ewald energy   TEWEN  =     91508.41650172
  -Hartree energ DENC   =   -120295.26148776
  -exchange      EXHF   =         0.00000000
  -V(xc)+E(xc)   XCENC  =       179.56831035
  PAW double counting   =     27995.16350576   -27052.37418800
  entropy T*S    EENTRO =        -0.05886808
  eigenvalues    EBANDS =      -813.71533180
  atomic energy  EATOM  =     27259.89416086
  Solvation  Ediel_sol  =         0.00000000
  ---------------------------------------------------
  free energy    TOTEN  =      -243.26492542 eV

  energy without entropy =     -243.20605735  energy(sigma->0) =     -243.24530273


--------------------------------------------------------------------------------------------------------




--------------------------------------- Iteration      1(   9)  ---------------------------------------


    POTLOK:  cpu time    0.1444: real time    0.1455
    SETDIJ:  cpu time    0.0108: real time    0.0109
    EDDIAG:  cpu time    1.8406: real time    1.8528
  RMM-DIIS:  cpu time    4.7108: real time    4.7428
    ORTHCH:  cpu time    0.2206: real time    0.2219
       DOS:  cpu time    0.0012: real time    0.0012
    CHARGE:  cpu time    0.4387: real time    0.4417
    MIXING:  cpu time    0.0052: real time    0.0053
    --------------------------------------------
      LOOP:  cpu time    7.3724: real time    7.4221

 eigenvalue-minimisations  :  1831
 total energy-change (2. order) : 0.1158303E+02  (-0.5825652E+00)
 number of electron     376.0000056 magnetization 
 augmentation part      112.7025907 magnetization 

 Broyden mixing:
  rms(total) = 0.83874E+00    rms(broyden)= 0.83842E+00
  rms(prec ) = 0.11345E+01
  weight for this iteration     100.00

 eigenvalues of (default mixing * dielectric matrix)
  average eigenvalue GAMMA=   0.5278
  1.2900  0.3414  0.3414  0.1385

 Free energy of the ion-electron system (eV)
  ---------------------------------------------------
  alpha Z        PSCENC =       975.10247152
  Ewald energy   TEWEN  =     91508.41650172
  -Hartree energ DENC   =   -120224.95182827
  -exchange      EXHF   =         0.00000000
  -V(xc)+E(xc)   XCENC  =       178.92246593
  PAW double counting   =     28685.95791135   -27753.86658022
  entropy T*S    EENTRO =        -0.10188603
  eigenvalues    EBANDS =      -861.05510910
  atomic energy  EATOM  =     27259.89416086
  Solvation  Ediel_sol  =         0.00000000
  ---------------------------------------------------
  free energy    TOTEN  =      -231.68189224 eV

  energy without entropy =     -231.58000620  energy(sigma->0) =     -231.64793023


--------------------------------------------------------------------------------------------------------




--------------------------------------- Iteration      1(  10)  ---------------------------------------


    POTLOK:  cpu time    0.1855: real time    0.1867
    SETDIJ:  cpu time    0.0180: real time    0.0181
    EDDIAG:  cpu time    1.4012: real time    1.4105
  RMM-DIIS:  cpu time    4.9783: real time    5.0111
    ORTHCH:  cpu time    0.2229: real time    0.2242
       DOS:  cpu time    0.0012: real time    0.0012
    CHARGE:  cpu time    0.4032: real time    0.4056
    MIXING:  cpu time    0.0061: real time    0.0061
    --------------------------------------------
      LOOP:  cpu time    7.2162: real time    7.2635

 eigenvalue-minimisations  :  1831
 total energy-change (2. order) : 0.1060402E+01  (-0.1802672E+00)
 number of electron     376.0000058 magnetization 
 augmentation part      112.7949865 magnetization 

 Broyden mixing:
  rms(total) = 0.53457E+00    rms(broyden)= 0.53451E+00
  rms(prec ) = 0.66717E+00
  weight for this iteration     100.00

 eigenvalues of (default mixing * dielectric matrix)
  average eigenvalue GAMMA=   0.5408
  1.3967  0.4584  0.4584  0.1405  0.2498

 Free energy of the ion-electron system (eV)
  ---------------------------------------------------
  alpha Z        PSCENC =       975.10247152
  Ewald energy   TEWEN  =     91508.41650172
  -Hartree energ DENC   =   -120215.87158628
  -exchange      EXHF   =         0.00000000
  -V(xc)+E(xc)   XCENC  =       178.76837883
  PAW double counting   =     29072.15363087   -28145.27380219
  entropy T*S    EENTRO =         0.01231113
  eigenvalues    EBANDS =      -863.82355643
  atomic energy  EATOM  =     27259.89416086
  Solvation  Ediel_sol  =         0.00000000
  ---------------------------------------------------
  free energy    TOTEN  =      -230.62148997 eV

  energy without entropy =     -230.63380110  energy(sigma->0) =     -230.62559368


--------------------------------------------------------------------------------------------------------




--------------------------------------- Iteration      1(  11)  ---------------------------------------


    POTLOK:  cpu time    0.1186: real time    0.1194
    SETDIJ:  cpu time    0.0105: real time    0.0105
    EDDIAG:  cpu time    1.3100: real time    1.3180
  RMM-DIIS:  cpu time    4.2436: real time    4.2707
    ORTHCH:  cpu time    0.2104: real time    0.2116
       DOS:  cpu time    0.0011: real time    0.0011
    CHARGE:  cpu time    0.3520: real time    0.3541
    MIXING:  cpu time    0.0046: real time    0.0046
    --------------------------------------------
      LOOP:  cpu time    6.2507: real time    6.2900

 eigenvalue-minimisations  :  1831
 total energy-change (2. order) : 0.3062429E+00  (-0.4756968E-01)
 number of electron     376.0000058 magnetization 
 augmentation part      112.9276346 magnetization 

 Broyden mixing:
  rms(total) = 0.31691E+00    rms(broyden)= 0.31661E+00
  rms(prec ) = 0.42978E+00
  weight for this iteration     100.00

 eigenvalues of (default mixing * dielectric matrix)
  average eigenvalue GAMMA=   0.5985
  1.6105  0.8879  0.3628  0.3628  0.1391  0.2280

 Free energy of the ion-electron system (eV)
  ---------------------------------------------------
  alpha Z        PSCENC =       975.10247152
  Ewald energy   TEWEN  =     91508.41650172
  -Hartree energ DENC   =   -120214.98151457
  -exchange      EXHF   =         0.00000000
  -V(xc)+E(xc)   XCENC  =       178.76501651
  PAW double counting   =     29355.80051208   -28432.59662931
  entropy T*S    EENTRO =        -0.04876500
  eigenvalues    EBANDS =      -860.66700091
  atomic energy  EATOM  =     27259.89416086
  Solvation  Ediel_sol  =         0.00000000
  ---------------------------------------------------
  free energy    TOTEN  =      -230.31524710 eV

  energy without entropy =     -230.26648210  energy(sigma->0) =     -230.29899210


--------------------------------------------------------------------------------------------------------




--------------------------------------- Iteration      1(  12)  ---------------------------------------


    POTLOK:  cpu time    0.1165: real time    0.1172
    SETDIJ:  cpu time    0.0109: real time    0.0110
    EDDIAG:  cpu time    1.4979: real time    1.5077
  RMM-DIIS:  cpu time    4.6556: real time    4.6884
    ORTHCH:  cpu time    0.2125: real time    0.2138
       DOS:  cpu time    0.0010: real time    0.0010
    CHARGE:  cpu time    0.3649: real time    0.3673
    MIXING:  cpu time    0.0051: real time    0.0052
    --------------------------------------------
      LOOP:  cpu time    6.8646: real time    6.9116

 eigenvalue-minimisations  :  1843
 total energy-change (2. order) : 0.1567545E+00  (-0.1995131E-01)
 number of electron     376.0000058 magnetization 
 augmentation part      112.9794112 magnetization 

 Broyden mixing:
  rms(total) = 0.17438E+00    rms(broyden)= 0.17436E+00
  rms(prec ) = 0.19673E+00
  weight for this iteration     100.00

 eigenvalues of (default mixing * dielectric matrix)
  average eigenvalue GAMMA=   0.6837
  1.9974  1.0820  0.5371  0.5050  0.1392  0.2856  0.2394

 Free energy of the ion-electron system (eV)
  ---------------------------------------------------
  alpha Z        PSCENC =       975.10247152
  Ewald energy   TEWEN  =     91508.41650172
  -Hartree energ DENC   =   -120205.77470062
  -exchange      EXHF   =         0.00000000
  -V(xc)+E(xc)   XCENC  =       178.70754450
  PAW double counting   =     29701.89031166   -28782.88758873
  entropy T*S    EENTRO =        -0.03316386
  eigenvalues    EBANDS =      -865.47402968
  atomic energy  EATOM  =     27259.89416086
  Solvation  Ediel_sol  =         0.00000000
  ---------------------------------------------------
  free energy    TOTEN  =      -230.15849263 eV

  energy without entropy =     -230.12532877  energy(sigma->0) =     -230.14743801


--------------------------------------------------------------------------------------------------------




--------------------------------------- Iteration      1(  13)  ---------------------------------------


    POTLOK:  cpu time    0.1110: real time    0.1117
    SETDIJ:  cpu time    0.0090: real time    0.0091
    EDDIAG:  cpu time    1.1276: real time    1.1350
  RMM-DIIS:  cpu time    3.9031: real time    3.9287
    ORTHCH:  cpu time    0.2118: real time    0.2129
       DOS:  cpu time    0.0012: real time    0.0012
    CHARGE:  cpu time    0.4157: real time    0.4184
    MIXING:  cpu time    0.0077: real time    0.0078
    --------------------------------------------
      LOOP:  cpu time    5.7872: real time    5.8249

 eigenvalue-minimisations  :  1832
 total energy-change (2. order) :-0.1097578E-01  (-0.1079140E-01)
 number of electron     376.0000058 magnetization 
 augmentation part      112.9896189 magnetization 

 Broyden mixing:
  rms(total) = 0.18757E+00    rms(broyden)= 0.18756E+00
  rms(prec ) = 0.24428E+00
  weight for this iteration     100.00

 eigenvalues of (default mixing * dielectric matrix)
  average eigenvalue GAMMA=   0.6964
  2.2061  1.1440  0.8148  0.4395  0.1392  0.2996  0.2996  0.2285

 Free energy of the ion-electron system (eV)
  ---------------------------------------------------
  alpha Z        PSCENC =       975.10247152
  Ewald energy   TEWEN  =     91508.41650172
  -Hartree energ DENC   =   -120205.58737779
  -exchange      EXHF   =         0.00000000
  -V(xc)+E(xc)   XCENC  =       178.61537017
  PAW double counting   =     29961.50107656   -29045.58897912
  entropy T*S    EENTRO =        -0.03511611
  eigenvalues    EBANDS =      -862.48757622
  atomic energy  EATOM  =     27259.89416086
  Solvation  Ediel_sol  =         0.00000000
  ---------------------------------------------------
  free energy    TOTEN  =      -230.16946840 eV

  energy without entropy =     -230.13435229  energy(sigma->0) =     -230.15776303


--------------------------------------------------------------------------------------------------------




--------------------------------------- Iteration      1(  14)  ---------------------------------------


    POTLOK:  cpu time    0.1445: real time    0.1457
    SETDIJ:  cpu time    0.0119: real time    0.0120
    EDDIAG:  cpu time    1.1614: real time    1.1691
  RMM-DIIS:  cpu time    4.6369: real time    4.6722
    ORTHCH:  cpu time    0.2224: real time    0.2237
       DOS:  cpu time    0.0011: real time    0.0011
    CHARGE:  cpu time    0.4063: real time    0.4087
    MIXING:  cpu time    0.0085: real time    0.0086
    --------------------------------------------
      LOOP:  cpu time    6.5930: real time    6.6411

 eigenvalue-minimisations  :  1832
 total energy-change (2. order) : 0.4509605E-01  (-0.6810332E-02)
 number of electron     376.0000058 magnetization 
 augmentation part      112.9769035 magnetization 

 Broyden mixing:
  rms(total) = 0.90126E-01    rms(broyden)= 0.90113E-01
  rms(prec ) = 0.11670E+00
  weight for this iteration     100.00

 eigenvalues of (default mixing * dielectric matrix)
  average eigenvalue GAMMA=   0.7252
  2.4388  1.2521  0.8261  0.6811  0.4049  0.1392  0.3103  0.2468  0.2274

 Free energy of the ion-electron system (eV)
  ---------------------------------------------------
  alpha Z        PSCENC =       975.10247152
  Ewald energy   TEWEN  =     91508.41650172
  -Hartree energ DENC   =   -120210.12412168
  -exchange      EXHF   =         0.00000000
  -V(xc)+E(xc)   XCENC  =       178.56904096
  PAW double counting   =     30088.27519658   -29173.83124888
  entropy T*S    EENTRO =        -0.02989512
  eigenvalues    EBANDS =      -856.39647831
  atomic energy  EATOM  =     27259.89416086
  Solvation  Ediel_sol  =         0.00000000
  ---------------------------------------------------
  free energy    TOTEN  =      -230.12437235 eV

  energy without entropy =     -230.09447723  energy(sigma->0) =     -230.11440731


--------------------------------------------------------------------------------------------------------




--------------------------------------- Iteration      1(  15)  ---------------------------------------


    POTLOK:  cpu time    0.1576: real time    0.1586
    SETDIJ:  cpu time    0.0146: real time    0.0146
    EDDIAG:  cpu time    1.3073: real time    1.3153
  RMM-DIIS:  cpu time    4.3595: real time    4.3917
    ORTHCH:  cpu time    0.2463: real time    0.2480
       DOS:  cpu time    0.0013: real time    0.0013
    CHARGE:  cpu time    0.5159: real time    0.5198
    MIXING:  cpu time    0.0097: real time    0.0097
    --------------------------------------------
      LOOP:  cpu time    6.6122: real time    6.6591

 eigenvalue-minimisations  :  1831
 total energy-change (2. order) : 0.4865743E-02  (-0.2658880E-02)
 number of electron     376.0000058 magnetization 
 augmentation part      112.9594364 magnetization 

 Broyden mixing:
  rms(total) = 0.62063E-01    rms(broyden)= 0.62020E-01
  rms(prec ) = 0.77615E-01
  weight for this iteration     100.00

 eigenvalues of (default mixing * dielectric matrix)
  average eigenvalue GAMMA=   0.7079
  2.5030  1.2918  0.8110  0.8110  0.4422  0.1392  0.3084  0.3084  0.2262  0.2377

 Free energy of the ion-electron system (eV)
  ---------------------------------------------------
  alpha Z        PSCENC =       975.10247152
  Ewald energy   TEWEN  =     91508.41650172
  -Hartree energ DENC   =   -120211.67731263
  -exchange      EXHF   =         0.00000000
  -V(xc)+E(xc)   XCENC  =       178.55285581
  PAW double counting   =     30165.63472633   -29252.00820869
  entropy T*S    EENTRO =        -0.02880361
  eigenvalues    EBANDS =      -854.00589793
  atomic energy  EATOM  =     27259.89416086
  Solvation  Ediel_sol  =         0.00000000
  ---------------------------------------------------
  free energy    TOTEN  =      -230.11950661 eV

  energy without entropy =     -230.09070301  energy(sigma->0) =     -230.10990541


--------------------------------------------------------------------------------------------------------




--------------------------------------- Iteration      1(  16)  ---------------------------------------


    POTLOK:  cpu time    0.2024: real time    0.2039
    SETDIJ:  cpu time    0.0185: real time    0.0186
    EDDIAG:  cpu time    1.7058: real time    1.7173
  RMM-DIIS:  cpu time    5.2721: real time    5.3053
    ORTHCH:  cpu time    0.2443: real time    0.2458
       DOS:  cpu time    0.0011: real time    0.0011
    CHARGE:  cpu time    0.4508: real time    0.4536
    MIXING:  cpu time    0.0072: real time    0.0073
    --------------------------------------------
      LOOP:  cpu time    7.9023: real time    7.9529

 eigenvalue-minimisations  :  1827
 total energy-change (2. order) : 0.5601241E-02  (-0.6616393E-03)
 number of electron     376.0000058 magnetization 
 augmentation part      112.9606798 magnetization 

 Broyden mixing:
  rms(total) = 0.25714E-01    rms(broyden)= 0.25709E-01
  rms(prec ) = 0.31246E-01
  weight for this iteration     100.00

 eigenvalues of (default mixing * dielectric matrix)
  average eigenvalue GAMMA=   0.6815
  2.5156  1.2998  0.8025  0.8025  0.5041  0.1392  0.3822  0.2959  0.2959  0.2350
  0.2233

 Free energy of the ion-electron system (eV)
  ---------------------------------------------------
  alpha Z        PSCENC =       975.10247152
  Ewald energy   TEWEN  =     91508.41650172
  -Hartree energ DENC   =   -120212.48833090
  -exchange      EXHF   =         0.00000000
  -V(xc)+E(xc)   XCENC  =       178.56165088
  PAW double counting   =     30180.18264821   -29266.67583393
  entropy T*S    EENTRO =        -0.02886229
  eigenvalues    EBANDS =      -853.07831144
  atomic energy  EATOM  =     27259.89416086
  Solvation  Ediel_sol  =         0.00000000
  ---------------------------------------------------
  free energy    TOTEN  =      -230.11390537 eV

  energy without entropy =     -230.08504308  energy(sigma->0) =     -230.10428461


--------------------------------------------------------------------------------------------------------




--------------------------------------- Iteration      1(  17)  ---------------------------------------


    POTLOK:  cpu time    0.1338: real time    0.1348
    SETDIJ:  cpu time    0.0110: real time    0.0110
    EDDIAG:  cpu time    1.4169: real time    1.4258
  RMM-DIIS:  cpu time    4.6515: real time    4.6827
    ORTHCH:  cpu time    0.2149: real time    0.2162
       DOS:  cpu time    0.0012: real time    0.0012
    CHARGE:  cpu time    0.3762: real time    0.3786
    MIXING:  cpu time    0.0065: real time    0.0066
    --------------------------------------------
      LOOP:  cpu time    6.8121: real time    6.8569

 eigenvalue-minimisations  :  1820
 total energy-change (2. order) : 0.8156513E-03  (-0.1488341E-03)
 number of electron     376.0000058 magnetization 
 augmentation part      112.9614006 magnetization 

 Broyden mixing:
  rms(total) = 0.12463E-01    rms(broyden)= 0.12460E-01
  rms(prec ) = 0.14836E-01
  weight for this iteration     100.00

 eigenvalues of (default mixing * dielectric matrix)
  average eigenvalue GAMMA=   0.7187
  2.5310  1.3122  0.9957  0.9957  0.8521  0.4516  0.1392  0.3214  0.3214  0.2519
  0.2327  0.2196

 Free energy of the ion-electron system (eV)
  ---------------------------------------------------
  alpha Z        PSCENC =       975.10247152
  Ewald energy   TEWEN  =     91508.41650172
  -Hartree energ DENC   =   -120212.93861578
  -exchange      EXHF   =         0.00000000
  -V(xc)+E(xc)   XCENC  =       178.56723985
  PAW double counting   =     30181.40124615   -29267.88132236
  entropy T*S    EENTRO =        -0.02984117
  eigenvalues    EBANDS =      -852.64493051
  atomic energy  EATOM  =     27259.89416086
  Solvation  Ediel_sol  =         0.00000000
  ---------------------------------------------------
  free energy    TOTEN  =      -230.11308972 eV

  energy without entropy =     -230.08324855  energy(sigma->0) =     -230.10314266


--------------------------------------------------------------------------------------------------------




--------------------------------------- Iteration      1(  18)  ---------------------------------------


    POTLOK:  cpu time    0.1315: real time    0.1324
    SETDIJ:  cpu time    0.0109: real time    0.0110
    EDDIAG:  cpu time    1.2165: real time    1.2243
  RMM-DIIS:  cpu time    3.8021: real time    3.8283
    ORTHCH:  cpu time    0.2115: real time    0.2128
       DOS:  cpu time    0.0012: real time    0.0012
    CHARGE:  cpu time    0.3547: real time    0.3567
    MIXING:  cpu time    0.0060: real time    0.0060
    --------------------------------------------
      LOOP:  cpu time    5.7343: real time    5.7727

 eigenvalue-minimisations  :  1712
 total energy-change (2. order) :-0.1646174E-03  (-0.6968761E-04)
 number of electron     376.0000058 magnetization 
 augmentation part      112.9597494 magnetization 

 Broyden mixing:
  rms(total) = 0.10806E-01    rms(broyden)= 0.10805E-01
  rms(prec ) = 0.13110E-01
  weight for this iteration     100.00

 eigenvalues of (default mixing * dielectric matrix)
  average eigenvalue GAMMA=   0.7554
  2.5367  1.9473  1.2852  0.8719  0.8719  0.4512  0.1392  0.3896  0.3167  0.3167
  0.2445  0.2317  0.2178

 Free energy of the ion-electron system (eV)
  ---------------------------------------------------
  alpha Z        PSCENC =       975.10247152
  Ewald energy   TEWEN  =     91508.41650172
  -Hartree energ DENC   =   -120213.95759180
  -exchange      EXHF   =         0.00000000
  -V(xc)+E(xc)   XCENC  =       178.57632009
  PAW double counting   =     30180.04938942   -29266.45911709
  entropy T*S    EENTRO =        -0.02987942
  eigenvalues    EBANDS =      -851.70550963
  atomic energy  EATOM  =     27259.89416086
  Solvation  Ediel_sol  =         0.00000000
  ---------------------------------------------------
  free energy    TOTEN  =      -230.11325434 eV

  energy without entropy =     -230.08337491  energy(sigma->0) =     -230.10329453


--------------------------------------------------------------------------------------------------------




--------------------------------------- Iteration      1(  19)  ---------------------------------------


    POTLOK:  cpu time    0.1536: real time    0.1545
    SETDIJ:  cpu time    0.0117: real time    0.0118
    EDDIAG:  cpu time    1.0273: real time    1.0334
  RMM-DIIS:  cpu time    2.8385: real time    2.8574
    ORTHCH:  cpu time    0.2068: real time    0.2081
       DOS:  cpu time    0.0012: real time    0.0012
    --------------------------------------------
      LOOP:  cpu time    4.2392: real time    4.2664

 eigenvalue-minimisations  :  1207
 total energy-change (2. order) :-0.4740526E-05  (-0.3305181E-04)
 number of electron     376.0000058 magnetization 
 augmentation part      112.9597494 magnetization 

 Free energy of the ion-electron system (eV)
  ---------------------------------------------------
  alpha Z        PSCENC =       975.10247152
  Ewald energy   TEWEN  =     91508.41650172
  -Hartree energ DENC   =   -120215.25218535
  -exchange      EXHF   =         0.00000000
  -V(xc)+E(xc)   XCENC  =       178.58647233
  PAW double counting   =     30176.84674725   -29263.16530286
  entropy T*S    EENTRO =        -0.03030357
  eigenvalues    EBANDS =      -850.51182098
  atomic energy  EATOM  =     27259.89416086
  Solvation  Ediel_sol  =         0.00000000
  ---------------------------------------------------
  free energy    TOTEN  =      -230.11325908 eV

  energy without entropy =     -230.08295551  energy(sigma->0) =     -230.10315789


--------------------------------------------------------------------------------------------------------




 average (electrostatic) potential at core
  the test charge radii are     0.6991  0.7215  1.2059
  (the norm of the test charge is              1.0000)
       1 -56.3119       2 -75.0751       3 -76.2404       4 -72.2985       5 -72.3109
       6 -72.2745       7 -72.2992       8 -72.2961       9 -72.3093      10 -72.2772
      11 -72.2934      12 -72.2993      13 -72.8698      14 -73.0169      15 -72.9227
      16 -72.9178      17 -72.9629      18 -73.0050      19 -72.9755      20 -72.9375
      21 -72.9747      22 -72.8616      23 -72.9724      24 -72.9015      25 -72.9485
      26 -72.9627      27 -73.0308      28 -72.9610      29 -72.9133      30 -72.8626
      31 -72.4417      32 -72.3530      33 -72.3890      34 -72.5409      35 -72.4625
      36 -73.2575      37 -72.4010      38 -73.3542      39 -72.4191
 
 
 
 E-fermi :   1.1226     XC(G=0):  -6.6103     alpha+bet : -6.8913


 k-point     1 :       0.0000    0.0000    0.0000
  band No.  band energies     occupation 
      1     -22.1339      2.00000
      2     -17.5255      2.00000
      3      -8.8208      2.00000
      4      -8.1014      2.00000
      5      -6.8093      2.00000
      6      -6.0450      2.00000
      7      -5.9834      2.00000
      8      -5.8004      2.00000
      9      -5.6986      2.00000
     10      -5.6672      2.00000
     11      -5.6236      2.00000
     12      -5.5876      2.00000
     13      -5.5632      2.00000
     14      -5.5357      2.00000
     15      -5.4994      2.00000
     16      -5.3190      2.00000
     17      -5.1186      2.00000
     18      -5.0794      2.00000
     19      -5.0474      2.00000
     20      -5.0119      2.00000
     21      -4.9780      2.00000
     22      -4.9746      2.00000
     23      -4.7573      2.00000
     24      -4.6570      2.00000
     25      -4.5634      2.00000
     26      -4.5345      2.00000
     27      -4.5284      2.00000
     28      -4.4740      2.00000
     29      -4.4292      2.00000
     30      -4.3860      2.00000
     31      -4.3416      2.00000
     32      -4.3283      2.00000
     33      -4.2946      2.00000
     34      -4.2515      2.00000
     35      -4.1556      2.00000
     36      -4.1191      2.00000
     37      -4.1072      2.00000
     38      -4.0826      2.00000
     39      -4.0590      2.00000
     40      -4.0493      2.00000
     41      -4.0385      2.00000
     42      -4.0350      2.00000
     43      -4.0088      2.00000
     44      -4.0016      2.00000
     45      -3.9844      2.00000
     46      -3.9371      2.00000
     47      -3.7377      2.00000
     48      -3.5772      2.00000
     49      -3.5126      2.00000
     50      -3.4266      2.00000
     51      -3.4088      2.00000
     52      -3.3934      2.00000
     53      -3.3736      2.00000
     54      -3.3594      2.00000
     55      -3.3191      2.00000
     56      -3.2910      2.00000
     57      -3.2434      2.00000
     58      -3.2143      2.00000
     59      -3.1776      2.00000
     60      -3.1488      2.00000
     61      -3.1161      2.00000
     62      -3.0436      2.00000
     63      -2.9640      2.00000
     64      -2.6413      2.00000
     65      -2.5757      2.00000
     66      -2.5590      2.00000
     67      -2.5511      2.00000
     68      -2.5098      2.00000
     69      -2.4945      2.00000
     70      -2.4529      2.00000
     71      -2.4408      2.00000
     72      -2.4262      2.00000
     73      -2.3963      2.00000
     74      -2.3702      2.00000
     75      -2.3574      2.00000
     76      -2.3479      2.00000
     77      -2.3287      2.00000
     78      -2.3206      2.00000
     79      -2.3077      2.00000
     80      -2.2952      2.00000
     81      -2.2868      2.00000
     82      -2.2733      2.00000
     83      -2.2533      2.00000
     84      -2.2375      2.00000
     85      -2.2175      2.00000
     86      -2.1500      2.00000
     87      -2.1193      2.00000
     88      -2.1017      2.00000
     89      -2.0693      2.00000
     90      -2.0257      2.00000
     91      -1.9838      2.00000
     92      -1.9734      2.00000
     93      -1.9566      2.00000
     94      -1.9386      2.00000
     95      -1.9091      2.00000
     96      -1.8931      2.00000
     97      -1.8775      2.00000
     98      -1.8258      2.00000
     99      -1.7987      2.00000
    100      -1.7602      2.00000
    101      -1.7256      2.00000
    102      -1.6341      2.00000
    103      -1.6045      2.00000
    104      -1.6028      2.00000
    105      -1.5796      2.00000
    106      -1.5440      2.00000
    107      -1.5157      2.00000
    108      -1.5141      2.00000
    109      -1.4864      2.00000
    110      -1.4680      2.00000
    111      -1.4634      2.00000
    112      -1.4583      2.00000
    113      -1.4297      2.00000
    114      -1.3132      2.00000
    115      -1.3054      2.00000
    116      -1.1993      2.00000
    117      -1.1172      2.00000
    118      -1.0511      2.00000
    119      -0.9970      2.00000
    120      -0.9899      2.00000
    121      -0.9583      2.00000
    122      -0.9335      2.00000
    123      -0.9107      2.00000
    124      -0.8754      2.00000
    125      -0.8313      2.00000
    126      -0.7897      2.00000
    127      -0.7468      2.00000
    128      -0.7310      2.00000
    129      -0.6876      2.00000
    130      -0.6660      2.00000
    131      -0.6560      2.00000
    132      -0.6343      2.00000
    133      -0.6144      2.00000
    134      -0.6138      2.00000
    135      -0.5277      2.00000
    136      -0.4735      2.00000
    137      -0.4081      2.00000
    138      -0.3689      2.00000
    139      -0.3462      2.00000
    140      -0.3400      2.00000
    141      -0.2526      2.00000
    142      -0.2361      2.00000
    143      -0.1804      2.00000
    144      -0.1773      2.00000
    145      -0.1444      2.00000
    146      -0.1136      2.00000
    147      -0.0954      2.00000
    148      -0.0717      2.00000
    149       0.0095      2.00000
    150       0.0151      2.00000
    151       0.0860      2.00000
    152       0.1274      2.00000
    153       0.1377      2.00000
    154       0.1619      2.00000
    155       0.1796      2.00000
    156       0.1965      2.00000
    157       0.2360      2.00000
    158       0.2739      2.00000
    159       0.2875      2.00000
    160       0.3150      2.00000
    161       0.3350      2.00000
    162       0.3408      2.00000
    163       0.3518      2.00000
    164       0.3796      2.00000
    165       0.3923      2.00000
    166       0.4076      2.00001
    167       0.4144      2.00001
    168       0.4301      2.00001
    169       0.4395      2.00002
    170       0.4907      2.00007
    171       0.5037      2.00011
    172       0.5623      2.00054
    173       0.6005      2.00139
    174       0.6230      2.00234
    175       0.6480      2.00401
    176       0.6728      2.00659
    177       0.6849      2.00830
    178       0.7067      2.01225
    179       0.7171      2.01461
    180       0.7481      2.02361
    181       0.7725      2.03281
    182       0.7927      2.04158
    183       0.8121      2.05053
    184       0.8293      2.05822
    185       0.8406      2.06278
    186       0.8495      2.06591
    187       0.8540      2.06726
    188       0.8644      2.06969
    189       0.8731      2.07076
    190       0.8779      2.07092
    191       0.8827      2.07072
    192       0.8949      2.06834
    193       0.8990      2.06688
    194       0.9486      2.01179
    195       0.9794      1.93061
    196       1.1090      1.11468
    197       1.1332      0.91060
    198       1.2065      0.35491
    199       1.2340      0.20056
    200       1.2443      0.15261
    201       1.2551      0.10776
    202       1.2712      0.05220
    203       1.2754      0.03952
    204       1.4916     -0.02555
    205       1.5462     -0.01073
    206       1.9513     -0.00000
    207       2.0212     -0.00000
    208       2.0756     -0.00000
    209       2.0882     -0.00000
    210       2.2157     -0.00000
    211       2.5931     -0.00000
    212       3.6399     -0.00000
    213       4.0393     -0.00000
    214       4.3508     -0.00000
    215       4.3901     -0.00000
    216       4.3914     -0.00000
    217       4.6143     -0.00000
    218       4.9387     -0.00000
    219       5.4924     -0.00000
    220       5.6378     -0.00000
    221       5.8665     -0.00000
    222       5.8969     -0.00000
    223       5.9271     -0.00000
    224       5.9748     -0.00000
    225       6.0203     -0.00000
    226       6.1540     -0.00000
    227       6.5618     -0.00000
    228       6.8274      0.00000

 k-point     2 :       0.5000    0.0000    0.0000
  band No.  band energies     occupation 
      1     -22.1338      2.00000
      2     -17.5251      2.00000
      3      -8.8089      2.00000
      4      -7.2382      2.00000
      5      -7.2290      2.00000
      6      -6.1201      2.00000
      7      -6.0613      2.00000
      8      -5.9372      2.00000
      9      -5.8729      2.00000
     10      -5.7320      2.00000
     11      -5.6297      2.00000
     12      -5.4264      2.00000
     13      -5.3799      2.00000
     14      -5.2442      2.00000
     15      -5.0258      2.00000
     16      -4.9313      2.00000
     17      -4.8875      2.00000
     18      -4.8648      2.00000
     19      -4.8427      2.00000
     20      -4.8089      2.00000
     21      -4.7960      2.00000
     22      -4.7917      2.00000
     23      -4.7606      2.00000
     24      -4.7437      2.00000
     25      -4.7290      2.00000
     26      -4.7133      2.00000
     27      -4.6749      2.00000
     28      -4.6570      2.00000
     29      -4.6004      2.00000
     30      -4.5544      2.00000
     31      -4.3981      2.00000
     32      -4.3461      2.00000
     33      -4.3262      2.00000
     34      -4.2910      2.00000
     35      -4.2508      2.00000
     36      -4.1905      2.00000
     37      -4.0483      2.00000
     38      -4.0349      2.00000
     39      -3.9948      2.00000
     40      -3.9733      2.00000
     41      -3.9345      2.00000
     42      -3.8986      2.00000
     43      -3.8798      2.00000
     44      -3.8215      2.00000
     45      -3.7733      2.00000
     46      -3.7123      2.00000
     47      -3.6667      2.00000
     48      -3.6399      2.00000
     49      -3.6073      2.00000
     50      -3.5631      2.00000
     51      -3.4730      2.00000
     52      -3.4611      2.00000
     53      -3.4508      2.00000
     54      -3.3803      2.00000
     55      -3.3602      2.00000
     56      -3.3251      2.00000
     57      -3.2896      2.00000
     58      -3.2021      2.00000
     59      -3.1706      2.00000
     60      -3.1373      2.00000
     61      -3.0835      2.00000
     62      -3.0717      2.00000
     63      -3.0590      2.00000
     64      -3.0090      2.00000
     65      -2.9680      2.00000
     66      -2.9619      2.00000
     67      -2.9075      2.00000
     68      -2.8563      2.00000
     69      -2.8413      2.00000
     70      -2.8090      2.00000
[...]
     89      -2.1493      2.00000
     90      -2.1312      2.00000
     91      -2.1094      2.00000
     92      -2.1013      2.00000
     93      -2.0401      2.00000
     94      -1.9803      2.00000
     95      -1.9536      2.00000
     96      -1.9227      2.00000
     97      -1.9127      2.00000
     98      -1.8806      2.00000
     99      -1.8411      2.00000
    100      -1.8153      2.00000
    101      -1.7830      2.00000
    102      -1.7505      2.00000
    103      -1.7346      2.00000
    104      -1.6985      2.00000
    105      -1.6870      2.00000
    106      -1.6741      2.00000
    107      -1.6385      2.00000
    108      -1.6261      2.00000
    109      -1.5807      2.00000
    110      -1.5453      2.00000
    111      -1.5243      2.00000
    112      -1.4655      2.00000
    113      -1.4343      2.00000
    114      -1.3724      2.00000
    115      -1.2912      2.00000
    116      -1.2739      2.00000
    117      -1.2161      2.00000
    118      -1.1859      2.00000
    119      -1.1153      2.00000
    120      -1.0899      2.00000
    121      -1.0604      2.00000
    122      -1.0264      2.00000
    123      -1.0144      2.00000
    124      -1.0110      2.00000
    125      -0.9742      2.00000
    126      -0.9570      2.00000
    127      -0.9351      2.00000
    128      -0.9321      2.00000
    129      -0.9115      2.00000
    130      -0.8803      2.00000
    131      -0.8252      2.00000
    132      -0.8057      2.00000
    133      -0.7633      2.00000
    134      -0.7443      2.00000
    135      -0.7018      2.00000
    136      -0.6843      2.00000
    137      -0.6677      2.00000
    138      -0.6400      2.00000
    139      -0.5761      2.00000
    140      -0.5575      2.00000
    141      -0.4876      2.00000
    142      -0.4532      2.00000
    143      -0.3977      2.00000
    144      -0.3075      2.00000
    145      -0.2545      2.00000
    146      -0.1948      2.00000
    147      -0.1581      2.00000
    148      -0.1442      2.00000
    149      -0.0868      2.00000
    150      -0.0493      2.00000
    151      -0.0405      2.00000
    152       0.0283      2.00000
    153       0.0423      2.00000
    154       0.0909      2.00000
    155       0.1005      2.00000
    156       0.1076      2.00000
    157       0.1353      2.00000
    158       0.1741      2.00000
    159       0.1966      2.00000
    160       0.2307      2.00000
    161       0.2729      2.00000
    162       0.3175      2.00000
    163       0.3227      2.00000
    164       0.3603      2.00000
    165       0.3865      2.00000
    166       0.4160      2.00001
    167       0.5287      2.00032
    168       0.5868      2.00138
    169       0.6091      2.00230
    170       0.6306      2.00367
    171       0.6502      2.00548
    172       0.6804      2.00972
    173       0.7198      2.01882
    174       0.7955      2.04895
    175       0.8012      2.05159
    176       0.8178      2.05894
    177       0.8529      2.06996
    178       0.8744      2.07011
    179       0.9303      2.02126
    180       0.9423      1.99736
    181       0.9489      1.98153
    182       1.0265      1.63976
    183       1.0678      1.34411
    184       1.1035      1.04991
    185       1.1128      0.97171
    186       1.1271      0.85143
    187       1.1448      0.70626
    188       1.1569      0.61099
    189       1.1694      0.51675
    190       1.1857      0.40363
    191       1.3314     -0.06617
    192       1.3445     -0.07010
    193       1.3740     -0.06833
    194       1.3915     -0.06280
    195       1.4301     -0.04581
    196       1.4973     -0.01937
    197       1.5884     -0.00366
    198       1.7217     -0.00013
    199       1.8321     -0.00000
    200       1.9784     -0.00000
    201       2.2644     -0.00000
    202       2.3362     -0.00000
    203       2.8105     -0.00000
    204       2.9501     -0.00000
    205       2.9617     -0.00000
    206       2.9851     -0.00000
    207       3.0186     -0.00000
    208       3.2329     -0.00000
    209       3.4102     -0.00000
    210       3.5247     -0.00000
    211       3.5765     -0.00000
    212       3.6412     -0.00000
    213       3.7458     -0.00000
    214       3.8262     -0.00000
    215       3.9621     -0.00000
    216       4.2013     -0.00000
    217       4.2369     -0.00000
    218       4.4328     -0.00000
    219       4.4439     -0.00000
    220       4.6092     -0.00000
    221       4.6747     -0.00000
    222       4.8416     -0.00000
    223       5.2166     -0.00000
    224       5.5207     -0.00000
    225       6.0025     -0.00000
    226       6.5160     -0.00000
    227       6.5342     -0.00000
    228       6.6513      0.00000


--------------------------------------------------------------------------------------------------------


 soft charge-density along one line, spin component           1
         0         1         2         3         4         5         6         7         8         9
 total charge-density along one line
 
 pseudopotential strength for first ion, spin component:           1
 10.100   0.016   0.004   0.012  -0.000  -0.004  -0.011   0.001
  0.016  -0.002  -0.000  -0.000  -0.000  -0.000  -0.000   0.000
  0.004  -0.000  -4.244  -0.007   0.001  -0.011  -0.003   0.000
  0.012  -0.000  -0.007  -4.263   0.004  -0.003  -0.018   0.001
 -0.000  -0.000   0.001   0.004  -4.242   0.000   0.001  -0.010
 -0.004  -0.000  -0.011  -0.003   0.000  -0.770  -0.000   0.000
 -0.011  -0.000  -0.003  -0.018   0.001  -0.000  -0.770   0.000
  0.001   0.000   0.000   0.001  -0.010   0.000   0.000  -0.770
 total augmentation occupancy for first ion, spin component:           1
  1.639  -0.911   0.016   0.032  -0.059   0.033   0.093  -0.027
 -0.911   1.314  -0.208  -0.604   0.114  -0.083  -0.248   0.041
  0.016  -0.208   0.853   0.191   0.001   0.117   0.052  -0.005
  0.032  -0.604   0.191   1.354  -0.026   0.052   0.254  -0.013
 -0.059   0.114   0.001  -0.026   0.801  -0.006  -0.014   0.103
  0.033  -0.083   0.117   0.052  -0.006   0.020   0.021  -0.003
  0.093  -0.248   0.052   0.254  -0.014   0.021   0.074  -0.008
 -0.027   0.041  -0.005  -0.013   0.103  -0.003  -0.008   0.015


------------------------ aborting loop because EDIFF is reached ----------------------------------------


    CHARGE:  cpu time    0.6965: real time    0.7973
    FORLOC:  cpu time    0.0587: real time    0.0591
    FORNL :  cpu time    2.9007: real time    2.9209
    STRESS:  cpu time    6.4790: real time    6.5334
    FORCOR:  cpu time    0.1462: real time    0.1472
    FORHAR:  cpu time    0.0795: real time    0.0801
    MIXING:  cpu time    0.0049: real time    0.0049
    OFIELD:  cpu time    0.0000: real time    0.0000

  FORCE on cell =-STRESS in cart. coord.  units (eV):
  Direction    XX          YY          ZZ          XY          YZ          ZX
  --------------------------------------------------------------------------------------
  Alpha Z   975.10247   975.10247   975.10247
  Ewald  111302.07740111302.40143************  -205.70754   245.72705   -92.97355
  Hartree118059.72919118033.66673************  -134.50920   102.42474   -50.29522
  E(xc)   -1666.13850 -1665.89035 -1673.54889    -0.47761     0.69721    -0.26432
  Local  ************************240053.19144   329.21215  -323.49445   135.65245
  n-local   123.84008   122.28617    89.43430    -1.44823     1.45762     0.39563
  augment  1894.85243  1893.58190  1933.10882     2.97178    -4.65462     0.94749
  Kinetic  5523.79234  5515.46823  5603.07643    10.27304   -21.24033     7.44712
  Fock        0.00000     0.00000     0.00000     0.00000     0.00000     0.00000
  -------------------------------------------------------------------------------------
  Total     -35.48804   -37.87805    -0.60458     0.31439     0.91723     0.90961
  in kB     -42.26684   -45.11338    -0.72006     0.37444     1.09243     1.08336
  external pressure =      -29.37 kB  Pullay stress =        0.00 kB


 VOLUME and BASIS-vectors are now :
 -----------------------------------------------------------------------------
  energy-cutoff  :      450.00
  volume of cell :     1345.22
      direct lattice vectors                 reciprocal lattice vectors
     7.296955120 -4.212899000  0.000000000     0.137043463  0.000000000  0.000000000
     0.000000000  8.425798000  0.000000000     0.068521732  0.118683121  0.000000000
     0.000000000  0.000000000 21.879635000     0.000000000  0.000000000  0.045704602

  length of vectors
     8.425798004  8.425798000 21.879635000     0.137043463  0.137043463  0.045704602


 FORCES acting on ions
    electron-ion (+dipol)            ewald-force                    non-local-force                 convergence-correction
 -----------------------------------------------------------------------------------------------
   0.580E+01 0.103E+02 -.873E+03   -.605E+01 -.155E+02 0.859E+03   0.221E+00 0.340E+01 0.109E+02   -.800E-02 0.266E-01 0.830E-01
   -.746E+02 0.525E+02 -.160E+04   0.746E+02 -.488E+02 0.162E+04   0.634E+00 -.339E+01 -.237E+02   0.968E-02 0.151E-01 0.518E-01
   0.632E+02 -.103E+03 -.157E+04   -.730E+02 0.124E+03 0.163E+04   0.961E+01 -.199E+02 -.593E+02   0.856E-02 -.857E-02 -.914E-02
   -.130E+01 0.726E+00 0.234E+04   0.120E+01 -.634E+00 -.234E+04   0.297E-01 -.642E-01 -.120E+01   0.731E-01 -.418E-01 -.283E-01
   0.541E+00 -.104E+01 0.234E+04   -.536E+00 0.103E+01 -.234E+04   -.151E-01 -.297E-01 -.111E+01   -.696E-02 -.229E-02 -.199E-02
   0.175E+00 -.558E+00 0.234E+04   -.142E+00 0.519E+00 -.234E+04   0.288E-01 -.625E-02 -.114E+01   -.855E-01 0.108E-01 -.519E-01
   -.236E+00 0.141E+00 0.234E+04   0.250E+00 -.130E+00 -.234E+04   -.185E-01 0.278E-01 -.115E+01   0.320E-01 -.122E-01 -.648E-01
   -.832E-01 0.128E+01 0.234E+04   0.577E-01 -.121E+01 -.234E+04   0.188E-01 0.137E-01 -.126E+01   0.735E-03 -.624E-01 -.258E-01
   0.830E+00 -.552E+00 0.234E+04   -.746E+00 0.562E+00 -.234E+04   0.164E-01 0.711E-02 -.120E+01   -.903E-01 -.251E-01 -.444E-01
   0.564E+00 -.364E+00 0.234E+04   -.433E+00 0.181E+00 -.234E+04   -.926E-01 0.872E-01 -.111E+01   0.169E-01 0.650E-01 -.514E-01
   -.387E+00 0.113E+01 0.234E+04   0.424E+00 -.109E+01 -.234E+04   -.189E-01 -.188E-01 -.125E+01   -.220E-01 0.143E-01 -.573E-01
   0.866E-02 -.794E+00 0.234E+04   -.811E-01 0.765E+00 -.234E+04   -.525E-02 0.102E-01 -.104E+01   0.819E-01 0.538E-01 -.453E-01
   0.230E+01 -.975E+01 0.860E+03   -.242E+01 0.971E+01 -.860E+03   0.237E-01 0.403E-01 -.481E+00   0.432E-01 0.103E+00 -.551E-01
   0.127E+01 0.363E+00 0.871E+03   -.134E+01 -.434E+00 -.871E+03   0.309E-01 0.107E+00 -.442E+00   -.399E-01 0.387E-01 -.687E-01
   -.625E+01 0.529E+01 0.857E+03   0.626E+01 -.542E+01 -.857E+03   0.719E-01 -.691E-01 -.242E+00   0.831E-01 0.958E-02 -.239E-01
   -.317E+01 0.285E+01 0.853E+03   0.314E+01 -.287E+01 -.852E+03   0.108E-01 0.240E-01 -.823E-01   0.522E-01 -.675E-01 -.255E-01
   0.736E+01 -.876E+01 0.860E+03   -.738E+01 0.881E+01 -.860E+03   0.721E-02 0.622E-01 -.291E+00   -.123E+00 0.242E-01 -.442E-01
   -.770E+01 0.186E+01 0.867E+03   0.774E+01 -.184E+01 -.866E+03   0.536E-01 -.290E-01 -.470E+00   0.231E-01 -.391E-01 -.283E-01
   0.253E+01 0.782E+01 0.863E+03   -.252E+01 -.767E+01 -.863E+03   -.158E+00 -.175E+00 -.384E+00   0.374E-01 -.347E-01 -.415E-01
   0.188E+00 0.742E+01 0.857E+03   -.104E+00 -.735E+01 -.856E+03   0.930E-02 -.717E-01 -.220E+00   -.651E-01 -.638E-01 -.176E-01
   0.440E+01 -.582E+01 0.863E+03   -.435E+01 0.596E+01 -.863E+03   -.727E-01 0.518E-02 -.434E+00   -.108E-01 0.301E-01 -.910E-02
   0.166E+01 -.578E+00 -.651E+03   -.182E+01 0.538E+00 0.650E+03   0.760E-01 0.279E+00 0.304E+00   0.743E-01 -.861E-01 0.312E-01
   0.135E+01 0.105E+02 -.618E+03   -.139E+01 -.103E+02 0.617E+03   0.120E+00 -.352E+00 0.554E+00   -.894E-02 -.616E-01 0.322E-01
   -.135E+02 0.314E+01 -.628E+03   0.132E+02 -.281E+01 0.627E+03   0.359E+00 -.239E+00 0.104E+01   0.337E-01 -.323E-01 -.178E-01
   -.939E+00 -.787E+00 -.654E+03   0.469E+00 0.155E+01 0.654E+03   0.229E+00 -.433E+00 -.792E+00   0.774E-01 -.298E-02 0.305E-01
   0.108E+02 -.894E+01 -.628E+03   -.101E+02 0.881E+01 0.628E+03   -.668E+00 0.143E+00 0.230E+00   -.644E-01 0.935E-01 -.169E-01
   0.354E+00 0.374E+01 -.616E+03   -.474E+00 -.394E+01 0.616E+03   0.160E+00 -.301E+00 0.740E+00   -.915E-02 0.892E-01 0.242E-01
   -.624E+00 -.278E+01 -.648E+03   0.601E+00 0.280E+01 0.648E+03   0.403E-01 0.726E-01 -.310E+00   -.661E-02 -.227E-01 0.108E+00
   0.223E+01 0.346E+01 -.653E+03   -.222E+01 -.343E+01 0.653E+03   -.985E-02 -.244E+00 -.438E+00   -.466E-01 -.952E-02 0.697E-01
   -.268E+01 -.577E+01 -.620E+03   0.275E+01 0.548E+01 0.620E+03   -.757E-01 0.426E+00 0.102E+01   -.471E-01 0.385E-01 0.962E-02
   -.215E+02 -.634E+01 -.215E+04   0.219E+02 0.674E+01 0.215E+04   -.352E+00 -.391E+00 0.155E+01   0.156E-01 -.856E-01 0.143E-02
   0.730E+01 0.331E+02 -.215E+04   -.788E+01 -.334E+02 0.214E+04   0.700E+00 0.419E+00 0.133E+01   0.168E-01 -.760E-01 0.687E-01
   0.340E+02 -.309E+01 -.217E+04   -.344E+02 0.311E+01 0.217E+04   0.271E+00 -.142E+00 0.999E+00   -.102E-01 0.704E-01 0.353E-01
   0.238E+01 0.342E+00 -.216E+04   -.231E+01 -.745E+00 0.216E+04   -.199E+00 0.489E+00 0.142E+01   -.572E-02 0.277E-01 -.919E-03
   0.191E+02 0.842E+01 -.216E+04   -.191E+02 -.885E+01 0.216E+04   -.206E+00 0.534E+00 0.968E+00   -.209E-01 0.104E-01 0.501E-01
   0.575E+02 0.600E+02 -.195E+04   -.603E+02 -.585E+02 0.196E+04   0.280E+01 -.126E+01 -.264E+01   -.120E-01 0.403E-01 0.902E-01
   -.495E+02 -.544E+02 -.209E+04   0.511E+02 0.569E+02 0.209E+04   -.187E+01 -.249E+01 0.182E+01   0.473E-02 -.214E-02 0.951E-01
   -.577E+02 0.918E+02 -.204E+04   0.578E+02 -.924E+02 0.205E+04   -.286E+00 0.703E+00 -.118E+01   0.720E-01 -.248E-01 0.570E-01
   0.253E+01 -.689E+02 -.211E+04   -.254E+01 0.700E+02 0.211E+04   0.246E+00 -.979E+00 0.146E+01   -.569E-01 0.240E-01 0.287E-01
 -----------------------------------------------------------------------------------------------
   -.117E+02 0.238E+02 0.774E+02   -.688E-13 0.853E-13 -.909E-12   0.117E+02 -.237E+02 -.775E+02   0.162E-01 0.238E-01 0.137E+00
 
 
 POSITION                                       TOTAL-FORCE (eV/Angst)
 -----------------------------------------------------------------------------------
      5.10056      0.70010     10.32422        -0.039185     -1.749869     -3.001172
      6.61648     -0.55966     10.16564         0.649921      0.318965      0.255397
      4.93761      1.06187     11.39035        -0.135086      1.031409      2.690201
      7.20031     -1.38846      1.62732         0.007763     -0.018493      0.117224
      2.33567      1.42014      1.62732        -0.018279     -0.048723      0.202956
      4.76799      0.01584      1.62732        -0.025108     -0.038468      0.073463
      7.20031      1.42015      1.62732         0.026282      0.023293      0.137552
      2.33567      4.22875      1.62732        -0.007463      0.016420      0.124364
      4.76799      2.82445      1.62732         0.008714     -0.011856      0.172796
      2.33567      7.03734      1.62732         0.054582     -0.034792      0.044215
      4.76799      5.63304      1.62732        -0.004659      0.035799      0.094957
      7.20031      4.22874      1.62732         0.002772      0.031343      0.100134
      1.52490      0.01584      3.92052        -0.051424      0.102193     -0.179174
      3.95722     -1.38846      3.92052        -0.082966      0.070737     -0.376317
      6.38953     -2.79276      3.92052         0.165428     -0.191368     -0.072776
      1.52490      2.82445      3.92052         0.032266     -0.066192      0.169879
      3.95722      1.42015      3.92052        -0.142698      0.127193     -0.034862
      6.38953      0.01585      3.92052         0.117420     -0.048622     -0.171209
      1.52490      5.63305      3.92052        -0.115305     -0.066944     -0.182421
      3.95722      4.22874      3.92052         0.026369     -0.069232      0.056306
      6.38953      2.82445      3.92052        -0.040938      0.180733     -0.258830
      0.69999      4.18761      6.22357        -0.018479      0.149151     -0.102201
      3.12480      5.64839      6.16517         0.065444     -0.287926      0.000458
      5.55617     -1.40335      6.15613         0.161229      0.058058      0.683071
      0.70964      1.42143      6.24689        -0.165569      0.320100     -0.203007
      3.15417      0.01291      6.18929        -0.028450      0.102229      0.121732
      0.69964      7.04403      6.15829         0.029689     -0.425254      0.257939
      5.56534      4.21376      6.23041         0.008664      0.063978     -0.544477
      3.14559      2.82644      6.25332        -0.046294     -0.226576     -0.603639
      5.59141      1.38758      6.15812        -0.054675      0.176278      0.491543
      2.35114      4.22960      8.45548         0.032252     -0.081269      0.213617
      4.73494      5.61259      8.46370         0.132410      0.018024     -0.109317
      2.32462      1.39898      8.54180        -0.106929     -0.060282     -0.304224
      7.22305      4.16148      8.44775        -0.134721      0.110281      0.458133
      2.34313      6.99680      8.46139        -0.158186      0.101622      0.127017
      4.66071      0.03655      8.55750        -0.000978      0.306396      0.070831
      7.27331      1.42691      8.52955        -0.251400     -0.006684     -0.422549
      7.23265     -1.52202      8.61581        -0.073648     -0.004704     -0.050075
      4.76894      2.82557      8.48899         0.181233      0.093050     -0.047532
 -----------------------------------------------------------------------------------
    total drift:                                0.056300      0.156301      0.049313
  FORCES: max atom, RMS     3.474279    0.782988
  Number: max atom                 1
  FORCE total and by dimension    4.889761    3.001172


--------------------------------------------------------------------------------------------------------



  FREE ENERGIE OF THE ION-ELECTRON SYSTEM (eV)
  ---------------------------------------------------
  free  energy   TOTEN  =      -230.46021644 eV

  energy  without entropy=     -230.43390272  energy(sigma->0) =     -230.45144520
 
 d Force = 0.7138627E-01[-0.304E-01, 0.173E+00]  d Energy = 0.7620480E-01-0.482E-02
 d Force =-0.1321664E+02[-0.137E+02,-0.128E+02]  d Ewald  =-0.1321216E+02-0.448E-02


--------------------------------------------------------------------------------------------------------


    POTLOK:  cpu time    0.1609: real time    0.2803


--------------------------------------------------------------------------------------------------------


 stress matrix after NEB project (eV)
    -35.48804      0.31439      0.90961
      0.31439    -37.87805      0.91723
      0.90961      0.91723     -0.60458
  FORCES: max atom, RMS     3.474279    0.782988
  FORCE total and by dimension    4.889761    3.001172
  Stress total and by dimension   51.942738   37.878047
 Quasi-Newton relaxation of ions (Broydens 2nd method)
  g(Force)  = 0.461E+00   g(Stress)= 0.000E+00

 retain information from N=  2 steps
 eigenvalues of (default step * inverse Hessian matrix)
  average eigenvalue of G=   0.6948
 eigenvalue spectrum of G is  1.0162  0.3735
  RESET_HESSIAN           0


--------------------------------------------------------------------------------------------------------


    WAVPRE:  cpu time    0.0898: real time    0.2404
    FEWALD:  cpu time    0.0073: real time    0.0138

 real space projection operators:
  total allocation   :      13560.66 KBytes
  max/ min on nodes  :       6789.44       6771.22

    ORTHCH:  cpu time    0.9274: real time    1.0977
     LOOP+:  cpu time   76.6967: real time   78.1745


--------------------------------------- Iteration      4(   1)  ---------------------------------------


    POTLOK:  cpu time    0.1449: real time    0.2404
    SETDIJ:  cpu time    0.0103: real time    0.0104
