<?xml version="1.0" encoding="ISO-8859-1"?>
<modeling>
 <generator>
  <i name="program" type="string"> vasp </i>
  <i name="version" type="string">5.4.4  </i>
  <i name="subversion" type="string">16052018 (build Apr 24 2014 20:13:14) complex standard parallel Constrained Minimization Technique (TS), Periodic NBO, VASPsol, libbeef, VASP2WANNIER90, Constrained Cell Relaxation </i>
  <i name="platform" type="string">Center for Computational Chemistry </i>
  <i name="user" type="string">phu </i>
  <i name="host" type="string">node09 </i>
  <i name="date" type="string">2025 09 27 </i>
  <i name="time" type="string">23:32:18 </i>
 </generator>
 <incar>
  <i type="string" name="SYSTEM"> metal</i>
  <i type="int" name="ISTART">     0</i>
  <i type="string" name="PREC">normal</i>
  <i type="string" name="ALGO">Fast</i>
  <i type="int" name="NSIM">     4</i>
  <i type="int" name="ISPIN">     1</i>
  <i type="int" name="NELMIN">     8</i>
  <i type="int" name="IBRION">     1</i>
  <i name="EDIFFG">     -0.05000000</i>
  <i type="int" name="NSW">  5000</i>
  <i type="int" name="ISIF">     2</i>
  <i type="int" name="ISYM">     0</i>
  <i name="ENCUT">    450.00000000</i>
  <i name="POTIM">      0.20000000</i>
  <i type="string" name="LREAL">A</i>
  <i type="int" name="ISMEAR">     1</i>
  <i name="SIGMA">      0.20000000</i>
  <i type="logical" name="LWAVE"> F  </i>
  <i type="logical" name="LCHARG"> F  </i>
  <v type="int" name="KPOINT_BSE">    -1     0     0     0</v>
  <i type="int" name="VOSKOWN">     0</i>
 </incar>
 <structure name="primitive_cell" >
  <crystal>
   <varray name="basis" >
    <v>       7.29695512      -4.21289900       0.00000000 </v>
    <v>       0.00000000       8.42579800       0.00000000 </v>
    <v>       0.00000000       0.00000000      21.87963500 </v>
   </varray>
   <i name="volume">   1345.21837528 </i>
   <varray name="rec_basis" >
    <v>       0.13704346       0.00000000       0.00000000 </v>
    <v>       0.06852173       0.11868312       0.00000000 </v>
    <v>       0.00000000       0.00000000       0.04570460 </v>
   </varray>
  </crystal>
  <varray name="positions" >
   <v>      -0.29756353       0.43669652       0.47163745 </v>
   <v>      -0.32570008       0.46355240      -0.47847402 </v>
   <v>      -0.36084896       0.32205578       0.39127281 </v>
   <v>      -0.09550080       0.38284283       0.46245207 </v>
   <v>      -0.34814452      -0.33843839       0.38776196 </v>
   <v>      -0.00136261      -0.33178375       0.39080889 </v>
   <v>       0.31939332       0.32629857       0.39093237 </v>
   <v>      -0.01023181       0.31711180       0.39540138 </v>
   <v>       0.32231542      -0.00930370       0.38638284 </v>
   <v>      -0.35215770      -0.01031390       0.38700026 </v>
   <v>      -0.23346758      -0.45316630       0.28018155 </v>
   <v>      -0.00960808      -0.01147799       0.38482422 </v>
   <v>       0.43213511       0.21640173       0.28252563 </v>
   <v>      -0.24024916       0.21328348       0.27968972 </v>
   <v>       0.32223953      -0.33681573       0.38570938 </v>
   <v>       0.43151383      -0.44696000       0.28752861 </v>
   <v>       0.09636267      -0.45563402       0.28468232 </v>
   <v>      -0.23687531      -0.11890461       0.28626211 </v>
   <v>       0.09559005      -0.11266977       0.28098254 </v>
   <v>       0.42800960      -0.11370390       0.28202339 </v>
   <v>       0.09821091       0.21486691       0.28602109 </v>
   <v>      -0.45768900       0.43970300       0.17918600 </v>
   <v>      -0.12435600       0.43970300       0.17918600 </v>
   <v>      -0.45768900       0.10636900       0.17918600 </v>
   <v>      -0.12435600      -0.22696400       0.17918600 </v>
   <v>       0.20897700       0.10636900       0.17918600 </v>
   <v>      -0.45768900      -0.22696400       0.17918600 </v>
   <v>      -0.12435600       0.10636900       0.17918600 </v>
   <v>       0.20897700      -0.22696400       0.17918600 </v>
   <v>       0.20897700       0.43970300       0.17918600 </v>
   <v>      -0.34657800       0.32859100       0.07437600 </v>
   <v>      -0.34657800      -0.33807500       0.07437600 </v>
   <v>      -0.01324500      -0.33807500       0.07437600 </v>
   <v>       0.32008800       0.32859100       0.07437600 </v>
   <v>      -0.01324500       0.32859100       0.07437600 </v>
   <v>       0.32008800      -0.00474200       0.07437600 </v>
   <v>      -0.34657800      -0.00474200       0.07437600 </v>
   <v>      -0.01324500      -0.00474200       0.07437600 </v>
   <v>       0.32008800      -0.33807500       0.07437600 </v>
  </varray>
 </structure>
 <varray name="primitive_index" >
  <v type="int" >        1 </v>
  <v type="int" >        3 </v>
  <v type="int" >       36 </v>
  <v type="int" >        2 </v>
  <v type="int" >       39 </v>
  <v type="int" >       37 </v>
  <v type="int" >       33 </v>
  <v type="int" >       38 </v>
  <v type="int" >       35 </v>
  <v type="int" >       32 </v>
  <v type="int" >       30 </v>
  <v type="int" >       34 </v>
  <v type="int" >       26 </v>
  <v type="int" >       24 </v>
  <v type="int" >       31 </v>
  <v type="int" >       29 </v>
  <v type="int" >       22 </v>
  <v type="int" >       28 </v>
  <v type="int" >       27 </v>
  <v type="int" >       23 </v>
  <v type="int" >       25 </v>
  <v type="int" >       17 </v>
  <v type="int" >       18 </v>
  <v type="int" >       14 </v>
  <v type="int" >       21 </v>
  <v type="int" >       13 </v>
  <v type="int" >       20 </v>
  <v type="int" >       15 </v>
  <v type="int" >       19 </v>
  <v type="int" >       16 </v>
  <v type="int" >        6 </v>
  <v type="int" >        9 </v>
  <v type="int" >        7 </v>
  <v type="int" >        5 </v>
  <v type="int" >        4 </v>
  <v type="int" >       10 </v>
  <v type="int" >       11 </v>
  <v type="int" >       12 </v>
  <v type="int" >        8 </v>
 </varray>
 <kpoints>
  <generation param="Gamma">
   <v type="int" name="divisions">       2        2        1 </v>
   <v name="usershift">      0.00000000       0.00000000       0.00000000 </v>
   <v name="genvec1">      0.50000000       0.00000000       0.00000000 </v>
   <v name="genvec2">     -0.00000000       0.50000000       0.00000000 </v>
   <v name="genvec3">      0.00000000       0.00000000       1.00000000 </v>
   <v name="shift">      0.00000000       0.00000000       0.00000000 </v>
  </generation>
  <varray name="kpointlist" >
   <v>       0.00000000       0.00000000       0.00000000 </v>
   <v>       0.50000000       0.00000000       0.00000000 </v>
   <v>      -0.00000000       0.50000000       0.00000000 </v>
   <v>       0.50000000       0.50000000       0.00000000 </v>
  </varray>
  <varray name="weights" >
   <v>       0.25000000 </v>
   <v>       0.25000000 </v>
   <v>       0.25000000 </v>
   <v>       0.25000000 </v>
  </varray>
 </kpoints>
 <parameters>
  <separator name="general" >
   <i type="string" name="SYSTEM">metal</i>
   <i type="logical" name="LCOMPAT"> F  </i>
  </separator>
  <separator name="electronic" >
   <i type="string" name="PREC">normal</i>
   <i name="ENMAX">    450.00000000</i>
   <i name="ENAUG">    644.87300000</i>
   <i name="EDIFF">      0.00010000</i>
   <i type="int" name="IALGO">    68</i>
   <i type="int" name="IWAVPR">    11</i>
   <i type="int" name="NBANDS">   228</i>
   <i name="NELECT">    376.00000000</i>
   <i type="int" name="TURBO">     0</i>
   <i type="int" name="IRESTART">     0</i>
   <i type="int" name="NREBOOT">     0</i>
   <i type="int" name="NMIN">     0</i>
   <i name="EREF">      0.00000000</i>
   <separator name="electronic smearing" >
    <i type="int" name="ISMEAR">     1</i>
    <i name="SIGMA">      0.20000000</i>
    <i name="KSPACING">      0.50000000</i>
    <i type="logical" name="KGAMMA"> T  </i>
   </separator>
   <separator name="electronic projectors" >
    <i type="logical" name="LREAL"> T  </i>
    <v name="ROPT">     -0.00050000     -0.00050000     -0.00050000</v>
    <i type="int" name="LMAXPAW">  -100</i>
    <i type="int" name="LMAXMIX">     2</i>
    <i type="logical" name="NLSPLINE"> F  </i>
   </separator>
   <separator name="electronic startup" >
    <i type="int" name="ISTART">     0</i>
    <i type="int" name="ICHARG">     2</i>
    <i type="int" name="INIWAV">     1</i>
   </separator>
   <separator name="electronic spin" >
    <i type="int" name="ISPIN">     1</i>
    <i type="logical" name="LNONCOLLINEAR"> F  </i>
    <v name="MAGMOM">      1.00000000      1.00000000      1.00000000      1.00000000      1.00000000      1.00000000      1.00000000      1.00000000      1.00000000      1.00000000      1.00000000      1.00000000      1.00000000      1.00000000      1.00000000      1.00000000      1.00000000      1.00000000      1.00000000      1.00000000
      1.00000000      1.00000000      1.00000000      1.00000000      1.00000000      1.00000000      1.00000000      1.00000000      1.00000000      1.00000000      1.00000000      1.00000000      1.00000000      1.00000000      1.00000000      1.00000000      1.00000000      1.00000000      1.00000000</v>
    <i name="NUPDOWN">     -1.00000000</i>
    <i type="logical" name="LSORBIT"> F  </i>
    <v name="SAXIS">      0.00000000      0.00000000      1.00000000</v>
    <i type="logical" name="LSPIRAL"> F  </i>
    <v name="QSPIRAL">      0.00000000      0.00000000      0.00000000</v>
    <i type="logical" name="LZEROZ"> F  </i>
   </separator>
   <separator name="electronic exchange-correlation" >
    <i type="logical" name="LASPH"> F  </i>
    <i type="logical" name="LMETAGGA"> F  </i>
   </separator>
   <separator name="electronic convergence" >
    <i type="int" name="NELM">    60</i>
    <i type="int" name="NELMDL">    -5</i>
    <i type="int" name="NELMIN">     8</i>
    <i name="ENINI">    450.00000000</i>
    <separator name="electronic convergence detail" >
     <i type="logical" name="LDIAG"> T  </i>
     <i type="logical" name="LSUBROT"> F  </i>
     <i name="WEIMIN">      0.00100000</i>
     <i name="EBREAK">      0.00000011</i>
     <i name="DEPER">      0.30000000</i>
     <i type="int" name="NRMM">     4</i>
     <i name="TIME">      0.40000000</i>
    </separator>
   </separator>
   <separator name="electronic mixer" >
    <i name="AMIX">      0.40000000</i>
    <i name="BMIX">      1.00000000</i>
    <i name="AMIN">      0.10000000</i>
    <i name="AMIX_MAG">      1.60000000</i>
    <i name="BMIX_MAG">      1.00000000</i>
    <separator name="electronic mixer details" >
     <i type="int" name="IMIX">     4</i>
     <i type="logical" name="MIXFIRST"> F  </i>
     <i type="int" name="MAXMIX">   -45</i>
     <i name="WC">    100.00000000</i>
     <i type="int" name="INIMIX">     1</i>
     <i type="int" name="MIXPRE">     1</i>
     <i type="int" name="MREMOVE">     5</i>
    </separator>
   </separator>
   <separator name="electronic dipolcorrection" >
    <i type="logical" name="LDIPOL"> F  </i>
    <i type="logical" name="LMONO"> F  </i>
    <i type="int" name="IDIPOL">     0</i>
    <i name="EPSILON">      1.00000000</i>
    <v name="DIPOL">   -100.00000000   -100.00000000   -100.00000000</v>
    <i name="EFIELD">      0.00000000</i>
   </separator>
  </separator>
  <separator name="grids" >
   <i type="int" name="NGX">    48</i>
   <i type="int" name="NGY">    48</i>
   <i type="int" name="NGZ">   120</i>
   <i type="int" name="NGXF">    96</i>
   <i type="int" name="NGYF">    96</i>
   <i type="int" name="NGZF">   240</i>
   <i type="logical" name="ADDGRID"> F  </i>
  </separator>
  <separator name="ionic" >
   <i type="int" name="NSW">  5000</i>
   <i type="int" name="IBRION">     1</i>
   <i type="int" name="MDALGO">     0</i>
   <i type="int" name="ISIF">     2</i>
   <i name="PSTRESS">      0.00000000</i>
   <i name="EDIFFG">     -0.05000000</i>
   <i type="int" name="NFREE">     0</i>
   <i name="POTIM">      0.20000000</i>
   <i name="SMASS">     -3.00000000</i>
   <i name="SCALEE">      1.00000000</i>
  </separator>
  <separator name="ionic md" >
   <i name="TEBEG">      0.00010000</i>
   <i name="TEEND">      0.00010000</i>
   <i type="int" name="NBLOCK">     1</i>
   <i type="int" name="KBLOCK">  5000</i>
   <i type="int" name="NPACO">   256</i>
   <i name="APACO">     16.00000000</i>
  </separator>
  <separator name="symmetry" >
   <i type="int" name="ISYM">     0</i>
   <i name="SYMPREC">      0.00001000</i>
  </separator>
  <separator name="dos" >
   <i type="int" name="LORBIT">     0</i>
   <v name="RWIGS">     -1.00000000     -1.00000000     -1.00000000</v>
   <i type="int" name="NEDOS">   301</i>
   <i name="EMIN">     10.00000000</i>
   <i name="EMAX">    -10.00000000</i>
   <i name="EFERMI">      0.00000000</i>
  </separator>
  <separator name="writing" >
   <i type="int" name="NWRITE">     2</i>
   <i type="logical" name="LWAVE"> F  </i>
   <i type="logical" name="LDOWNSAMPLE"> F  </i>
   <i type="logical" name="LCHARG"> F  </i>
   <i type="logical" name="LPARD"> F  </i>
   <i type="logical" name="LVTOT"> F  </i>
   <i type="logical" name="LVHAR"> F  </i>
   <i type="logical" name="LELF"> F  </i>
   <i type="logical" name="LOPTICS"> F  </i>
   <v name="STM">      0.00000000      0.00000000      0.00000000      0.00000000      0.00000000      0.00000000      0.00000000</v>
  </separator>
  <separator name="performance" >
   <i type="int" name="NPAR">     4</i>
   <i type="int" name="NSIM">     4</i>
   <i type="int" name="NBLK">    -1</i>
   <i type="logical" name="LPLANE"> T  </i>
   <i type="logical" name="LSCALAPACK"> T  </i>
   <i type="logical" name="LSCAAWARE"> F  </i>
   <i type="logical" name="LSCALU"> F  </i>
   <i type="logical" name="LASYNC"> F  </i>
   <i type="logical" name="LORBITALREAL"> F  </i>
  </separator>
  <separator name="miscellaneous" >
   <i type="int" name="IDIOT">     3</i>
   <i type="int" name="ISPECIAL">     0</i>
   <i type="logical" name="LMUSIC"> F  </i>
   <v name="POMASS">     12.01100000     16.00000000    195.08000000</v>
   <v name="DARWINR">      0.00000000      0.00000000      0.00000000</v>
   <v name="DARWINV">      1.00000000      1.00000000      1.00000000</v>
   <i type="logical" name="LCORR"> T  </i>
  </separator>
  <i type="logical" name="GGA_COMPAT"> T  </i>
  <i type="logical" name="LBERRY"> F  </i>
  <i type="int" name="ICORELEVEL">     0</i>
  <i type="logical" name="LDAU"> F  </i>
  <i type="int" name="I_CONSTRAINED_M">     0</i>
  <separator name="electronic exchange-correlation" >
   <i type="string" name="GGA">--</i>
   <i type="int" name="VOSKOWN">     0</i>
   <i type="logical" name="LHFCALC"> F  </i>
   <i type="string" name="PRECFOCK"></i>
   <i type="logical" name="LSYMGRAD"> F  </i>
   <i type="logical" name="LHFONE"> F  </i>
   <i type="logical" name="LRHFCALC"> F  </i>
   <i type="logical" name="LTHOMAS"> F  </i>
   <i type="logical" name="LMODELHF"> F  </i>
   <i name="ENCUT4O">     -1.00000000</i>
   <i type="int" name="EXXOEP">     0</i>
   <i type="int" name="FOURORBIT">     0</i>
   <i name="AEXX">      0.00000000</i>
   <i name="HFALPHA">      0.00000000</i>
   <i name="MCALPHA">      0.00000000</i>
   <i name="ALDAX">      1.00000000</i>
   <i name="AGGAX">      1.00000000</i>
   <i name="ALDAC">      1.00000000</i>
   <i name="AGGAC">      1.00000000</i>
   <i type="int" name="NKREDX">     1</i>
   <i type="int" name="NKREDY">     1</i>
   <i type="int" name="NKREDZ">     1</i>
   <i type="logical" name="SHIFTRED"> F  </i>
   <i type="logical" name="ODDONLY"> F  </i>
   <i type="logical" name="EVENONLY"> F  </i>
   <i type="int" name="LMAXFOCK">     0</i>
   <i type="int" name="NMAXFOCKAE">     0</i>
   <i type="logical" name="LFOCKAEDFT"> F  </i>
   <i name="HFSCREEN">      0.00000000</i>
   <i name="HFSCREENC">      0.00000000</i>
   <i type="int" name="NBANDSGWLOW">     0</i>
  </separator>
  <separator name="vdW DFT" >
   <i type="logical" name="LUSE_VDW"> F  </i>
   <i name="Zab_VDW">     -0.84910000</i>
   <i name="PARAM1">      0.12340000</i>
   <i name="PARAM2">      1.00000000</i>
   <i name="PARAM3">      0.00000000</i>
  </separator>
  <separator name="model GW" >
   <i type="int" name="MODEL_GW">     0</i>
   <i name="MODEL_EPS0">     20.69566731</i>
   <i name="MODEL_ALPHA">      1.00000000</i>
  </separator>
  <separator name="linear response parameters" >
   <i type="logical" name="LEPSILON"> F  </i>
   <i type="logical" name="LRPA"> F  </i>
   <i type="logical" name="LNABLA"> F  </i>
   <i type="logical" name="LVEL"> F  </i>
   <i type="int" name="KINTER">     0</i>
   <i name="CSHIFT">      0.10000000</i>
   <i name="OMEGAMAX">     -1.00000000</i>
   <i name="DEG_THRESHOLD">      0.00200000</i>
   <i name="RTIME">     -0.10000000</i>
   <i name="WPLASMAI">      0.00000000</i>
   <v name="DFIELD">      0.00000000      0.00000000      0.00000000</v>
   <v name="WPLASMA">      0.00000000      0.00000000      0.00000000      0.00000000      0.00000000      0.00000000      0.00000000      0.00000000      0.00000000</v>
  </separator>
  <separator name="orbital magnetization" >
   <i type="logical" name="NUCIND"> F  </i>
   <v name="MAGPOS">      0.00000000      0.00000000      0.00000000</v>
   <i type="logical" name="LNICSALL"> T  </i>
   <i type="logical" name="ORBITALMAG"> F  </i>
   <i type="logical" name="LMAGBLOCH"> F  </i>
   <i type="logical" name="LCHIMAG"> F  </i>
   <i type="logical" name="LGAUGE"> T  </i>
   <i type="int" name="MAGATOM">     0</i>
   <v name="MAGDIPOL">      0.00000000      0.00000000      0.00000000</v>
   <v name="AVECCONST">      0.00000000      0.00000000      0.00000000</v>
  </separator>
  <separator name="response functions" >
   <i type="logical" name="LADDER"> F  </i>
   <i type="logical" name="LRPAFORCE"> F  </i>
   <i type="logical" name="LFXC"> F  </i>
   <i type="logical" name="LHARTREE"> T  </i>
   <i type="int" name="IBSE">     0</i>
   <v type="int" name="KPOINT">    -1     0     0     0</v>
   <i type="logical" name="LTCTE"> F  </i>
   <i type="logical" name="LTETE"> F  </i>
   <i type="logical" name="LTRIPLET"> F  </i>
   <i type="logical" name="LFXCEPS"> F  </i>
   <i type="logical" name="LFXHEG"> F  </i>
   <i type="int" name="NATURALO">     2</i>
   <i type="logical" name="L2ORDER"> F  </i>
   <i type="logical" name="LMP2LT"> F  </i>
   <i type="logical" name="LUSEW"> F  </i>
   <i name="ENCUTGW">     -2.00000000</i>
   <i name="ENCUTGWSOFT">     -2.00000000</i>
   <i name="ENCUTLF">     -1.00000000</i>
   <i type="int" name="LMAXMP2">    -1</i>
   <i name="SCISSOR">      0.00000000</i>
   <i type="int" name="NOMEGA">     0</i>
   <i type="int" name="NOMEGAR">     0</i>
   <i type="int" name="NBANDSGW">    -1</i>
   <i type="int" name="NBANDSO">    -1</i>
   <i type="int" name="NBANDSV">    -1</i>
   <i type="int" name="NELM">     1</i>
   <i type="int" name="NELMHF">     1</i>
   <i type="int" name="DIM">     3</i>
   <i type="int" name="ANTIRES">     0</i>
   <i name="OMEGAMAX">    -30.00000000</i>
   <i name="OMEGAMIN">    -30.00000000</i>
   <i name="OMEGATL">   -200.00000000</i>
   <i type="int" name="OMEGAGRID">   140</i>
   <i name="CSHIFT">     -0.10000000</i>
   <i type="logical" name="SELFENERGY"> F  </i>
   <i type="logical" name="LSPECTRAL"> F  </i>
   <i type="logical" name="LSPECTRALGW"> F  </i>
   <i type="logical" name="LSINGLES"> F  </i>
   <i type="logical" name="LFERMIGW"> F  </i>
   <i type="logical" name="ODDONLYGW"> F  </i>
   <i type="logical" name="EVENONLYGW"> F  </i>
   <i type="int" name="NKREDLFX">     1</i>
   <i type="int" name="NKREDLFY">     1</i>
   <i type="int" name="NKREDLFZ">     1</i>
   <i type="int" name="MAXMEM">  2800</i>
   <i type="int" name="TELESCOPE">     0</i>
   <i type="int" name="TAUPAR">     1</i>
   <i type="int" name="OMEGAPAR">    -1</i>
   <i name="LAMBDA">      1.00000000</i>
  </separator>
  <separator name="External order field" >
   <i name="OFIELD_KAPPA">      0.00000000</i>
   <v name="OFIELD_K">      0.00000000      0.00000000      0.00000000</v>
   <i name="OFIELD_Q6_NEAR">      0.00000000</i>
   <i name="OFIELD_Q6_FAR">      0.00000000</i>
   <i name="OFIELD_A">      0.00000000</i>
  </separator>
  <separator name="solvation model" >
   <i type="logical" name="LSOL"> F  </i>
  </separator>
 </parameters>
 <atominfo>
  <atoms>      39 </atoms>
  <types>       3 </types>
  <array name="atoms" >
   <dimension dim="1">ion</dimension>
   <field type="string">element</field>
   <field type="int">atomtype</field>
   <set>
    <rc><c>C </c><c>   1</c></rc>
    <rc><c>O </c><c>   2</c></rc>
    <rc><c>O </c><c>   2</c></rc>
    <rc><c>Pt</c><c>   3</c></rc>
    <rc><c>Pt</c><c>   3</c></rc>
    <rc><c>Pt</c><c>   3</c></rc>
    <rc><c>Pt</c><c>   3</c></rc>
    <rc><c>Pt</c><c>   3</c></rc>
    <rc><c>Pt</c><c>   3</c></rc>
    <rc><c>Pt</c><c>   3</c></rc>
    <rc><c>Pt</c><c>   3</c></rc>
    <rc><c>Pt</c><c>   3</c></rc>
    <rc><c>Pt</c><c>   3</c></rc>
    <rc><c>Pt</c><c>   3</c></rc>
    <rc><c>Pt</c><c>   3</c></rc>
    <rc><c>Pt</c><c>   3</c></rc>
    <rc><c>Pt</c><c>   3</c></rc>
    <rc><c>Pt</c><c>   3</c></rc>
    <rc><c>Pt</c><c>   3</c></rc>
    <rc><c>Pt</c><c>   3</c></rc>
    <rc><c>Pt</c><c>   3</c></rc>
    <rc><c>Pt</c><c>   3</c></rc>
    <rc><c>Pt</c><c>   3</c></rc>
    <rc><c>Pt</c><c>   3</c></rc>
    <rc><c>Pt</c><c>   3</c></rc>
    <rc><c>Pt</c><c>   3</c></rc>
    <rc><c>Pt</c><c>   3</c></rc>
    <rc><c>Pt</c><c>   3</c></rc>
    <rc><c>Pt</c><c>   3</c></rc>
    <rc><c>Pt</c><c>   3</c></rc>
    <rc><c>Pt</c><c>   3</c></rc>
    <rc><c>Pt</c><c>   3</c></rc>
    <rc><c>Pt</c><c>   3</c></rc>
    <rc><c>Pt</c><c>   3</c></rc>
    <rc><c>Pt</c><c>   3</c></rc>
    <rc><c>Pt</c><c>   3</c></rc>
    <rc><c>Pt</c><c>   3</c></rc>
    <rc><c>Pt</c><c>   3</c></rc>
    <rc><c>Pt</c><c>   3</c></rc>
   </set>
  </array>
  <array name="atomtypes" >
   <dimension dim="1">type</dimension>
   <field type="int">atomspertype</field>
   <field type="string">element</field>
   <field>mass</field>
   <field>valence</field>
   <field type="string">pseudopotential</field>
   <set>
    <rc><c>   1</c><c>C </c><c>     12.01100000</c><c>      4.00000000</c><c> PAW_PBE C 08Apr2002                    </c></rc>
    <rc><c>   2</c><c>O </c><c>     16.00000000</c><c>      6.00000000</c><c> PAW_PBE O 08Apr2002                    </c></rc>
    <rc><c>  36</c><c>Pt</c><c>    195.08000000</c><c>     10.00000000</c><c>  PAW_PBE Pt 04Feb2005                  </c></rc>
   </set>
  </array>
 </atominfo>
 <structure name="initialpos" >
  <crystal>
   <varray name="basis" >
    <v>       7.29695512      -4.21289900       0.00000000 </v>
    <v>       0.00000000       8.42579800       0.00000000 </v>
    <v>       0.00000000       0.00000000      21.87963500 </v>
   </varray>
   <i name="volume">   1345.21837528 </i>
   <varray name="rec_basis" >
    <v>       0.13704346       0.00000000       0.00000000 </v>
    <v>       0.06852173       0.11868312       0.00000000 </v>
    <v>       0.00000000       0.00000000       0.04570460 </v>
   </varray>
  </crystal>
  <varray name="positions" >
   <v>       0.70243647       0.43669652       0.47163745 </v>
   <v>       0.90449920       0.38284283       0.46245207 </v>
   <v>       0.67429992       0.46355240       0.52152598 </v>
   <v>       0.98675500       0.32859100       0.07437600 </v>
   <v>       0.32008800       0.32859100       0.07437600 </v>
   <v>       0.65342200       0.32859100       0.07437600 </v>
   <v>       0.98675500       0.66192500       0.07437600 </v>
   <v>       0.32008800       0.66192500       0.07437600 </v>
   <v>       0.65342200       0.66192500       0.07437600 </v>
   <v>       0.32008800       0.99525800       0.07437600 </v>
   <v>       0.65342200       0.99525800       0.07437600 </v>
   <v>       0.98675500       0.99525800       0.07437600 </v>
   <v>       0.20897700       0.10636900       0.17918600 </v>
   <v>       0.54231100       0.10636900       0.17918600 </v>
   <v>       0.87564400       0.10636900       0.17918600 </v>
   <v>       0.20897700       0.43970300       0.17918600 </v>
   <v>       0.54231100       0.43970300       0.17918600 </v>
   <v>       0.87564400       0.43970300       0.17918600 </v>
   <v>       0.20897700       0.77303600       0.17918600 </v>
   <v>       0.54231100       0.77303600       0.17918600 </v>
   <v>       0.87564400       0.77303600       0.17918600 </v>
   <v>       0.09636267       0.54436598       0.28468232 </v>
   <v>       0.42800960       0.88629610       0.28202339 </v>
   <v>       0.75975084       0.21328348       0.27968972 </v>
   <v>       0.09821091       0.21486691       0.28602109 </v>
   <v>       0.43213511       0.21640173       0.28252563 </v>
   <v>       0.09559005       0.88733023       0.28098254 </v>
   <v>       0.76312469       0.88109539       0.28626211 </v>
   <v>       0.43151383       0.55304000       0.28752861 </v>
   <v>       0.76653242       0.54683370       0.28018155 </v>
   <v>       0.32223953       0.66318427       0.38570938 </v>
   <v>       0.64784230       0.98968610       0.38700026 </v>
   <v>       0.31939332       0.32629857       0.39093237 </v>
   <v>       0.99039192       0.98852201       0.38482422 </v>
   <v>       0.32231542       0.99069630       0.38638284 </v>
   <v>       0.63915104       0.32205578       0.39127281 </v>
   <v>       0.99863739       0.66821625       0.39080889 </v>
   <v>       0.98976819       0.31711180       0.39540138 </v>
   <v>       0.65185548       0.66156161       0.38776196 </v>
  </varray>
  <varray name="selective"  type="logical" >
   <v type="logical" >  T  T  T </v>
   <v type="logical" >  T  T  T </v>
   <v type="logical" >  T  T  T </v>
   <v type="logical" >  F  F  F </v>
   <v type="logical" >  F  F  F </v>
   <v type="logical" >  F  F  F </v>
   <v type="logical" >  F  F  F </v>
   <v type="logical" >  F  F  F </v>
   <v type="logical" >  F  F  F </v>
   <v type="logical" >  F  F  F </v>
   <v type="logical" >  F  F  F </v>
   <v type="logical" >  F  F  F </v>
   <v type="logical" >  F  F  F </v>
   <v type="logical" >  F  F  F </v>
   <v type="logical" >  F  F  F </v>
   <v type="logical" >  F  F  F </v>
   <v type="logical" >  F  F  F </v>
   <v type="logical" >  F  F  F </v>
   <v type="logical" >  F  F  F </v>
   <v type="logical" >  F  F  F </v>
   <v type="logical" >  F  F  F </v>
   <v type="logical" >  T  T  T </v>
   <v type="logical" >  T  T  T </v>
   <v type="logical" >  T  T  T </v>
   <v type="logical" >  T  T  T </v>
   <v type="logical" >  T  T  T </v>
   <v type="logical" >  T  T  T </v>
   <v type="logical" >  T  T  T </v>
   <v type="logical" >  T  T  T </v>
   <v type="logical" >  T  T  T </v>
   <v type="logical" >  T  T  T </v>
   <v type="logical" >  T  T  T </v>
   <v type="logical" >  T  T  T </v>
   <v type="logical" >  T  T  T </v>
   <v type="logical" >  T  T  T </v>
   <v type="logical" >  T  T  T </v>
   <v type="logical" >  T  T  T </v>
   <v type="logical" >  T  T  T </v>
   <v type="logical" >  T  T  T </v>
  </varray>
  <nose>
   <v>      -3.00000000       0.00000000       0.00010000       0.00010000 </v>
  </nose>
 </structure>
 <calculation>
  <scstep>
   <time name="dav">    8.06    8.12</time>
   <time name="total">    8.27    8.69</time>
   <energy>
    <i name="alphaZ">    975.10247152 </i>
    <i name="ewald">  91508.41650172 </i>
    <i name="hartreedc">-120594.86095925 </i>
    <i name="XCdc">    189.96825385 </i>
    <i name="pawpsdc">  24789.08602224 </i>
    <i name="pawaedc"> -23775.73976456 </i>
    <i name="eentropy">      0.01342812 </i>
    <i name="bandstr">   2073.02905270 </i>
    <i name="atom">  27259.89416086 </i>
    <i name="e_fr_energy">   2424.90916720 </i>
    <i name="e_wo_entrp">   2424.89573908 </i>
    <i name="e_0_energy">   2424.90469116 </i>
   </energy>
  </scstep>
  <scstep>
   <time name="dav">    8.13    8.19</time>
   <time name="total">    8.13    8.19</time>
   <energy>
    <i name="e_fr_energy">    -60.61363405 </i>
    <i name="e_wo_entrp">    -60.59340288 </i>
    <i name="e_0_energy">    -60.60689033 </i>
   </energy>
  </scstep>
  <scstep>
   <time name="dav">   10.88   10.95</time>
   <time name="total">   10.88   10.95</time>
   <energy>
    <i name="e_fr_energy">   -240.12321081 </i>
    <i name="e_wo_entrp">   -240.11573593 </i>
    <i name="e_0_energy">   -240.12071918 </i>
   </energy>
  </scstep>
  <scstep>
   <time name="dav">   12.05   12.13</time>
   <time name="total">   12.05   12.13</time>
   <energy>
    <i name="e_fr_energy">   -247.95647935 </i>
    <i name="e_wo_entrp">   -247.95646786 </i>
    <i name="e_0_energy">   -247.95647552 </i>
   </energy>
  </scstep>
  <scstep>
   <time name="dav">   10.75   10.82</time>
   <time name="total">   11.24   11.32</time>
   <energy>
    <i name="e_fr_energy">   -248.18362955 </i>
    <i name="e_wo_entrp">   -248.18384786 </i>
    <i name="e_0_energy">   -248.18370232 </i>
   </energy>
  </scstep>
  <scstep>
   <time name="diag">    1.19    1.24</time>
   <time name="diis">    4.38    4.41</time>
   <time name="orth">    0.21    0.22</time>
   <time name="total">    6.29    6.42</time>
   <energy>
    <i name="e_fr_energy">   -244.55529041 </i>
    <i name="e_wo_entrp">   -244.42022765 </i>
    <i name="e_0_energy">   -244.51026949 </i>
   </energy>
  </scstep>
  <scstep>
   <time name="diag">    1.08    1.09</time>
   <time name="diis">    4.25    4.28</time>
   <time name="orth">    0.23    0.23</time>
   <time name="total">    6.13    6.17</time>
   <energy>
    <i name="e_fr_energy">   -245.56943917 </i>
    <i name="e_wo_entrp">   -245.45263563 </i>
    <i name="e_0_energy">   -245.53050465 </i>
   </energy>
  </scstep>
  <scstep>
   <time name="diag">    1.16    1.16</time>
   <time name="diis">    4.65    4.68</time>
   <time name="orth">    0.24    0.24</time>
   <time name="total">    6.53    6.57</time>
   <energy>
    <i name="e_fr_energy">   -243.26492542 </i>
    <i name="e_wo_entrp">   -243.20605735 </i>
    <i name="e_0_energy">   -243.24530273 </i>
   </energy>
  </scstep>
  <scstep>
   <time name="diag">    1.84    1.85</time>
   <time name="diis">    4.71    4.74</time>
   <time name="orth">    0.22    0.22</time>
   <time name="total">    7.37    7.42</time>
   <energy>
    <i name="e_fr_energy">   -231.68189224 </i>
    <i name="e_wo_entrp">   -231.58000620 </i>
    <i name="e_0_energy">   -231.64793023 </i>
   </energy>
  </scstep>
  <scstep>
   <time name="diag">    1.40    1.41</time>
   <time name="diis">    4.98    5.01</time>
   <time name="orth">    0.22    0.22</time>
   <time name="total">    7.22    7.26</time>
   <energy>
    <i name="e_fr_energy">   -230.62148997 </i>
    <i name="e_wo_entrp">   -230.63380110 </i>
    <i name="e_0_energy">   -230.62559368 </i>
   </energy>
  </scstep>
  <scstep>
   <time name="diag">    1.31    1.32</time>
   <time name="diis">    4.24    4.27</time>
   <time name="orth">    0.21    0.21</time>
   <time name="total">    6.25    6.29</time>
   <energy>
    <i name="e_fr_energy">   -230.31524710 </i>
    <i name="e_wo_entrp">   -230.26648210 </i>
    <i name="e_0_energy">   -230.29899210 </i>
   </energy>
  </scstep>
  <scstep>
   <time name="diag">    1.50    1.51</time>
   <time name="diis">    4.66    4.69</time>
   <time name="orth">    0.21    0.21</time>
   <time name="total">    6.86    6.91</time>
   <energy>
    <i name="e_fr_energy">   -230.15849263 </i>
    <i name="e_wo_entrp">   -230.12532877 </i>
    <i name="e_0_energy">   -230.14743801 </i>
   </energy>
  </scstep>
  <scstep>
   <time name="diag">    1.13    1.13</time>
   <time name="diis">    3.90    3.93</time>
   <time name="orth">    0.21    0.21</time>
   <time name="total">    5.79    5.82</time>
   <energy>
    <i name="e_fr_energy">   -230.16946840 </i>
    <i name="e_wo_entrp">   -230.13435229 </i>
    <i name="e_0_energy">   -230.15776303 </i>
   </energy>
  </scstep>
  <scstep>
   <time name="diag">    1.16    1.17</time>
   <time name="diis">    4.64    4.67</time>
   <time name="orth">    0.22    0.22</time>
   <time name="total">    6.59    6.64</time>
   <energy>
    <i name="e_fr_energy">   -230.12437235 </i>
    <i name="e_wo_entrp">   -230.09447723 </i>
    <i name="e_0_energy">   -230.11440731 </i>
   </energy>
  </scstep>
  <scstep>
   <time name="diag">    1.31    1.32</time>
   <time name="diis">    4.36    4.39</time>
   <time name="orth">    0.25    0.25</time>
   <time name="total">    6.61    6.66</time>
   <energy>
    <i name="e_fr_energy">   -230.11950661 </i>
    <i name="e_wo_entrp">   -230.09070301 </i>
    <i name="e_0_energy">   -230.10990541 </i>
   </energy>
  </scstep>
  <scstep>
   <time name="diag">    1.71    1.72</time>
   <time name="diis">    5.27    5.31</time>
   <time name="orth">    0.24    0.25</time>
   <time name="total">    7.90    7.95</time>
   <energy>
    <i name="e_fr_energy">   -230.11390537 </i>
    <i name="e_wo_entrp">   -230.08504308 </i>
    <i name="e_0_energy">   -230.10428461 </i>
   </energy>
  </scstep>
  <scstep>
   <time name="diag">    1.42    1.43</time>
   <time name="diis">    4.65    4.68</time>
   <time name="orth">    0.21    0.22</time>
   <time name="total">    6.81    6.86</time>
   <energy>
    <i name="e_fr_energy">   -230.11308972 </i>
    <i name="e_wo_entrp">   -230.08324855 </i>
    <i name="e_0_energy">   -230.10314266 </i>
   </energy>
  </scstep>
  <scstep>
   <time name="diag">    1.22    1.22</time>
   <time name="diis">    3.80    3.83</time>
   <time name="orth">    0.21    0.21</time>
   <time name="total">    5.73    5.77</time>
   <energy>
    <i name="e_fr_energy">   -230.11325434 </i>
    <i name="e_wo_entrp">   -230.08337491 </i>
    <i name="e_0_energy">   -230.10329453 </i>
   </energy>
  </scstep>
  <scstep>
   <time name="diag">    1.03    1.03</time>
   <time name="diis">    2.84    2.86</time>
   <time name="orth">    0.21    0.21</time>
   <time name="total">    4.24    4.27</time>
   <energy>
    <i name="alphaZ">    975.10247152 </i>
    <i name="ewald">  91508.41650172 </i>
    <i name="hartreedc">-120215.25218535 </i>
    <i name="XCdc">    178.58647233 </i>
    <i name="pawpsdc">  30176.84674725 </i>
    <i name="pawaedc"> -29263.16530286 </i>
    <i name="eentropy">     -0.03030357 </i>
    <i name="bandstr">   -850.51182098 </i>
    <i name="atom">  27259.89416086 </i>
    <i name="e_fr_energy">   -230.11325908 </i>
    <i name="e_wo_entrp">   -230.08295551 </i>
    <i name="e_0_energy">   -230.10315789 </i>
   </energy>
  </scstep>
  <structure>
   <crystal>
    <varray name="basis" >
     <v>       7.29695512      -4.21289900       0.00000000 </v>
     <v>       0.00000000       8.42579800       0.00000000 </v>
     <v>       0.00000000       0.00000000      21.87963500 </v>
    </varray>
    <i name="volume">   1345.21837528 </i>
    <varray name="rec_basis" >
     <v>       0.13704346       0.00000000       0.00000000 </v>
     <v>       0.06852173       0.11868312       0.00000000 </v>
     <v>       0.00000000       0.00000000       0.04570460 </v>
    </varray>
   </crystal>
   <varray name="positions" >
    <v>       0.70243647       0.43669652       0.47163745 </v>
    <v>       0.90449920       0.38284283       0.46245207 </v>
    <v>       0.67429992       0.46355240       0.52152598 </v>
    <v>       0.98675500       0.32859100       0.07437600 </v>
    <v>       0.32008800       0.32859100       0.07437600 </v>
    <v>       0.65342200       0.32859100       0.07437600 </v>
    <v>       0.98675500       0.66192500       0.07437600 </v>
    <v>       0.32008800       0.66192500       0.07437600 </v>
    <v>       0.65342200       0.66192500       0.07437600 </v>
    <v>       0.32008800       0.99525800       0.07437600 </v>
    <v>       0.65342200       0.99525800       0.07437600 </v>
    <v>       0.98675500       0.99525800       0.07437600 </v>
    <v>       0.20897700       0.10636900       0.17918600 </v>
    <v>       0.54231100       0.10636900       0.17918600 </v>
    <v>       0.87564400       0.10636900       0.17918600 </v>
    <v>       0.20897700       0.43970300       0.17918600 </v>
    <v>       0.54231100       0.43970300       0.17918600 </v>
    <v>       0.87564400       0.43970300       0.17918600 </v>
    <v>       0.20897700       0.77303600       0.17918600 </v>
    <v>       0.54231100       0.77303600       0.17918600 </v>
    <v>       0.87564400       0.77303600       0.17918600 </v>
    <v>       0.09636267       0.54436598       0.28468232 </v>
    <v>       0.42800960       0.88629610       0.28202339 </v>
    <v>       0.75975084       0.21328348       0.27968972 </v>
    <v>       0.09821091       0.21486691       0.28602109 </v>
    <v>       0.43213511       0.21640173       0.28252563 </v>
    <v>       0.09559005       0.88733023       0.28098254 </v>
    <v>       0.76312469       0.88109539       0.28626211 </v>
    <v>       0.43151383       0.55304000       0.28752861 </v>
    <v>       0.76653242       0.54683370       0.28018155 </v>
    <v>       0.32223953       0.66318427       0.38570938 </v>
    <v>       0.64784230       0.98968610       0.38700026 </v>
    <v>       0.31939332       0.32629857       0.39093237 </v>
    <v>       0.99039192       0.98852201       0.38482422 </v>
    <v>       0.32231542       0.99069630       0.38638284 </v>
    <v>       0.63915104       0.32205578       0.39127281 </v>
    <v>       0.99863739       0.66821625       0.39080889 </v>
    <v>       0.98976819       0.31711180       0.39540138 </v>
    <v>       0.65185548       0.66156161       0.38776196 </v>
   </varray>
  </structure>
  <varray name="forces" >
   <v>      -0.74489641      -0.65520393      -0.71708640 </v>
   <v>       0.30855190       0.88047142       1.90840795 </v>
   <v>       0.41072825       0.10130434       0.15887647 </v>
   <v>      -0.00380313      -0.00481554       0.09214240 </v>
   <v>      -0.00013830      -0.04536709       0.23186782 </v>
   <v>      -0.02050039      -0.04752434       0.03608768 </v>
   <v>       0.02871125       0.00184614       0.13138831 </v>
   <v>      -0.00551194       0.01913736       0.10731651 </v>
   <v>       0.00745008      -0.01062737       0.17394572 </v>
   <v>       0.08031139      -0.04458522       0.04947704 </v>
   <v>      -0.00441057       0.03684090       0.08468953 </v>
   <v>      -0.01713623       0.03791419       0.12861625 </v>
   <v>      -0.03156091       0.15842686      -0.28800542 </v>
   <v>      -0.16720598       0.04989091      -0.56766938 </v>
   <v>       0.19788302      -0.28429392      -0.06617575 </v>
   <v>       0.06489840      -0.08293842       0.30653175 </v>
   <v>      -0.22661380       0.19742284      -0.02409779 </v>
   <v>       0.21529388      -0.05396844      -0.32466454 </v>
   <v>      -0.12358189      -0.06815602      -0.13532478 </v>
   <v>       0.03290531      -0.07456987       0.22130613 </v>
   <v>      -0.07561400       0.24791769      -0.28945475 </v>
   <v>      -0.11174912       0.18238214      -0.14488041 </v>
   <v>       0.03105384      -0.47954509      -0.20785740 </v>
   <v>       0.39203910      -0.01713901       1.07638086 </v>
   <v>      -0.19334895       0.80065338      -0.32149364 </v>
   <v>       0.05539016       0.33728595       0.23809010 </v>
   <v>       0.06466143      -0.93247315       0.27192444 </v>
   <v>      -0.12844128       0.15610770      -1.00373837 </v>
   <v>      -0.10366435      -0.48474941      -1.15813260 </v>
   <v>      -0.04943994       0.27483640       0.82432204 </v>
   <v>      -0.02221208       0.01579997       0.52415523 </v>
   <v>       0.22795129       0.10327254      -0.08176238 </v>
   <v>      -0.19822965      -0.14141825      -0.30827421 </v>
   <v>      -0.07985533       0.14752457       0.85291505 </v>
   <v>      -0.26478320       0.22030267       0.22821852 </v>
   <v>      -0.09104997       0.51806648      -0.03905168 </v>
   <v>      -0.39574052       0.16221988      -0.62226793 </v>
   <v>       0.55682050      -1.08518637      -1.54419297 </v>
   <v>       0.38483816      -0.13706290       0.19747060 </v>
  </varray>
  <varray name="stress" >
   <v>     -40.54198273      -0.20691556       0.70823709 </v>
   <v>      -0.20691572     -43.25017054       1.25906636 </v>
   <v>       0.70823702       1.25906638       0.53051289 </v>
  </varray>
  <energy>
   <i name="e_fr_energy">   -230.11325908 </i>
   <i name="e_wo_entrp">   -230.10315789 </i>
   <i name="e_0_energy">     -0.03030357 </i>
  </energy>
  <time name="totalsc">  150.95  153.20</time>
 </calculation>
 <calculation>
  <scstep>
   <time name="dav">    8.41    8.51</time>
   <time name="total">    9.01    9.18</time>
   <energy>
    <i name="alphaZ">    975.10247152 </i>
    <i name="ewald">  91488.67146154 </i>
    <i name="hartreedc">-120199.70143559 </i>
    <i name="XCdc">    178.39814317 </i>
    <i name="pawpsdc">  30175.69975058 </i>
    <i name="pawaedc"> -29261.99353924 </i>
    <i name="eentropy">     -0.01850785 </i>
    <i name="bandstr">   -846.37655599 </i>
    <i name="atom">  27259.89416086 </i>
    <i name="e_fr_energy">   -230.32405100 </i>
    <i name="e_wo_entrp">   -230.30554314 </i>
    <i name="e_0_energy">   -230.31788171 </i>
   </energy>
  </scstep>
  <scstep>
   <time name="diag">    1.29    1.30</time>
   <time name="diis">    4.04    4.07</time>
   <time name="orth">    0.21    0.21</time>
   <time name="total">    6.10    6.15</time>
   <energy>
    <i name="e_fr_energy">   -230.74446461 </i>
    <i name="e_wo_entrp">   -230.69583720 </i>
    <i name="e_0_energy">   -230.72825547 </i>
   </energy>
  </scstep>
  <scstep>
   <time name="diag">    1.17    1.18</time>
   <time name="diis">    4.08    4.11</time>
   <time name="orth">    0.22    0.23</time>
   <time name="total">    6.02    6.07</time>
   <energy>
    <i name="e_fr_energy">   -230.41493975 </i>
    <i name="e_wo_entrp">   -230.38514525 </i>
    <i name="e_0_energy">   -230.40500825 </i>
   </energy>
  </scstep>
  <scstep>
   <time name="diag">    1.20    1.21</time>
   <time name="diis">    3.73    3.76</time>
   <time name="orth">    0.19    0.19</time>
   <time name="total">    5.58    5.62</time>
   <energy>
    <i name="e_fr_energy">   -230.39493210 </i>
    <i name="e_wo_entrp">   -230.36929224 </i>
    <i name="e_0_energy">   -230.38638548 </i>
   </energy>
  </scstep>
  <scstep>
   <time name="diag">    0.96    0.96</time>
   <time name="diis">    3.30    3.32</time>
   <time name="orth">    0.25    0.25</time>
   <time name="total">    5.00    5.03</time>
   <energy>
    <i name="e_fr_energy">   -230.38684664 </i>
    <i name="e_wo_entrp">   -230.35793865 </i>
    <i name="e_0_energy">   -230.37721064 </i>
   </energy>
  </scstep>
  <scstep>
   <time name="diag">    1.13    1.14</time>
   <time name="diis">    4.45    4.48</time>
   <time name="orth">    0.25    0.25</time>
   <time name="total">    6.44    6.49</time>
   <energy>
    <i name="e_fr_energy">   -230.38499131 </i>
    <i name="e_wo_entrp">   -230.35615515 </i>
    <i name="e_0_energy">   -230.37537925 </i>
   </energy>
  </scstep>
  <scstep>
   <time name="diag">    1.40    1.41</time>
   <time name="diis">    3.87    3.90</time>
   <time name="orth">    0.21    0.21</time>
   <time name="total">    6.06    6.11</time>
   <energy>
    <i name="e_fr_energy">   -230.38529955 </i>
    <i name="e_wo_entrp">   -230.35720146 </i>
    <i name="e_0_energy">   -230.37593352 </i>
   </energy>
  </scstep>
  <scstep>
   <time name="diag">    1.26    1.27</time>
   <time name="diis">    4.63    4.67</time>
   <time name="orth">    0.22    0.22</time>
   <time name="total">    6.72    6.77</time>
   <energy>
    <i name="e_fr_energy">   -230.38407492 </i>
    <i name="e_wo_entrp">   -230.35615765 </i>
    <i name="e_0_energy">   -230.37476916 </i>
   </energy>
  </scstep>
  <scstep>
   <time name="diag">    1.08    1.09</time>
   <time name="diis">    2.95    2.97</time>
   <time name="orth">    0.22    0.22</time>
   <time name="total">    4.39    4.42</time>
   <energy>
    <i name="alphaZ">    975.10247152 </i>
    <i name="ewald">  91488.67146154 </i>
    <i name="hartreedc">-120192.59848605 </i>
    <i name="XCdc">    178.32330478 </i>
    <i name="pawpsdc">  30123.79977422 </i>
    <i name="pawaedc"> -29209.82910103 </i>
    <i name="eentropy">     -0.02797593 </i>
    <i name="bandstr">   -853.71962155 </i>
    <i name="atom">  27259.89416086 </i>
    <i name="e_fr_energy">   -230.38401165 </i>
    <i name="e_wo_entrp">   -230.35603571 </i>
    <i name="e_0_energy">   -230.37468634 </i>
   </energy>
  </scstep>
  <structure>
   <crystal>
    <varray name="basis" >
     <v>       7.29695512      -4.21289900       0.00000000 </v>
     <v>       0.00000000       8.42579800       0.00000000 </v>
     <v>       0.00000000       0.00000000      21.87963500 </v>
    </varray>
    <i name="volume">   1345.21837528 </i>
    <varray name="rec_basis" >
     <v>       0.13704346       0.00000000       0.00000000 </v>
     <v>       0.06852173       0.11868312       0.00000000 </v>
     <v>       0.00000000       0.00000000       0.04570460 </v>
    </varray>
   </crystal>
   <varray name="positions" >
    <v>       0.70046656       0.43421100       0.47100500 </v>
    <v>       0.90531518       0.38526731       0.46413522 </v>
    <v>       0.67538611       0.46432751       0.52166610 </v>
    <v>       0.98675500       0.32859100       0.07437600 </v>
    <v>       0.32008800       0.32859100       0.07437600 </v>
    <v>       0.65342200       0.32859100       0.07437600 </v>
    <v>       0.98675500       0.66192500       0.07437600 </v>
    <v>       0.32008800       0.66192500       0.07437600 </v>
    <v>       0.65342200       0.66192500       0.07437600 </v>
    <v>       0.32008800       0.99525800       0.07437600 </v>
    <v>       0.65342200       0.99525800       0.07437600 </v>
    <v>       0.98675500       0.99525800       0.07437600 </v>
    <v>       0.20897700       0.10636900       0.17918600 </v>
    <v>       0.54231100       0.10636900       0.17918600 </v>
    <v>       0.87564400       0.10636900       0.17918600 </v>
    <v>       0.20897700       0.43970300       0.17918600 </v>
    <v>       0.54231100       0.43970300       0.17918600 </v>
    <v>       0.87564400       0.43970300       0.17918600 </v>
    <v>       0.20897700       0.77303600       0.17918600 </v>
    <v>       0.54231100       0.77303600       0.17918600 </v>
    <v>       0.87564400       0.77303600       0.17918600 </v>
    <v>       0.09606715       0.54463591       0.28455454 </v>
    <v>       0.42809172       0.88523889       0.28184007 </v>
    <v>       0.76078760       0.21376261       0.28063905 </v>
    <v>       0.09769959       0.21644494       0.28573755 </v>
    <v>       0.43228159       0.21724743       0.28273562 </v>
    <v>       0.09576105       0.88528014       0.28122237 </v>
    <v>       0.76278502       0.88128308       0.28537685 </v>
    <v>       0.43123968       0.55179274       0.28650718 </v>
    <v>       0.76640168       0.54739777       0.28090858 </v>
    <v>       0.32218078       0.66319108       0.38617166 </v>
    <v>       0.64844513       0.99022403       0.38692815 </v>
    <v>       0.31886909       0.32571258       0.39066049 </v>
    <v>       0.99018074       0.98875429       0.38557646 </v>
    <v>       0.32161519       0.99085073       0.38658412 </v>
    <v>       0.63891025       0.32312188       0.39123837 </v>
    <v>       0.99759084       0.66806449       0.39026007 </v>
    <v>       0.99124072       0.31536273       0.39403946 </v>
    <v>       0.65287320       0.66175657       0.38793612 </v>
   </varray>
  </structure>
  <varray name="forces" >
   <v>      -0.57005512      -0.39793644       1.00101157 </v>
   <v>       0.55549004       0.43409062       0.56074827 </v>
   <v>       0.49734656      -0.27274958      -1.25188514 </v>
   <v>       0.00452999      -0.01044227       0.10526058 </v>
   <v>      -0.01191380      -0.04778506       0.21581027 </v>
   <v>      -0.02303698      -0.04241778       0.06067482 </v>
   <v>       0.02920256       0.01455156       0.13981342 </v>
   <v>      -0.00788477       0.01900919       0.12032823 </v>
   <v>       0.00811088      -0.01091536       0.17729014 </v>
   <v>       0.06359279      -0.03933583       0.05035368 </v>
   <v>      -0.00736635       0.03603215       0.08662557 </v>
   <v>      -0.00382326       0.03200175       0.11207403 </v>
   <v>      -0.04446340       0.12598962      -0.22424900 </v>
   <v>      -0.11662145       0.06252044      -0.45341717 </v>
   <v>       0.17888289      -0.23466231      -0.07608338 </v>
   <v>       0.04895444      -0.07293412       0.22423400 </v>
   <v>      -0.17888622       0.15863306      -0.03280499 </v>
   <v>       0.15712639      -0.05103153      -0.23678593 </v>
   <v>      -0.11990873      -0.07019398      -0.16475221 </v>
   <v>       0.02932759      -0.07311900       0.12319202 </v>
   <v>      -0.05776723       0.21154163      -0.27442912 </v>
   <v>      -0.05338767       0.17790037      -0.12665985 </v>
   <v>       0.05507355      -0.36975465      -0.07399095 </v>
   <v>       0.25231950       0.03466910       0.84390337 </v>
   <v>      -0.17385600       0.49567051      -0.26318581 </v>
   <v>      -0.00884903       0.19089088       0.16696073 </v>
   <v>       0.04681217      -0.62457752       0.27949422 </v>
   <v>      -0.03537171       0.09497404      -0.72032753 </v>
   <v>      -0.06105979      -0.32390474      -0.81748238 </v>
   <v>      -0.05279025       0.21771766       0.63550068 </v>
   <v>       0.01084768      -0.05306328       0.32918505 </v>
   <v>       0.17380128       0.05291610      -0.11446492 </v>
   <v>      -0.11456602      -0.10894116      -0.30404650 </v>
   <v>      -0.11989348       0.10453559       0.61080691 </v>
   <v>      -0.19599172       0.16090792       0.16350818 </v>
   <v>      -0.07421122       0.30111079      -0.14100678 </v>
   <v>      -0.32268918       0.03644118      -0.48955847 </v>
   <v>      -0.02047165      -0.17065231      -0.29948918 </v>
   <v>       0.26344671       0.01231276       0.05784356 </v>
  </varray>
  <varray name="stress" >
   <v>     -41.88377849       0.64544660       1.94200537 </v>
   <v>       0.64544650     -45.15423250      -0.18126842 </v>
   <v>       1.94200546      -0.18126859      -4.55339223 </v>
  </varray>
  <energy>
   <i name="e_fr_energy">   -230.38401165 </i>
   <i name="e_wo_entrp">   -230.37468634 </i>
   <i name="e_0_energy">     -0.02797593 </i>
  </energy>
  <time name="totalsc">   66.35   68.03</time>
 </calculation>
 <calculation>
  <scstep>
   <time name="dav">    9.50    9.61</time>
   <time name="total">   10.13   10.34</time>
   <energy>
    <i name="alphaZ">    975.10247152 </i>
    <i name="ewald">  91501.88362642 </i>
    <i name="hartreedc">-120202.59364696 </i>
    <i name="XCdc">    178.41786569 </i>
    <i name="pawpsdc">  30123.08205855 </i>
    <i name="pawaedc"> -29209.10555815 </i>
    <i name="eentropy">     -0.02480236 </i>
    <i name="bandstr">   -857.07806810 </i>
    <i name="atom">  27259.89416086 </i>
    <i name="e_fr_energy">   -230.42189252 </i>
    <i name="e_wo_entrp">   -230.39709016 </i>
    <i name="e_0_energy">   -230.41362506 </i>
   </energy>
  </scstep>
  <scstep>
   <time name="diag">    1.49    1.50</time>
   <time name="diis">    5.00    5.04</time>
   <time name="orth">    0.25    0.26</time>
   <time name="total">    7.42    7.48</time>
   <energy>
    <i name="e_fr_energy">   -230.49385404 </i>
    <i name="e_wo_entrp">   -230.45672594 </i>
    <i name="e_0_energy">   -230.48147801 </i>
   </energy>
  </scstep>
  <scstep>
   <time name="diag">    1.49    1.50</time>
   <time name="diis">    4.44    4.48</time>
   <time name="orth">    0.23    0.23</time>
   <time name="total">    6.75    6.80</time>
   <energy>
    <i name="e_fr_energy">   -230.47048752 </i>
    <i name="e_wo_entrp">   -230.44504662 </i>
    <i name="e_0_energy">   -230.46200722 </i>
   </energy>
  </scstep>
  <scstep>
   <time name="diag">    1.25    1.26</time>
   <time name="diis">    4.61    4.64</time>
   <time name="orth">    0.23    0.23</time>
   <time name="total">    6.65    6.70</time>
   <energy>
    <i name="e_fr_energy">   -230.46517907 </i>
    <i name="e_wo_entrp">   -230.44017001 </i>
    <i name="e_0_energy">   -230.45684272 </i>
   </energy>
  </scstep>
  <scstep>
   <time name="diag">    1.34    1.35</time>
   <time name="diis">    5.25    5.29</time>
   <time name="orth">    0.28    0.28</time>
   <time name="total">    7.39    7.46</time>
   <energy>
    <i name="e_fr_energy">   -230.46314665 </i>
    <i name="e_wo_entrp">   -230.43436812 </i>
    <i name="e_0_energy">   -230.45355381 </i>
   </energy>
  </scstep>
  <scstep>
   <time name="diag">    1.40    1.47</time>
   <time name="diis">    4.42    4.45</time>
   <time name="orth">    0.23    0.23</time>
   <time name="total">    6.62    6.73</time>
   <energy>
    <i name="e_fr_energy">   -230.46239310 </i>
    <i name="e_wo_entrp">   -230.43685686 </i>
    <i name="e_0_energy">   -230.45388102 </i>
   </energy>
  </scstep>
  <scstep>
   <time name="diag">    1.53    1.54</time>
   <time name="diis">    5.22    5.27</time>
   <time name="orth">    0.24    0.24</time>
   <time name="total">    7.56    7.62</time>
   <energy>
    <i name="e_fr_energy">   -230.46052619 </i>
    <i name="e_wo_entrp">   -230.43404033 </i>
    <i name="e_0_energy">   -230.45169757 </i>
   </energy>
  </scstep>
  <scstep>
   <time name="diag">    1.62    1.63</time>
   <time name="diis">    4.91    4.95</time>
   <time name="orth">    0.29    0.30</time>
   <time name="total">    7.45    7.51</time>
   <energy>
    <i name="e_fr_energy">   -230.46031392 </i>
    <i name="e_wo_entrp">   -230.43377452 </i>
    <i name="e_0_energy">   -230.45146745 </i>
   </energy>
  </scstep>
  <scstep>
   <time name="diag">    1.74    1.75</time>
   <time name="diis">    2.90    2.92</time>
   <time name="orth">    0.25    0.25</time>
   <time name="total">    5.07    5.11</time>
   <energy>
    <i name="alphaZ">    975.10247152 </i>
    <i name="ewald">  91501.88362642 </i>
    <i name="hartreedc">-120209.96323724 </i>
    <i name="XCdc">    178.51587708 </i>
    <i name="pawpsdc">  30117.23289691 </i>
    <i name="pawaedc"> -29203.20524464 </i>
    <i name="eentropy">     -0.02631372 </i>
    <i name="bandstr">   -849.89445365 </i>
    <i name="atom">  27259.89416086 </i>
    <i name="e_fr_energy">   -230.46021644 </i>
    <i name="e_wo_entrp">   -230.43390272 </i>
    <i name="e_0_energy">   -230.45144520 </i>
   </energy>
  </scstep>
  <structure>
   <crystal>
    <varray name="basis" >
     <v>       7.29695512      -4.21289900       0.00000000 </v>
     <v>       0.00000000       8.42579800       0.00000000 </v>
     <v>       0.00000000       0.00000000      21.87963500 </v>
    </varray>
    <i name="volume">   1345.21837528 </i>
    <varray name="rec_basis" >
     <v>       0.13704346       0.00000000       0.00000000 </v>
     <v>       0.06852173       0.11868312       0.00000000 </v>
     <v>       0.00000000       0.00000000       0.04570460 </v>
    </varray>
   </crystal>
   <varray name="positions" >
    <v>       0.69899897       0.43258998       0.47186447 </v>
    <v>       0.90674527       0.38695019       0.46461668 </v>
    <v>       0.67666652       0.46435960       0.52059124 </v>
    <v>       0.98675500       0.32859100       0.07437600 </v>
    <v>       0.32008800       0.32859100       0.07437600 </v>
    <v>       0.65342200       0.32859100       0.07437600 </v>
    <v>       0.98675500       0.66192500       0.07437600 </v>
    <v>       0.32008800       0.66192500       0.07437600 </v>
    <v>       0.65342200       0.66192500       0.07437600 </v>
    <v>       0.32008800       0.99525800       0.07437600 </v>
    <v>       0.65342200       0.99525800       0.07437600 </v>
    <v>       0.98675500       0.99525800       0.07437600 </v>
    <v>       0.20897700       0.10636900       0.17918600 </v>
    <v>       0.54231100       0.10636900       0.17918600 </v>
    <v>       0.87564400       0.10636900       0.17918600 </v>
    <v>       0.20897700       0.43970300       0.17918600 </v>
    <v>       0.54231100       0.43970300       0.17918600 </v>
    <v>       0.87564400       0.43970300       0.17918600 </v>
    <v>       0.20897700       0.77303600       0.17918600 </v>
    <v>       0.54231100       0.77303600       0.17918600 </v>
    <v>       0.87564400       0.77303600       0.17918600 </v>
    <v>       0.09592970       0.54496383       0.28444579 </v>
    <v>       0.42823351       0.88448539       0.28177654 </v>
    <v>       0.76143719       0.21416470       0.28136363 </v>
    <v>       0.09725200       0.21732627       0.28551158 </v>
    <v>       0.43225881       0.21766164       0.28287897 </v>
    <v>       0.09588157       0.88394787       0.28146234 </v>
    <v>       0.76269396       0.88144929       0.28475838 </v>
    <v>       0.43108249       0.55099198       0.28580529 </v>
    <v>       0.76626577       0.54781523       0.28145422 </v>
    <v>       0.32220871       0.66308674       0.38645430 </v>
    <v>       0.64889258       0.99056573       0.38682987 </v>
    <v>       0.31857415       0.32532222       0.39039943 </v>
    <v>       0.98987208       0.98883303       0.38610090 </v>
    <v>       0.32111062       0.99095720       0.38672451 </v>
    <v>       0.63871920       0.32369770       0.39111730 </v>
    <v>       0.99676008       0.66773036       0.38983974 </v>
    <v>       0.99118802       0.31495590       0.39378232 </v>
    <v>       0.65355143       0.66212314       0.38798579 </v>
   </varray>
  </structure>
  <varray name="forces" >
   <v>      -0.03918481      -1.74986924      -3.00117249 </v>
   <v>       0.64992079       0.31896541       0.25539686 </v>
   <v>      -0.13508610       1.03140945       2.69020133 </v>
   <v>       0.00776262      -0.01849262       0.11722384 </v>
   <v>      -0.01827854      -0.04872345       0.20295599 </v>
   <v>      -0.02510830      -0.03846816       0.07346270 </v>
   <v>       0.02628228       0.02329255       0.13755188 </v>
   <v>      -0.00746270       0.01642016       0.12436415 </v>
   <v>       0.00871386      -0.01185649       0.17279647 </v>
   <v>       0.05458191      -0.03479218       0.04421453 </v>
   <v>      -0.00465871       0.03579930       0.09495695 </v>
   <v>       0.00277243       0.03134269       0.10013351 </v>
   <v>      -0.05142354       0.10219270      -0.17917441 </v>
   <v>      -0.08296554       0.07073744      -0.37631714 </v>
   <v>       0.16542760      -0.19136753      -0.07277638 </v>
   <v>       0.03226647      -0.06619194       0.16987931 </v>
   <v>      -0.14269842       0.12719337      -0.03486243 </v>
   <v>       0.11742033      -0.04862246      -0.17120908 </v>
   <v>      -0.11530454      -0.06694412      -0.18242139 </v>
   <v>       0.02636874      -0.06923220       0.05630635 </v>
   <v>      -0.04093803       0.18073313      -0.25883027 </v>
   <v>      -0.01847899       0.14915099      -0.10220078 </v>
   <v>       0.06544430      -0.28792567       0.00045793 </v>
   <v>       0.16122930       0.05805831       0.68307059 </v>
   <v>      -0.16556939       0.32009958      -0.20300692 </v>
   <v>      -0.02845012       0.10222867       0.12173249 </v>
   <v>       0.02968901      -0.42525414       0.25793905 </v>
   <v>       0.00866428       0.06397822      -0.54447718 </v>
   <v>      -0.04629417      -0.22657557      -0.60363864 </v>
   <v>      -0.05467484       0.17627842       0.49154277 </v>
   <v>       0.03225198      -0.08126892       0.21361704 </v>
   <v>       0.13240956       0.01802433      -0.10931701 </v>
   <v>      -0.10692917      -0.06028201      -0.30422402 </v>
   <v>      -0.13472085       0.11028129       0.45813334 </v>
   <v>      -0.15818621       0.10162215       0.12701657 </v>
   <v>      -0.00097799       0.30639624       0.07083084 </v>
   <v>      -0.25139992      -0.00668394      -0.42254924 </v>
   <v>      -0.07364780      -0.00470388      -0.05007485 </v>
   <v>       0.18123322       0.09305013      -0.04753227 </v>
  </varray>
  <varray name="stress" >
   <v>     -42.26684267       0.37444377       1.08336312 </v>
   <v>       0.37444380     -45.11338093       1.09243165 </v>
   <v>       1.08336316       1.09243155      -0.72005945 </v>
  </varray>
  <energy>
   <i name="e_fr_energy">   -230.46021644 </i>
   <i name="e_wo_entrp">   -230.45144520 </i>
   <i name="e_0_energy">     -0.02631372 </i>
  </energy>
  <time name="totalsc">   76.70   78.17</time>
 </calculation>
 <calculation>
  <scstep>
