metal                                   
           1
     7.296955   -4.212899    0.000000
     0.000000    8.425798    0.000000
     0.000000    0.000000   21.879635
   C    O    Pt
   1   2  36
Direct configuration=     1
   0.70243647  0.43669652  0.47163745
   0.90449920  0.38284283  0.46245207
   0.67429992  0.46355240  0.52152598
   0.98675500  0.32859100  0.07437600
   0.32008800  0.32859100  0.07437600
   0.65342200  0.32859100  0.07437600
   0.98675500  0.66192500  0.07437600
   0.32008800  0.66192500  0.07437600
   0.65342200  0.66192500  0.07437600
   0.32008800  0.99525800  0.07437600
   0.65342200  0.99525800  0.07437600
   0.98675500  0.99525800  0.07437600
   0.20897700  0.10636900  0.17918600
   0.54231100  0.10636900  0.17918600
   0.87564400  0.10636900  0.17918600
   0.20897700  0.43970300  0.17918600
   0.54231100  0.43970300  0.17918600
   0.87564400  0.43970300  0.17918600
   0.20897700  0.77303600  0.17918600
   0.54231100  0.77303600  0.17918600
   0.87564400  0.77303600  0.17918600
   0.09636267  0.54436598  0.28468232
   0.42800960  0.88629610  0.28202339
   0.75975084  0.21328348  0.27968972
   0.09821091  0.21486691  0.28602109
   0.43213511  0.21640173  0.28252563
   0.09559005  0.88733023  0.28098254
   0.76312469  0.88109539  0.28626211
   0.43151383  0.55304000  0.28752861
   0.76653242  0.54683370  0.28018155
   0.32223953  0.66318427  0.38570938
   0.64784230  0.98968610  0.38700026
   0.31939332  0.32629857  0.39093237
   0.99039192  0.98852201  0.38482422
   0.32231542  0.99069630  0.38638284
   0.63915104  0.32205578  0.39127281
   0.99863739  0.66821625  0.39080889
   0.98976819  0.31711180  0.39540138
   0.65185548  0.66156161  0.38776196
Direct configuration=     2
   0.70046656  0.43421100  0.47100500
   0.90531518  0.38526731  0.46413522
   0.67538611  0.46432751  0.52166610
   0.98675500  0.32859100  0.07437600
   0.32008800  0.32859100  0.07437600
   0.65342200  0.32859100  0.07437600
   0.98675500  0.66192500  0.07437600
   0.32008800  0.66192500  0.07437600
   0.65342200  0.66192500  0.07437600
   0.32008800  0.99525800  0.07437600
   0.65342200  0.99525800  0.07437600
   0.98675500  0.99525800  0.07437600
   0.20897700  0.10636900  0.17918600
   0.54231100  0.10636900  0.17918600
   0.87564400  0.10636900  0.17918600
   0.20897700  0.43970300  0.17918600
   0.54231100  0.43970300  0.17918600
   0.87564400  0.43970300  0.17918600
   0.20897700  0.77303600  0.17918600
   0.54231100  0.77303600  0.17918600
   0.87564400  0.77303600  0.17918600
   0.09606715  0.54463591  0.28455454
   0.42809172  0.88523889  0.28184007
   0.76078760  0.21376261  0.28063905
   0.09769959  0.21644494  0.28573755
   0.43228159  0.21724743  0.28273562
   0.09576105  0.88528014  0.28122237
   0.76278502  0.88128308  0.28537685
   0.43123968  0.55179274  0.28650718
   0.76640168  0.54739777  0.28090858
   0.32218078  0.66319108  0.38617166
   0.64844513  0.99022403  0.38692815
   0.31886909  0.32571258  0.39066049
   0.99018074  0.98875429  0.38557646
   0.32161519  0.99085073  0.38658412
   0.63891025  0.32312188  0.39123837
   0.99759084  0.66806449  0.39026007
   0.99124072  0.31536273  0.39403946
   0.65287320  0.66175657  0.38793612
Direct configuration=     3
   0.69899897  0.43258998  0.47186447
   0.90674527  0.38695019  0.46461668
   0.67666652  0.46435960  0.52059124
   0.98675500  0.32859100  0.07437600
   0.32008800  0.32859100  0.07437600
   0.65342200  0.32859100  0.07437600
   0.98675500  0.66192500  0.07437600
   0.32008800  0.66192500  0.07437600
   0.65342200  0.66192500  0.07437600
   0.32008800  0.99525800  0.07437600
   0.65342200  0.99525800  0.07437600
   0.98675500  0.99525800  0.07437600
   0.20897700  0.10636900  0.17918600
   0.54231100  0.10636900  0.17918600
   0.87564400  0.10636900  0.17918600
   0.20897700  0.43970300  0.17918600
   0.54231100  0.43970300  0.17918600
   0.87564400  0.43970300  0.17918600
   0.20897700  0.77303600  0.17918600
   0.54231100  0.77303600  0.17918600
   0.87564400  0.77303600  0.17918600
   0.09592970  0.54496383  0.28444579
   0.42823351  0.88448539  0.28177654
   0.76143719  0.21416470  0.28136363
   0.09725200  0.21732627  0.28551158
   0.43225881  0.21766164  0.28287897
   0.09588157  0.88394787  0.28146234
   0.76269396  0.88144929  0.28475838
   0.43108249  0.55099198  0.28580529
   0.76626577  0.54781523  0.28145422
   0.32220871  0.66308674  0.38645430
   0.64889258  0.99056573  0.38682987
   0.31857415  0.32532222  0.39039943
   0.98987208  0.98883303  0.38610090
   0.32111062  0.99095720  0.38672451
   0.63871920  0.32369770  0.39111730
   0.99676008  0.66773036  0.38983974
   0.99118802  0.31495590  0.39378232
   0.65355143  0.66212314  0.38798579
