 vasp.5.4.4 16052018 (build Apr 24 2014 20:13:14) complex standard
 Contain Constrained Minimization Technique (TS), Periodic NBO, VASPsol, libbeef, VASP2WANNIER90, Constrained Cell Relaxation
 executed on Center for Computational Chemistry by phu@node06 date 2025.09.27 23:39:26
 running on    8 total cores
 distrk:  each k-point on    8 cores,    1 groups
 distr:  one band on NCORES_PER_BAND=   2 cores,    4 groups


--------------------------------------------------------------------------------------------------------


 INCAR:
 POTCAR:   PAW_PBE C 08Apr2002                    
 POTCAR:   PAW_PBE O 08Apr2002                    
 POTCAR:    PAW_PBE Pt 04Feb2005                  
 POTCAR:   PAW_PBE C 08Apr2002                    
   VRHFIN =C: s2p2                                                              
   LEXCH  = PE                                                                  
   EATOM  =   147.1560 eV,   10.8157 Ry                                         
                                                                                
   TITEL  = PAW_PBE C 08Apr2002                                                 
   LULTRA =        F    use ultrasoft PP ?                                      
   IUNSCR =        0    unscreen: 0-lin 1-nonlin 2-no                           
   RPACOR =     .000    partial core radius                                     
   POMASS =   12.011; ZVAL   =    4.000    mass and valenz                      
   RCORE  =    1.500    outmost cutoff radius                                   
   RWIGS  =    1.630; RWIGS  =     .863    wigner-seitz radius (au A)           
   ENMAX  =  400.000; ENMIN  =  300.000 eV                                      
   ICORE  =        2    local potential                                         
   LCOR   =        T    correct aug charges                                     
   LPAW   =        T    paw PP                                                  
   EAUG   =  644.873                                                            
   DEXC   =     .000                                                            
   RMAX   =    2.266    core radius for proj-oper                               
   RAUG   =    1.300    factor for augmentation sphere                          
   RDEP   =    1.501    radius for radial grids                                 
   RDEPT  =    1.300    core radius for aug-charge                              
   QCUT   =   -5.516; QGAM   =   11.032    optimization parameters              
                                                                                
   Description                                                                  
     l     E      TYP  RCUT    TYP  RCUT                                        
     0   .000     23  1.200                                                     
     0   .000     23  1.200                                                     
     1   .000     23  1.500                                                     
     1  2.500     23  1.500                                                     
     2   .000      7  1.500                                                     
  local pseudopotential read in
  atomic valenz-charges read in
  non local Contribution for L=           0  read in
    real space projection operators read in
  non local Contribution for L=           0  read in
    real space projection operators read in
  non local Contribution for L=           1  read in
    real space projection operators read in
  non local Contribution for L=           1  read in
    real space projection operators read in
    PAW grid and wavefunctions read in
 
   number of l-projection  operators is LMAX  =           4
   number of lm-projection operators is LMMAX =           8
 
 POTCAR:   PAW_PBE O 08Apr2002                    
   VRHFIN =O: s2p4                                                              
   LEXCH  = PE                                                                  
   EATOM  =   432.3788 eV,   31.7789 Ry                                         
                                                                                
   TITEL  = PAW_PBE O 08Apr2002                                                 
   LULTRA =        F    use ultrasoft PP ?                                      
   IUNSCR =        0    unscreen: 0-lin 1-nonlin 2-no                           
   RPACOR =     .000    partial core radius                                     
   POMASS =   16.000; ZVAL   =    6.000    mass and valenz                      
   RCORE  =    1.520    outmost cutoff radius                                   
   RWIGS  =    1.550; RWIGS  =     .820    wigner-seitz radius (au A)           
   ENMAX  =  400.000; ENMIN  =  300.000 eV                                      
   ICORE  =        2    local potential                                         
   LCOR   =        T    correct aug charges                                     
   LPAW   =        T    paw PP                                                  
   EAUG   =  605.392                                                            
   DEXC   =     .000                                                            
   RMAX   =    2.264    core radius for proj-oper                               
   RAUG   =    1.300    factor for augmentation sphere                          
   RDEP   =    1.550    radius for radial grids                                 
   QCUT   =   -5.520; QGAM   =   11.041    optimization parameters              
                                                                                
   Description                                                                  
     l     E      TYP  RCUT    TYP  RCUT                                        
     0   .000     23  1.200                                                     
     0  -.700     23  1.200                                                     
     1   .000     23  1.520                                                     
     1   .600     23  1.520                                                     
     2   .000      7  1.500                                                     
  local pseudopotential read in
  atomic valenz-charges read in
  non local Contribution for L=           0  read in
    real space projection operators read in
  non local Contribution for L=           0  read in
    real space projection operators read in
  non local Contribution for L=           1  read in
    real space projection operators read in
  non local Contribution for L=           1  read in
    real space projection operators read in
    PAW grid and wavefunctions read in
 
   number of l-projection  operators is LMAX  =           4
   number of lm-projection operators is LMMAX =           8
 
 POTCAR:    PAW_PBE Pt 04Feb2005                  
   VRHFIN =Pt: s1d9                                                             
   LEXCH  = PE                                                                  
   EATOM  =   729.1182 eV,   53.5887 Ry                                         
                                                                                
   TITEL  = PAW_PBE Pt 04Feb2005                                                
   LULTRA =        F    use ultrasoft PP ?                                      
   IUNSCR =        1    unscreen: 0-lin 1-nonlin 2-no                           
   RPACOR =    2.330    partial core radius                                     
   POMASS =  195.080; ZVAL   =   10.000    mass and valenz                      
   RCORE  =    2.600    outmost cutoff radius                                   
   RWIGS  =    2.750; RWIGS  =    1.455    wigner-seitz radius (au A)           
   ENMAX  =  230.283; ENMIN  =  172.712 eV                                      
   ICORE  =        3    local potential                                         
   LCOR   =        T    correct aug charges                                     
   LPAW   =        T    paw PP                                                  
   EAUG   =  358.966                                                            
   DEXC   =     .000                                                            
   RMAX   =    3.038    core radius for proj-oper                               
   RAUG   =    1.300    factor for augmentation sphere                          
   RDEP   =    2.761    radius for radial grids                                 
   QCUT   =   -4.114; QGAM   =    8.228    optimization parameters              
                                                                                
   Description                                                                  
     l     E      TYP  RCUT    TYP  RCUT                                        
     2   .000     23  2.500                                                     
     2   .000     23  2.500                                                     
     0   .000     23  2.500                                                     
     0   .000     23  2.500                                                     
     1  -.200     23  2.600                                                     
     1  1.500     23  2.600                                                     
     3   .000     23  2.500                                                     
  local pseudopotential read in
  partial core-charges read in
  atomic valenz-charges read in
  non local Contribution for L=           2  read in
    real space projection operators read in
  non local Contribution for L=           2  read in
    real space projection operators read in
  non local Contribution for L=           0  read in
    real space projection operators read in
  non local Contribution for L=           0  read in
    real space projection operators read in
  non local Contribution for L=           1  read in
    real space projection operators read in
  non local Contribution for L=           1  read in
    real space projection operators read in
    PAW grid and wavefunctions read in
 
   number of l-projection  operators is LMAX  =           6
   number of lm-projection operators is LMMAX =          18
 
 Optimization of the real space projectors (new method)

 maximal supplied QI-value         = 25.13
 optimisation between [QCUT,QGAM] = [ 10.81, 21.61] = [ 32.71,130.83] Ry 
 Optimized for a Real-space Cutoff    1.23 Angstroem

   l    n(q)    QCUT    max X(q) W(low)/X(q) W(high)/X(q)  e(spline) 
   0      8    10.807     5.582    0.53E-04    0.84E-04    0.44E-07
   0      8    10.807    69.432    0.35E-03    0.71E-03    0.24E-06
   1      7    10.807     2.780    0.44E-04    0.88E-04    0.89E-07
   1      7    10.807     4.549    0.14E-03    0.28E-03    0.13E-06
 Optimization of the real space projectors (new method)

 maximal supplied QI-value         = 24.76
 optimisation between [QCUT,QGAM] = [ 10.64, 21.54] = [ 31.73,129.89] Ry 
 Optimized for a Real-space Cutoff    1.23 Angstroem

   l    n(q)    QCUT    max X(q) W(low)/X(q) W(high)/X(q)  e(spline) 
   0      8    10.645     4.192    0.69E-04    0.93E-04    0.58E-07
   0      8    10.645     8.473    0.40E-03    0.65E-03    0.17E-06
   1      7    10.645     2.474    0.80E-04    0.12E-03    0.30E-07
   1      7    10.645     3.912    0.24E-03    0.53E-03    0.16E-06
 Optimization of the real space projectors (new method)

 maximal supplied QI-value         = 14.36
 optimisation between [QCUT,QGAM] = [ 10.77, 21.69] = [ 32.49,131.70] Ry 
 Optimized for a Real-space Cutoff    1.46 Angstroem

   l    n(q)    QCUT    max X(q) W(low)/X(q) W(high)/X(q)  e(spline) 
   2      9    10.771     3.903    0.38E-04    0.12E-03    0.82E-07
   2      9    10.771    18.372    0.13E-03    0.32E-03    0.28E-06
   0     10    10.771    13.697    0.11E-04    0.86E-05    0.85E-08
   0     10    10.771    65.529    0.40E-04    0.12E-03    0.14E-06
   1      9    10.771     7.604    0.48E-04    0.31E-04    0.38E-07
   1      9    10.771    12.136    0.35E-03    0.16E-03    0.23E-06
 PAW_PBE C 08Apr2002                    :
 energy of atom  1       EATOM= -147.1560
 kinetic energy error for atom=    0.0116 (will be added to EATOM!!)
 PAW_PBE O 08Apr2002                    :
 energy of atom  2       EATOM= -432.3788
 kinetic energy error for atom=    0.0389 (will be added to EATOM!!)
  PAW_PBE Pt 04Feb2005                  :
 energy of atom  3       EATOM= -729.1182
 kinetic energy error for atom=    0.0051 (will be added to EATOM!!)
 
 
 POSCAR: C    O    Pt                            
  positions in direct lattice
  No initial velocities read in
 exchange correlation table for  LEXCH =        8
   RHO(1)=    0.500       N(1)  =     2000
   RHO(2)=  100.500       N(2)  =     4000

 VTST: version 3.2, (02/03/18)

 CHAIN: initializing optimizer
 
 OPT: Using VASP QUASI-newton optimizer
 CHAIN: Read ICHAIN            0
 
 POSCAR: C    O    Pt                            
  positions in direct lattice
  No initial velocities read in
 


--------------------------------------------------------------------------------------------------------


 ion  position               nearest neighbor table
   1  0.707  0.437  0.476-   3 1.16   2 1.96  36 2.01
   2  0.905  0.384  0.462-  38 1.89   1 1.96  36 2.52  37 2.72
   3  0.679  0.464  0.526-   1 1.16
   4  0.987  0.329  0.074-  15 2.81  16 2.81  12 2.81   5 2.81  11 2.81   6 2.81  18 2.81   8 2.81
                             7 2.81
   5  0.320  0.329  0.074-  13 2.81  10 2.81   4 2.81  12 2.81  16 2.81  17 2.81   8 2.81   9 2.81
                             6 2.81
   6  0.653  0.329  0.074-  14 2.81  18 2.81  11 2.81   4 2.81  17 2.81   7 2.81  10 2.81   9 2.81
                             5 2.81
   7  0.987  0.662  0.074-  18 2.81  21 2.81  19 2.81  12 2.81   8 2.81  10 2.81   9 2.81   6 2.81
                             4 2.81
   8  0.320  0.662  0.074-  16 2.81  19 2.81  10 2.81   7 2.81  20 2.81   4 2.81  11 2.81   5 2.81
                             9 2.81
   9  0.653  0.662  0.074-  17 2.81  20 2.81  21 2.81  11 2.81  12 2.81   7 2.81   6 2.81   5 2.81
                             8 2.81
  10  0.320  0.995  0.074-  13 2.81  19 2.81   5 2.81   8 2.81  12 2.81   7 2.81  14 2.81   6 2.81
                            11 2.81
  11  0.653  0.995  0.074-  14 2.81  20 2.81  15 2.81   9 2.81   6 2.81  12 2.81   4 2.81   8 2.81
                            10 2.81
  12  0.987  0.995  0.074-  15 2.81  21 2.81  13 2.81   7 2.81   4 2.81  10 2.81   5 2.81  11 2.81
                             9 2.81
  13  0.209  0.106  0.179-  26 2.72  25 2.77   5 2.81  10 2.81  12 2.81  19 2.81  15 2.81  21 2.81
                            16 2.81  14 2.81  17 2.81  27 2.85
  14  0.542  0.106  0.179-  26 2.71  24 2.74  23 2.77  11 2.81   6 2.81  20 2.81  15 2.81  10 2.81
                            18 2.81  19 2.81  17 2.81  13 2.81
  15  0.876  0.106  0.179-  25 2.71  28 2.75  24 2.77  12 2.81   4 2.81  11 2.81  21 2.81  13 2.81
                            14 2.81  20 2.81  16 2.81  18 2.81
  16  0.209  0.440  0.179-  25 2.72  22 2.76   8 2.81   4 2.81  19 2.81  18 2.81   5 2.81  15 2.81
                            20 2.81  13 2.81  17 2.81  29 2.90
  17  0.542  0.440  0.179-  26 2.72   9 2.81  20 2.81  21 2.81  18 2.81   6 2.81   5 2.81  14 2.81
                            13 2.81  16 2.81  30 2.82  29 2.86
  18  0.876  0.440  0.179-  22 2.74  24 2.79   7 2.81   6 2.81  21 2.81  19 2.81  16 2.81  17 2.81
                             4 2.81  14 2.81  15 2.81  30 2.85
  19  0.209  0.773  0.179-  22 2.78  23 2.79   8 2.81  10 2.81   7 2.81  16 2.81  13 2.81  18 2.81
                            21 2.81  14 2.81  20 2.81  27 2.85
  20  0.542  0.773  0.179-  28 2.75  23 2.75   9 2.81  11 2.81  17 2.81  14 2.81  15 2.81  21 2.81
                             8 2.81  16 2.81  19 2.81  29 2.87
  21  0.876  0.773  0.179-  28 2.79  12 2.81   7 2.81   9 2.81  18 2.81  15 2.81  19 2.81  13 2.81
                            17 2.81  20 2.81  27 2.84  30 2.85
  22  0.094  0.547  0.281-  37 2.73  18 2.74  25 2.74  16 2.76  19 2.78  24 2.82  31 2.82  30 2.82
                            27 2.83  23 2.86  29 2.87  38 2.98
  23  0.436  0.884  0.282-  28 2.73  24 2.75  20 2.75  14 2.77  31 2.77  19 2.79  29 2.80  32 2.81
                            26 2.82  35 2.83  27 2.86  22 2.86
  24  0.760  0.212  0.282-  14 2.74  23 2.75  28 2.75  15 2.77  25 2.77  26 2.78  18 2.79  22 2.82
                            30 2.83  32 2.85  36 2.94  38 3.00
  25  0.092  0.221  0.280-  15 2.71  16 2.72  22 2.74  24 2.77  13 2.77  28 2.80  33 2.84  34 2.85
                            38 2.85  29 2.86  27 2.86  26 2.88
  26  0.432  0.218  0.279-  14 2.71  17 2.72  13 2.72  24 2.78  30 2.78  33 2.81  29 2.81  23 2.82
                            27 2.83  25 2.88  35 2.90  36 2.91
  27  0.097  0.883  0.286-  37 2.64  34 2.65  35 2.78  22 2.83  26 2.83  30 2.83  28 2.84  21 2.84
                            19 2.85  13 2.85  23 2.86  25 2.86
  28  0.761  0.887  0.281-  23 2.73  20 2.75  15 2.75  24 2.75  29 2.78  34 2.79  32 2.79  21 2.79
                            25 2.80  39 2.82  27 2.84  30 2.84
  29  0.437  0.553  0.288-  39 2.70  31 2.71  33 2.72  30 2.74  28 2.78  23 2.80  26 2.81  25 2.86
                            17 2.86  20 2.87  22 2.87  16 2.90
  30  0.760  0.549  0.286-  39 2.69  37 2.74  29 2.74  26 2.78  17 2.82  22 2.82  27 2.83  24 2.83
                            28 2.84  21 2.85  18 2.85  36 2.86
  31  0.322  0.666  0.385-  29 2.71  32 2.74  35 2.75  37 2.75  23 2.77  22 2.82  38 2.85  39 2.87
                            33 2.89
  32  0.652  0.987  0.388-  31 2.74  39 2.78  28 2.79  35 2.79  34 2.81  23 2.81  38 2.85  24 2.85
                            36 2.88
  33  0.320  0.321  0.385-  38 2.70  36 2.71  29 2.72  35 2.79  26 2.81  34 2.81  25 2.84  39 2.86
                            31 2.89
  34  0.986  0.988  0.384-  27 2.65  38 2.73  37 2.75  39 2.75  28 2.79  33 2.81  32 2.81  35 2.82
                            25 2.85
  35  0.324  0.993  0.388-  36 2.73  31 2.75  37 2.76  27 2.78  33 2.79  32 2.79  34 2.82  23 2.83
                            26 2.90
  36  0.642  0.323  0.392-   1 2.01   2 2.52  33 2.71  35 2.73  39 2.78  30 2.86  32 2.88  26 2.91
                            24 2.94  37 2.95  38 3.03
  37  0.997  0.666  0.383-  27 2.64   2 2.72  22 2.73  30 2.74  31 2.75  34 2.75  35 2.76  39 2.82
                            36 2.95  38 2.96
  38  0.997  0.316  0.394-   2 1.89  33 2.70  34 2.73  32 2.85  25 2.85  31 2.85  37 2.96  22 2.98
                            24 3.00  36 3.03
  39  0.660  0.661  0.386-  30 2.69  29 2.70  34 2.75  36 2.78  32 2.78  37 2.82  28 2.82  33 2.86
                            31 2.87
 

IMPORTANT INFORMATION: All symmetrisations will be switched off!
NOSYMM: (Re-)initialisation of all symmetry stuff for point group C_1.

 
 
 KPOINTS: mesh auto                               

Automatic generation of k-mesh.
Space group operators:
 irot       det(A)        alpha          n_x          n_y          n_z        tau_x        tau_y        tau_z
    1     1.000000     0.000000     1.000000     0.000000     0.000000     0.000000     0.000000     0.000000
 
 Subroutine IBZKPT returns following result:
 ===========================================
 
 Found      4 irreducible k-points:
 
 Following reciprocal coordinates:
            Coordinates               Weight
  0.000000  0.000000  0.000000      1.000000
  0.500000  0.000000  0.000000      1.000000
 -0.000000  0.500000  0.000000      1.000000
  0.500000  0.500000  0.000000      1.000000
 
 Following cartesian coordinates:
            Coordinates               Weight
  0.000000  0.000000  0.000000      1.000000
  0.068522  0.000000  0.000000      1.000000
  0.034261  0.059342  0.000000      1.000000
  0.102783  0.059342  0.000000      1.000000
 


--------------------------------------------------------------------------------------------------------




 Dimension of arrays:
   k-points           NKPTS =      4   k-points in BZ     NKDIM =      4   number of bands    NBANDS=    228
   number of dos      NEDOS =    301   number of ions     NIONS =     39
   non local maximal  LDIM  =      6   non local SUM 2l+1 LMDIM =     18
   total plane-waves  NPLWV = 276480
   max r-space proj   IRMAX =   2756   max aug-charges    IRDMAX=  12646
   dimension x,y,z NGX =    48 NGY =   48 NGZ =  120
   dimension x,y,z NGXF=    96 NGYF=   96 NGZF=  240
   support grid    NGXF=    96 NGYF=   96 NGZF=  240
   ions per type =               1   2  36
   NGX,Y,Z   is equivalent  to a cutoff of   9.47,  9.47,  9.12 a.u.
   NGXF,Y,Z  is equivalent  to a cutoff of  18.94, 18.94, 18.24 a.u.

 SYSTEM =  metal                                   
 POSCAR =  C    O    Pt                            

 Startparameter for this run:
   NWRITE =      2    write-flag & timer
   PREC   = normal    normal or accurate (medium, high low for compatibility)
   ISTART =      0    job   : 0-new  1-cont  2-samecut
   ICHARG =      2    charge: 1-file 2-atom 10-const
   ISPIN  =      1    spin polarized calculation?
   LNONCOLLINEAR =      F non collinear calculations
   LSORBIT =      F    spin-orbit coupling
   INIWAV =      1    electr: 0-lowe 1-rand  2-diag
   LASPH  =      F    aspherical Exc in radial PAW
   METAGGA=      F    non-selfconsistent MetaGGA calc.

 Electronic Relaxation 1
   ENCUT  =  450.0 eV  33.07 Ry    5.75 a.u.  14.57 14.57 37.84*2*pi/ulx,y,z
   ENINI  =  450.0     initial cutoff
   ENAUG  =  644.9 eV  augmentation charge cutoff
   NELM   =     60;   NELMIN=  8; NELMDL= -5     # of ELM steps 
   EDIFF  = 0.1E-03   stopping-criterion for ELM
   LREAL  =      T    real-space projection
   NLSPLINE    = F    spline interpolate recip. space projectors
   LCOMPAT=      F    compatible to vasp.4.4
   GGA_COMPAT  = T    GGA compatible to vasp.4.4-vasp.4.6
   LMAXPAW     = -100 max onsite density
   LMAXMIX     =    2 max onsite mixed and CHGCAR
   VOSKOWN=      0    Vosko Wilk Nusair interpolation
   ROPT   =   -0.00050  -0.00050  -0.00050
 Ionic relaxation
   EDIFFG = -.5E-01   stopping-criterion for IOM
   NSW    =   5000    number of steps for IOM
   NBLOCK =      1;   KBLOCK =   5000    inner block; outer block 
   IBRION =      1    ionic relax: 0-MD 1-quasi-New 2-CG
   NFREE  =      0    steps in history (QN), initial steepest desc. (CG)
   ISIF   =      2    stress and relaxation
   IWAVPR =     11    prediction:  0-non 1-charg 2-wave 3-comb
   ISYM   =      0    0-nonsym 1-usesym 2-fastsym
   LCORR  =      T    Harris-Foulkes like correction to forces

   POTIM  = 0.2000    time-step for ionic-motion
   TEIN   =    0.0    initial temperature
   TEBEG  =    0.0;   TEEND  =   0.0 temperature during run
   SMASS  =  -3.00    Nose mass-parameter (am)
   estimated Nose-frequenzy (Omega)   =  0.10E-29 period in steps =****** mass=  -0.162E-26a.u.
   SCALEE = 1.0000    scale energy and forces
   NPACO  =    256;   APACO  = 16.0  distance and # of slots for P.C.
   PSTRESS=    0.0 pullay stress

  Mass of Ions in am
   POMASS =  12.01 16.00195.08
  Ionic Valenz
   ZVAL   =   4.00  6.00 10.00
  Atomic Wigner-Seitz radii
   RWIGS  =  -1.00 -1.00 -1.00
  virtual crystal weights 
   VCA    =   1.00  1.00  1.00
   NELECT =     376.0000    total number of electrons
   NUPDOWN=      -1.0000    fix difference up-down

 DOS related values:
   EMIN   =  10.00;   EMAX   =-10.00  energy-range for DOS
   EFERMI =   0.00
   ISMEAR =     1;   SIGMA  =   0.20  broadening in eV -4-tet -1-fermi 0-gaus

 Electronic relaxation 2 (details)
   IALGO  =     68    algorithm
   LDIAG  =      T    sub-space diagonalisation (order eigenvalues)
   LSUBROT=      F    optimize rotation matrix (better conditioning)
   TURBO    =      0    0=normal 1=particle mesh
   IRESTART =      0    0=no restart 2=restart with 2 vectors
   NREBOOT  =      0    no. of reboots
   NMIN     =      0    reboot dimension
   EREF     =   0.00    reference energy to select bands
   IMIX   =      4    mixing-type and parameters
     AMIX     =   0.40;   BMIX     =  1.00
     AMIX_MAG =   1.60;   BMIX_MAG =  1.00
     AMIN     =   0.10
     WC   =   100.;   INIMIX=   1;  MIXPRE=   1;  MAXMIX= -45

 Intra band minimization:
   WEIMIN = 0.0010     energy-eigenvalue tresh-hold
   EBREAK =  0.11E-06  absolut break condition
   DEPER  =   0.30     relativ break condition  

   TIME   =   0.40     timestep for ELM

  volume/ion in A,a.u.               =      34.49       232.77
  Fermi-wavevector in a.u.,A,eV,Ry     =   1.070385  2.022734 15.588510  1.145723
  Thomas-Fermi vector in A             =   2.206093
 
 Write flags
   LWAVE        =      F    write WAVECAR
   LDOWNSAMPLE  =      F    k-point downsampling of WAVECAR
   LCHARG       =      F    write CHGCAR
   LVTOT        =      F    write LOCPOT, total local potential
   LVHAR        =      F    write LOCPOT, Hartree potential only
   LELF         =      F    write electronic localiz. function (ELF)
   LORBIT       =      0    0 simple, 1 ext, 2 COOP (PROOUT), +10 PAW based schemes


 Dipole corrections
   LMONO  =      F    monopole corrections only (constant potential shift)
   LDIPOL =      F    correct potential (dipole corrections)
   IDIPOL =      0    1-x, 2-y, 3-z, 4-all directions 
   EPSILON=  1.0000000 bulk dielectric constant

 Exchange correlation treatment:
   GGA     =    --    GGA type
   LEXCH   =     8    internal setting for exchange type
   VOSKOWN=      0    Vosko Wilk Nusair interpolation
   LHFCALC =     F    Hartree Fock is set to
   LHFONE  =     F    Hartree Fock one center treatment
   AEXX    =    0.0000 exact exchange contribution

 Linear response parameters
   LEPSILON=     F    determine dielectric tensor
   LRPA    =     F    only Hartree local field effects (RPA)
   LNABLA  =     F    use nabla operator in PAW spheres
   LVEL    =     F    velocity operator in full k-point grid
   LINTERFAST=   F  fast interpolation
   KINTER  =     0    interpolate to denser k-point grid
   CSHIFT  =0.1000    complex shift for real part using Kramers Kronig
   OMEGAMAX=  -1.0    maximum frequency
   DEG_THRESHOLD= 0.2000000E-02 threshold for treating states as degnerate
   RTIME   =   -0.100 relaxation time in fs
  (WPLASMAI=    0.000 imaginary part of plasma frequency in eV, 0.658/RTIME)
   DFIELD  = 0.0000000 0.0000000 0.0000000 field for delta impulse in time
 
 Orbital magnetization related:
   ORBITALMAG=     F  switch on orbital magnetization
   LCHIMAG   =     F  perturbation theory with respect to B field
   DQ        =  0.001000  dq finite difference perturbation B field
   LLRAUG    =     F  two centre corrections for induced B field



--------------------------------------------------------------------------------------------------------


 quasi-Newton-method for relaxation of ions
   using selective dynamics as specified on POSCAR
 charge density and potential will be updated during run
 non-spin polarized calculation
 RMM-DIIS sequential band-by-band and
  variant of blocked Davidson during initial phase
 perform sub-space diagonalisation
    before iterative eigenvector-optimisation
 modified Broyden-mixing scheme, WC =      100.0
 initial mixing is a Kerker type mixing with AMIX =  0.4000 and BMIX =      1.0000
 Hartree-type preconditioning will be used
 using additional bands           40
 real space projection scheme for non local part
 use partial core corrections
 calculate Harris-corrections to forces 
   (improved forces if not selfconsistent)
 use gradient corrections 
 use of overlap-Matrix (Vanderbilt PP)
 Methfessel and Paxton  Order N= 1 SIGMA  =   0.20


--------------------------------------------------------------------------------------------------------


  energy-cutoff  :      450.00
  volume of cell :     1345.22
      direct lattice vectors                 reciprocal lattice vectors
     7.296955120 -4.212899000  0.000000000     0.137043463  0.000000000  0.000000000
     0.000000000  8.425798000  0.000000000     0.068521732  0.118683121  0.000000000
     0.000000000  0.000000000 21.879635000     0.000000000  0.000000000  0.045704602

  length of vectors
     8.425798004  8.425798000 21.879635000     0.137043463  0.137043463  0.045704602


 
 k-points in units of 2pi/SCALE and weight: mesh auto                               
   0.00000000  0.00000000  0.00000000       0.250
   0.06852173  0.00000000  0.00000000       0.250
   0.03426087  0.05934156  0.00000000       0.250
   0.10278260  0.05934156  0.00000000       0.250
 
 k-points in reciprocal lattice and weights: mesh auto                               
   0.00000000  0.00000000  0.00000000       0.250
   0.50000000  0.00000000  0.00000000       0.250
  -0.00000000  0.50000000  0.00000000       0.250
   0.50000000  0.50000000  0.00000000       0.250
 
 position of ions in fractional coordinates (direct lattice) 
   0.70678317  0.43691001  0.47609815
   0.90521369  0.38375355  0.46163896
   0.67864662  0.46376590  0.52598669
   0.98675500  0.32859100  0.07437600
   0.32008800  0.32859100  0.07437600
   0.65342200  0.32859100  0.07437600
   0.98675500  0.66192500  0.07437600
   0.32008800  0.66192500  0.07437600
   0.65342200  0.66192500  0.07437600
   0.32008800  0.99525800  0.07437600
   0.65342200  0.99525800  0.07437600
   0.98675500  0.99525800  0.07437600
   0.20897700  0.10636900  0.17918600
   0.54231100  0.10636900  0.17918600
   0.87564400  0.10636900  0.17918600
   0.20897700  0.43970300  0.17918600
   0.54231100  0.43970300  0.17918600
   0.87564400  0.43970300  0.17918600
   0.20897700  0.77303600  0.17918600
   0.54231100  0.77303600  0.17918600
   0.87564400  0.77303600  0.17918600
   0.09389651  0.54705985  0.28121337
   0.43568742  0.88425890  0.28171645
   0.75953338  0.21243932  0.28156413
   0.09231431  0.22080689  0.27990092
   0.43219332  0.21750897  0.27886549
   0.09654295  0.88344645  0.28613640
   0.76135582  0.88675243  0.28138976
   0.43664295  0.55270334  0.28761706
   0.76013819  0.54881544  0.28566732
   0.32227784  0.66606972  0.38521531
   0.65241146  0.98697927  0.38794770
   0.31963258  0.32136235  0.38491566
   0.98634100  0.98774023  0.38413726
   0.32382271  0.99258330  0.38826501
   0.64156701  0.32298133  0.39227967
   0.99663640  0.66638728  0.38285626
   0.99731633  0.31647803  0.39353773
   0.65983507  0.66096898  0.38610903
 
 position of ions in cartesian coordinates  (Angst):
   5.15736506  0.70370941 10.41685385
   6.60530369 -0.58014393 10.10049187
   4.95205396  1.04852807 11.50839671
   7.20030695 -1.38845776  1.62731973
   2.33566777  1.42014298  1.62731973
   4.76799101  0.01584050  1.62731973
   7.20030695  1.42014719  1.62731973
   2.33566777  4.22874793  1.62731973
   4.76799101  2.82444545  1.62731973
   2.33566777  7.03734445  1.62731973
   4.76799101  5.63304198  1.62731973
   7.20030695  4.22874371  1.62731973
   1.52489579  0.01584471  3.92052428
   3.95721903 -1.38845776  3.92052428
   6.38953497 -2.79275602  3.92052428
   1.52489579  2.82444966  3.92052428
   3.95721903  1.42014719  3.92052428
   6.38953497  0.01584893  3.92052428
   1.52489579  5.63304619  3.92052428
   3.95721903  4.22874371  3.92052428
   6.38953497  2.82444545  3.92052428
   0.68515859  4.21383929  6.15284596
   3.17919158  5.61507974  6.16385321
   5.54228099 -1.40986665  6.16052041
   0.67361335  1.47156341  6.12412991
   3.15369526  0.01189984  6.10147522
   0.70446961  7.03701560  6.26056002
   5.55557922  4.26408173  6.15670534
   3.18616399  2.81743408  6.29295630
   5.54669424  1.42182266  6.25029677
   2.35164693  4.25444489  8.42837045
   4.76061715  5.56754441  8.48815402
   2.33234459  1.36115448  8.42181419
   7.19728599  4.16714469  8.40478307
   2.36291976  6.99907405  8.49509670
   4.68148565  0.01851848  8.58293608
   7.27241106  1.41611611  8.37675521
   7.27737250 -1.53501303  8.61046183
   4.81478687  2.78937265  8.44792468
 


--------------------------------------------------------------------------------------------------------


 k-point  1 :   0.0000 0.0000 0.0000  plane waves:   29241
 k-point  2 :   0.5000 0.0000 0.0000  plane waves:   29108
 k-point  3 :  -0.0000 0.5000 0.0000  plane waves:   29108
 k-point  4 :   0.5000 0.5000 0.0000  plane waves:   29108

 maximum and minimum number of plane-waves per node :     14624    14548

 maximum number of plane-waves:     29241
 maximum index in each direction: 
   IXMAX=   14   IYMAX=   14   IZMAX=   37
   IXMIN=  -15   IYMIN=  -15   IZMIN=  -37


 real space projection operators:
  total allocation   :      13562.45 KBytes
  max/ min on nodes  :       6786.77       6775.69


 parallel 3D FFT for wavefunctions:
    minimum data exchange during FFTs selected (reduces bandwidth)
 parallel 3D FFT for charge:
    minimum data exchange during FFTs selected (reduces bandwidth)


 total amount of memory used by VASP MPI-rank0   131959. kBytes
=======================================================================

   base      :      30000. kBytes
   nonlr-proj:      10151. kBytes
   fftplans  :      13556. kBytes
   grid      :      23353. kBytes
   one-center:        311. kBytes
   wavefun   :      54588. kBytes
 
     INWAV:  cpu time    0.0000: real time    0.0000
 Broyden mixing: mesh for mixing (old mesh)
   NGX = 29   NGY = 29   NGZ = 75
  (NGX  = 96   NGY  = 96   NGZ  =240)
  gives a total of  63075 points

 initial charge density was supplied:
 charge density of overlapping atoms calculated
 number of electron     376.0000000 magnetization 
 keeping initial charge density in first step


--------------------------------------------------------------------------------------------------------


 Maximum index for non-local projection operator         1324
 Maximum index for augmentation-charges         1558 (set IRDMAX)


--------------------------------------------------------------------------------------------------------


 First call to EWALD:  gamma=   0.161
 Maximum number of real-space cells 4x 4x 2
 Maximum number of reciprocal cells 2x 2x 5

    FEWALD:  cpu time    0.0022: real time    0.0022


--------------------------------------- Iteration      1(   1)  ---------------------------------------


    POTLOK:  cpu time    0.1515: real time    0.2713
    SETDIJ:  cpu time    0.0117: real time    0.0117
     EDDAV:  cpu time    8.7953: real time    8.8602
       DOS:  cpu time    0.0010: real time    0.0010
    --------------------------------------------
      LOOP:  cpu time    8.9595: real time    9.1441

 eigenvalue-minimisations  :  1824
 total energy-change (2. order) : 0.2424934E+04  (-0.1595610E+05)
 number of electron     376.0000000 magnetization 
 augmentation part      376.0000000 magnetization 

 Free energy of the ion-electron system (eV)
  ---------------------------------------------------
  alpha Z        PSCENC =       975.10247152
  Ewald energy   TEWEN  =     92063.34585411
  -Hartree energ DENC   =   -121147.88920714
  -exchange      EXHF   =         0.00000000
  -V(xc)+E(xc)   XCENC  =       190.24735957
  PAW double counting   =     24789.08602224   -23775.73976456
  entropy T*S    EENTRO =         0.00885716
  eigenvalues    EBANDS =      2070.87776222
  atomic energy  EATOM  =     27259.89416086
  Solvation  Ediel_sol  =         0.00000000
  ---------------------------------------------------
  free energy    TOTEN  =      2424.93351599 eV

  energy without entropy =     2424.92465882  energy(sigma->0) =     2424.93056360


--------------------------------------------------------------------------------------------------------




--------------------------------------- Iteration      1(   2)  ---------------------------------------


     EDDAV:  cpu time   10.7373: real time   10.8117
       DOS:  cpu time    0.0010: real time    0.0010
    --------------------------------------------
      LOOP:  cpu time   10.7383: real time   10.8127

 eigenvalue-minimisations  :  2136
 total energy-change (2. order) :-0.2489626E+04  (-0.2314181E+04)
 number of electron     376.0000000 magnetization 
 augmentation part      376.0000000 magnetization 

 Free energy of the ion-electron system (eV)
  ---------------------------------------------------
  alpha Z        PSCENC =       975.10247152
  Ewald energy   TEWEN  =     92063.34585411
  -Hartree energ DENC   =   -121147.88920714
  -exchange      EXHF   =         0.00000000
  -V(xc)+E(xc)   XCENC  =       190.24735957
  PAW double counting   =     24789.08602224   -23775.73976456
  entropy T*S    EENTRO =         0.00092011
  eigenvalues    EBANDS =      -418.74061361
  atomic energy  EATOM  =     27259.89416086
  Solvation  Ediel_sol  =         0.00000000
  ---------------------------------------------------
  free energy    TOTEN  =       -64.69279690 eV

  energy without entropy =      -64.69371701  energy(sigma->0) =      -64.69310361


--------------------------------------------------------------------------------------------------------




--------------------------------------- Iteration      1(   3)  ---------------------------------------


     EDDAV:  cpu time    9.8288: real time    9.8966
       DOS:  cpu time    0.0010: real time    0.0010
    --------------------------------------------
      LOOP:  cpu time    9.8298: real time    9.8976

 eigenvalue-minimisations  :  2168
 total energy-change (2. order) :-0.1756140E+03  (-0.1593166E+03)
 number of electron     376.0000000 magnetization 
 augmentation part      376.0000000 magnetization 

 Free energy of the ion-electron system (eV)
  ---------------------------------------------------
  alpha Z        PSCENC =       975.10247152
  Ewald energy   TEWEN  =     92063.34585411
  -Hartree energ DENC   =   -121147.88920714
  -exchange      EXHF   =         0.00000000
  -V(xc)+E(xc)   XCENC  =       190.24735957
  PAW double counting   =     24789.08602224   -23775.73976456
  entropy T*S    EENTRO =        -0.02502673
  eigenvalues    EBANDS =      -594.32862262
  atomic energy  EATOM  =     27259.89416086
  Solvation  Ediel_sol  =         0.00000000
  ---------------------------------------------------
  free energy    TOTEN  =      -240.30675275 eV

  energy without entropy =     -240.28172602  energy(sigma->0) =     -240.29841050


--------------------------------------------------------------------------------------------------------




--------------------------------------- Iteration      1(   4)  ---------------------------------------


     EDDAV:  cpu time    9.9152: real time    9.9835
       DOS:  cpu time    0.0010: real time    0.0010
    --------------------------------------------
      LOOP:  cpu time    9.9163: real time    9.9846

 eigenvalue-minimisations  :  2288
 total energy-change (2. order) :-0.7462557E+01  (-0.7196606E+01)
 number of electron     376.0000000 magnetization 
 augmentation part      376.0000000 magnetization 

 Free energy of the ion-electron system (eV)
  ---------------------------------------------------
  alpha Z        PSCENC =       975.10247152
  Ewald energy   TEWEN  =     92063.34585411
  -Hartree energ DENC   =   -121147.88920714
  -exchange      EXHF   =         0.00000000
  -V(xc)+E(xc)   XCENC  =       190.24735957
  PAW double counting   =     24789.08602224   -23775.73976456
  entropy T*S    EENTRO =        -0.02301672
  eigenvalues    EBANDS =      -601.79319002
  atomic energy  EATOM  =     27259.89416086
  Solvation  Ediel_sol  =         0.00000000
  ---------------------------------------------------
  free energy    TOTEN  =      -247.76931014 eV

  energy without entropy =     -247.74629342  energy(sigma->0) =     -247.76163790


--------------------------------------------------------------------------------------------------------




--------------------------------------- Iteration      1(   5)  ---------------------------------------


     EDDAV:  cpu time   10.2374: real time   10.3109
       DOS:  cpu time    0.0010: real time    0.0010
    CHARGE:  cpu time    0.4025: real time    0.4052
    MIXING:  cpu time    0.0073: real time    0.0074
    --------------------------------------------
      LOOP:  cpu time   10.6483: real time   10.7245

 eigenvalue-minimisations  :  2416
 total energy-change (2. order) :-0.2324653E+00  (-0.2306890E+00)
 number of electron     376.0000027 magnetization 
 augmentation part      105.8444557 magnetization 

 Broyden mixing:
  rms(total) = 0.27153E+01    rms(broyden)= 0.27150E+01
  rms(prec ) = 0.30191E+01
  weight for this iteration     100.00

 Free energy of the ion-electron system (eV)
  ---------------------------------------------------
  alpha Z        PSCENC =       975.10247152
  Ewald energy   TEWEN  =     92063.34585411
  -Hartree energ DENC   =   -121147.88920714
  -exchange      EXHF   =         0.00000000
  -V(xc)+E(xc)   XCENC  =       190.24735957
  PAW double counting   =     24789.08602224   -23775.73976456
  entropy T*S    EENTRO =        -0.02274298
  eigenvalues    EBANDS =      -602.02592907
  atomic energy  EATOM  =     27259.89416086
  Solvation  Ediel_sol  =         0.00000000
  ---------------------------------------------------
  free energy    TOTEN  =      -248.00177545 eV

  energy without entropy =     -247.97903247  energy(sigma->0) =     -247.99419445


--------------------------------------------------------------------------------------------------------




--------------------------------------- Iteration      1(   6)  ---------------------------------------


    POTLOK:  cpu time    0.1271: real time    0.1278
    SETDIJ:  cpu time    0.0100: real time    0.0100
    EDDIAG:  cpu time    1.3271: real time    1.3365
  RMM-DIIS:  cpu time    4.5164: real time    4.5507
    ORTHCH:  cpu time    0.2176: real time    0.2189
       DOS:  cpu time    0.0011: real time    0.0011
    CHARGE:  cpu time    0.3856: real time    0.3880
    MIXING:  cpu time    0.0054: real time    0.0054
    --------------------------------------------
      LOOP:  cpu time    6.5902: real time    6.6384

 eigenvalue-minimisations  :  1831
 total energy-change (2. order) : 0.2885217E+01  (-0.5383330E+01)
 number of electron     376.0000022 magnetization 
 augmentation part      112.7552114 magnetization 

 Broyden mixing:
  rms(total) = 0.28880E+01    rms(broyden)= 0.28871E+01
  rms(prec ) = 0.39947E+01
  weight for this iteration     100.00

 eigenvalues of (default mixing * dielectric matrix)
  average eigenvalue GAMMA=   0.4964
  0.4964

 Free energy of the ion-electron system (eV)
  ---------------------------------------------------
  alpha Z        PSCENC =       975.10247152
  Ewald energy   TEWEN  =     92063.34585411
  -Hartree energ DENC   =   -120691.03495843
  -exchange      EXHF   =         0.00000000
  -V(xc)+E(xc)   XCENC  =       183.12183643
  PAW double counting   =     26773.24315976   -25813.81654706
  entropy T*S    EENTRO =        -0.16500474
  eigenvalues    EBANDS =      -994.80753051
  atomic energy  EATOM  =     27259.89416086
  Solvation  Ediel_sol  =         0.00000000
  ---------------------------------------------------
  free energy    TOTEN  =      -245.11655804 eV

  energy without entropy =     -244.95155331  energy(sigma->0) =     -245.06155646


--------------------------------------------------------------------------------------------------------




--------------------------------------- Iteration      1(   7)  ---------------------------------------


    POTLOK:  cpu time    0.1232: real time    0.1240
    SETDIJ:  cpu time    0.0099: real time    0.0099
    EDDIAG:  cpu time    1.3139: real time    1.3231
  RMM-DIIS:  cpu time    4.3172: real time    4.3499
    ORTHCH:  cpu time    0.2171: real time    0.2186
       DOS:  cpu time    0.0010: real time    0.0010
    CHARGE:  cpu time    0.3897: real time    0.3923
    MIXING:  cpu time    0.0041: real time    0.0041
    --------------------------------------------
      LOOP:  cpu time    6.3760: real time    6.4229

 eigenvalue-minimisations  :  1831
 total energy-change (2. order) :-0.1424074E+01  (-0.3125791E+01)
 number of electron     376.0000040 magnetization 
 augmentation part      111.3348300 magnetization 

 Broyden mixing:
  rms(total) = 0.22440E+01    rms(broyden)= 0.22433E+01
  rms(prec ) = 0.39910E+01
  weight for this iteration     100.00

 eigenvalues of (default mixing * dielectric matrix)
  average eigenvalue GAMMA=   0.5460
  0.8598  0.2323

 Free energy of the ion-electron system (eV)
  ---------------------------------------------------
  alpha Z        PSCENC =       975.10247152
  Ewald energy   TEWEN  =     92063.34585411
  -Hartree energ DENC   =   -120878.32945486
  -exchange      EXHF   =         0.00000000
  -V(xc)+E(xc)   XCENC  =       180.95223718
  PAW double counting   =     27407.28021297   -26455.21588875
  entropy T*S    EENTRO =        -0.13485353
  eigenvalues    EBANDS =      -799.43537154
  atomic energy  EATOM  =     27259.89416086
  Solvation  Ediel_sol  =         0.00000000
  ---------------------------------------------------
  free energy    TOTEN  =      -246.54063204 eV

  energy without entropy =     -246.40577851  energy(sigma->0) =     -246.49568086


--------------------------------------------------------------------------------------------------------




--------------------------------------- Iteration      1(   8)  ---------------------------------------


    POTLOK:  cpu time    0.1254: real time    0.1262
    SETDIJ:  cpu time    0.0099: real time    0.0099
    EDDIAG:  cpu time    1.2995: real time    1.3087
  RMM-DIIS:  cpu time    4.5006: real time    4.5352
    ORTHCH:  cpu time    0.2187: real time    0.2201
       DOS:  cpu time    0.0010: real time    0.0010
    CHARGE:  cpu time    0.4054: real time    0.4080
    MIXING:  cpu time    0.0043: real time    0.0044
    --------------------------------------------
      LOOP:  cpu time    6.5649: real time    6.6135

 eigenvalue-minimisations  :  1826
 total energy-change (2. order) : 0.2921678E+01  (-0.1051257E+01)
 number of electron     376.0000028 magnetization 
 augmentation part      111.8504524 magnetization 

 Broyden mixing:
  rms(total) = 0.23116E+01    rms(broyden)= 0.23114E+01
  rms(prec ) = 0.37704E+01
  weight for this iteration     100.00

 eigenvalues of (default mixing * dielectric matrix)
  average eigenvalue GAMMA=   0.5185
  1.1437  0.2656  0.1462

 Free energy of the ion-electron system (eV)
  ---------------------------------------------------
  alpha Z        PSCENC =       975.10247152
  Ewald energy   TEWEN  =     92063.34585411
  -Hartree energ DENC   =   -120857.67704426
  -exchange      EXHF   =         0.00000000
  -V(xc)+E(xc)   XCENC  =       179.89639159
  PAW double counting   =     27976.14580323   -27032.97822004
  entropy T*S    EENTRO =        -0.01541330
  eigenvalues    EBANDS =      -807.33295816
  atomic energy  EATOM  =     27259.89416086
  Solvation  Ediel_sol  =         0.00000000
  ---------------------------------------------------
  free energy    TOTEN  =      -243.61895445 eV

  energy without entropy =     -243.60354115  energy(sigma->0) =     -243.61381669


--------------------------------------------------------------------------------------------------------




--------------------------------------- Iteration      1(   9)  ---------------------------------------


    POTLOK:  cpu time    0.1281: real time    0.1289
    SETDIJ:  cpu time    0.0099: real time    0.0099
    EDDIAG:  cpu time    1.3527: real time    1.3624
  RMM-DIIS:  cpu time    4.5075: real time    4.5425
    ORTHCH:  cpu time    0.2184: real time    0.2198
       DOS:  cpu time    0.0011: real time    0.0011
    CHARGE:  cpu time    0.3898: real time    0.3925
    MIXING:  cpu time    0.0045: real time    0.0045
    --------------------------------------------
      LOOP:  cpu time    6.6119: real time    6.6616

 eigenvalue-minimisations  :  1831
 total energy-change (2. order) : 0.1194927E+02  (-0.6413252E+00)
 number of electron     376.0000030 magnetization 
 augmentation part      112.6321572 magnetization 

 Broyden mixing:
  rms(total) = 0.85665E+00    rms(broyden)= 0.85638E+00
  rms(prec ) = 0.11003E+01
  weight for this iteration     100.00

 eigenvalues of (default mixing * dielectric matrix)
  average eigenvalue GAMMA=   0.5277
  1.2960  0.3377  0.3377  0.1393

 Free energy of the ion-electron system (eV)
  ---------------------------------------------------
  alpha Z        PSCENC =       975.10247152
  Ewald energy   TEWEN  =     92063.34585411
  -Hartree energ DENC   =   -120778.66295925
  -exchange      EXHF   =         0.00000000
  -V(xc)+E(xc)   XCENC  =       179.17108397
  PAW double counting   =     28720.61180383   -27788.96693835
  entropy T*S    EENTRO =        -0.08297182
  eigenvalues    EBANDS =      -862.08219174
  atomic energy  EATOM  =     27259.89416086
  Solvation  Ediel_sol  =         0.00000000
  ---------------------------------------------------
  free energy    TOTEN  =      -231.66968687 eV

  energy without entropy =     -231.58671505  energy(sigma->0) =     -231.64202960


--------------------------------------------------------------------------------------------------------




--------------------------------------- Iteration      1(  10)  ---------------------------------------


    POTLOK:  cpu time    0.1285: real time    0.1293
    SETDIJ:  cpu time    0.0096: real time    0.0096
    EDDIAG:  cpu time    1.3266: real time    1.3359
  RMM-DIIS:  cpu time    4.4869: real time    4.5217
    ORTHCH:  cpu time    0.2190: real time    0.2204
       DOS:  cpu time    0.0011: real time    0.0011
    CHARGE:  cpu time    0.3937: real time    0.3963
    MIXING:  cpu time    0.0051: real time    0.0052
    --------------------------------------------
      LOOP:  cpu time    6.5704: real time    6.6196

 eigenvalue-minimisations  :  1831
 total energy-change (2. order) : 0.1168755E+01  (-0.1833862E+00)
 number of electron     376.0000029 magnetization 
 augmentation part      112.7771131 magnetization 

 Broyden mixing:
  rms(total) = 0.49026E+00    rms(broyden)= 0.49020E+00
  rms(prec ) = 0.62190E+00
  weight for this iteration     100.00

 eigenvalues of (default mixing * dielectric matrix)
  average eigenvalue GAMMA=   0.5511
  1.4065  0.4731  0.4731  0.1413  0.2613

 Free energy of the ion-electron system (eV)
  ---------------------------------------------------
  alpha Z        PSCENC =       975.10247152
  Ewald energy   TEWEN  =     92063.34585411
  -Hartree energ DENC   =   -120769.34278918
  -exchange      EXHF   =         0.00000000
  -V(xc)+E(xc)   XCENC  =       179.02874368
  PAW double counting   =     29120.61660584   -28194.41541388
  entropy T*S    EENTRO =        -0.00241337
  eigenvalues    EBANDS =      -864.72815177
  atomic energy  EATOM  =     27259.89416086
  Solvation  Ediel_sol  =         0.00000000
  ---------------------------------------------------
  free energy    TOTEN  =      -230.50093218 eV

  energy without entropy =     -230.49851881  energy(sigma->0) =     -230.50012773


--------------------------------------------------------------------------------------------------------




--------------------------------------- Iteration      1(  11)  ---------------------------------------


    POTLOK:  cpu time    0.1253: real time    0.1261
    SETDIJ:  cpu time    0.0096: real time    0.0096
    EDDIAG:  cpu time    1.2380: real time    1.2464
  RMM-DIIS:  cpu time    4.4355: real time    4.4697
    ORTHCH:  cpu time    0.2173: real time    0.2188
       DOS:  cpu time    0.0011: real time    0.0011
    CHARGE:  cpu time    0.3788: real time    0.3812
    MIXING:  cpu time    0.0048: real time    0.0048
    --------------------------------------------
      LOOP:  cpu time    6.4104: real time    6.4577

 eigenvalue-minimisations  :  1831
 total energy-change (2. order) : 0.2470272E+00  (-0.4621460E-01)
 number of electron     376.0000029 magnetization 
 augmentation part      112.8867244 magnetization 

 Broyden mixing:
  rms(total) = 0.32728E+00    rms(broyden)= 0.32704E+00
  rms(prec ) = 0.43289E+00
  weight for this iteration     100.00

 eigenvalues of (default mixing * dielectric matrix)
  average eigenvalue GAMMA=   0.5930
  1.5940  0.8782  0.1403  0.3746  0.3316  0.2395

 Free energy of the ion-electron system (eV)
  ---------------------------------------------------
  alpha Z        PSCENC =       975.10247152
  Ewald energy   TEWEN  =     92063.34585411
  -Hartree energ DENC   =   -120767.28649903
  -exchange      EXHF   =         0.00000000
  -V(xc)+E(xc)   XCENC  =       179.02294394
  PAW double counting   =     29422.95575392   -28500.61630966
  entropy T*S    EENTRO =        -0.04006821
  eigenvalues    EBANDS =      -862.63221239
  atomic energy  EATOM  =     27259.89416086
  Solvation  Ediel_sol  =         0.00000000
  ---------------------------------------------------
  free energy    TOTEN  =      -230.25390494 eV

  energy without entropy =     -230.21383673  energy(sigma->0) =     -230.24054887


--------------------------------------------------------------------------------------------------------




--------------------------------------- Iteration      1(  12)  ---------------------------------------


    POTLOK:  cpu time    0.1289: real time    0.1297
    SETDIJ:  cpu time    0.0098: real time    0.0099
    EDDIAG:  cpu time    1.3047: real time    1.3138
  RMM-DIIS:  cpu time    4.2326: real time    4.2642
    ORTHCH:  cpu time    0.2181: real time    0.2194
       DOS:  cpu time    0.0010: real time    0.0010
    CHARGE:  cpu time    0.3840: real time    0.3865
    MIXING:  cpu time    0.0051: real time    0.0051
    --------------------------------------------
      LOOP:  cpu time    6.2842: real time    6.3297

 eigenvalue-minimisations  :  1845
 total energy-change (2. order) : 0.1626634E+00  (-0.2222132E-01)
 number of electron     376.0000028 magnetization 
 augmentation part      112.9358660 magnetization 

 Broyden mixing:
  rms(total) = 0.17507E+00    rms(broyden)= 0.17504E+00
  rms(prec ) = 0.19526E+00
  weight for this iteration     100.00

 eigenvalues of (default mixing * dielectric matrix)
  average eigenvalue GAMMA=   0.6778
  1.9762  1.0848  0.5419  0.4859  0.1404  0.2578  0.2578

 Free energy of the ion-electron system (eV)
  ---------------------------------------------------
  alpha Z        PSCENC =       975.10247152
  Ewald energy   TEWEN  =     92063.34585411
  -Hartree energ DENC   =   -120759.69790356
  -exchange      EXHF   =         0.00000000
  -V(xc)+E(xc)   XCENC  =       178.97715960
  PAW double counting   =     29737.24297453   -28818.71976320
  entropy T*S    EENTRO =        -0.01920438
  eigenvalues    EBANDS =      -866.21699106
  atomic energy  EATOM  =     27259.89416086
  Solvation  Ediel_sol  =         0.00000000
  ---------------------------------------------------
  free energy    TOTEN  =      -230.09124158 eV

  energy without entropy =     -230.07203719  energy(sigma->0) =     -230.08484012


--------------------------------------------------------------------------------------------------------




--------------------------------------- Iteration      1(  13)  ---------------------------------------


    POTLOK:  cpu time    0.1304: real time    0.1312
    SETDIJ:  cpu time    0.0102: real time    0.0103
    EDDIAG:  cpu time    1.2930: real time    1.3017
  RMM-DIIS:  cpu time    4.3887: real time    4.4230
    ORTHCH:  cpu time    0.2176: real time    0.2189
       DOS:  cpu time    0.0011: real time    0.0011
    CHARGE:  cpu time    0.3796: real time    0.3819
    MIXING:  cpu time    0.0052: real time    0.0053
    --------------------------------------------
      LOOP:  cpu time    6.4257: real time    6.4734

 eigenvalue-minimisations  :  1835
 total energy-change (2. order) :-0.7559919E-02  (-0.1112976E-01)
 number of electron     376.0000028 magnetization 
 augmentation part      112.9583741 magnetization 

 Broyden mixing:
  rms(total) = 0.18181E+00    rms(broyden)= 0.18180E+00
  rms(prec ) = 0.23583E+00
  weight for this iteration     100.00

 eigenvalues of (default mixing * dielectric matrix)
  average eigenvalue GAMMA=   0.6961
  2.1747  1.1303  0.8318  0.4516  0.1404  0.3052  0.3052  0.2295

 Free energy of the ion-electron system (eV)
  ---------------------------------------------------
  alpha Z        PSCENC =       975.10247152
  Ewald energy   TEWEN  =     92063.34585411
  -Hartree energ DENC   =   -120758.27255531
  -exchange      EXHF   =         0.00000000
  -V(xc)+E(xc)   XCENC  =       178.89218529
  PAW double counting   =     29999.32835434   -29083.94021664
  entropy T*S    EENTRO =        -0.01576167
  eigenvalues    EBANDS =      -864.43329400
  atomic energy  EATOM  =     27259.89416086
  Solvation  Ediel_sol  =         0.00000000
  ---------------------------------------------------
  free energy    TOTEN  =      -230.09880150 eV

  energy without entropy =     -230.08303983  energy(sigma->0) =     -230.09354761


--------------------------------------------------------------------------------------------------------




--------------------------------------- Iteration      1(  14)  ---------------------------------------


    POTLOK:  cpu time    0.1296: real time    0.1305
    SETDIJ:  cpu time    0.0100: real time    0.0100
    EDDIAG:  cpu time    1.3361: real time    1.3454
  RMM-DIIS:  cpu time    4.3475: real time    4.3805
    ORTHCH:  cpu time    0.2143: real time    0.2157
       DOS:  cpu time    0.0011: real time    0.0011
    CHARGE:  cpu time    0.3684: real time    0.3707
    MIXING:  cpu time    0.0056: real time    0.0056
    --------------------------------------------
      LOOP:  cpu time    6.4125: real time    6.4595

 eigenvalue-minimisations  :  1832
 total energy-change (2. order) : 0.4304109E-01  (-0.6974402E-02)
 number of electron     376.0000028 magnetization 
 augmentation part      112.9436419 magnetization 

 Broyden mixing:
  rms(total) = 0.93117E-01    rms(broyden)= 0.93105E-01
  rms(prec ) = 0.11767E+00
  weight for this iteration     100.00

 eigenvalues of (default mixing * dielectric matrix)
  average eigenvalue GAMMA=   0.7313
  2.4222  1.2491  0.8202  0.7559  0.4032  0.1404  0.2927  0.2693  0.2288

 Free energy of the ion-electron system (eV)
  ---------------------------------------------------
  alpha Z        PSCENC =       975.10247152
  Ewald energy   TEWEN  =     92063.34585411
  -Hartree energ DENC   =   -120763.71507508
  -exchange      EXHF   =         0.00000000
  -V(xc)+E(xc)   XCENC  =       178.84055917
  PAW double counting   =     30126.79396132   -29212.89306643
  entropy T*S    EENTRO =        -0.02137448
  eigenvalues    EBANDS =      -857.40325140
  atomic energy  EATOM  =     27259.89416086
  Solvation  Ediel_sol  =         0.00000000
  ---------------------------------------------------
  free energy    TOTEN  =      -230.05576040 eV

  energy without entropy =     -230.03438592  energy(sigma->0) =     -230.04863558


--------------------------------------------------------------------------------------------------------




--------------------------------------- Iteration      1(  15)  ---------------------------------------


    POTLOK:  cpu time    0.1317: real time    0.1325
    SETDIJ:  cpu time    0.0096: real time    0.0096
    EDDIAG:  cpu time    1.3074: real time    1.3165
  RMM-DIIS:  cpu time    4.4394: real time    4.4739
    ORTHCH:  cpu time    0.2164: real time    0.2179
       DOS:  cpu time    0.0011: real time    0.0011
    CHARGE:  cpu time    0.3837: real time    0.3863
    MIXING:  cpu time    0.0063: real time    0.0063
    --------------------------------------------
      LOOP:  cpu time    6.4957: real time    6.5442

 eigenvalue-minimisations  :  1831
 total energy-change (2. order) : 0.4524795E-02  (-0.2746537E-02)
 number of electron     376.0000028 magnetization 
 augmentation part      112.9266006 magnetization 

 Broyden mixing:
  rms(total) = 0.65625E-01    rms(broyden)= 0.65581E-01
  rms(prec ) = 0.83274E-01
  weight for this iteration     100.00

 eigenvalues of (default mixing * dielectric matrix)
  average eigenvalue GAMMA=   0.7104
  2.4845  1.2851  0.8331  0.8331  0.4440  0.1404  0.3069  0.2944  0.2547  0.2275

 Free energy of the ion-electron system (eV)
  ---------------------------------------------------
  alpha Z        PSCENC =       975.10247152
  Ewald energy   TEWEN  =     92063.34585411
  -Hartree energ DENC   =   -120765.70412071
  -exchange      EXHF   =         0.00000000
  -V(xc)+E(xc)   XCENC  =       178.82023734
  PAW double counting   =     30208.34593791   -29295.31170042
  entropy T*S    EENTRO =        -0.01710043
  eigenvalues    EBANDS =      -854.52697579
  atomic energy  EATOM  =     27259.89416086
  Solvation  Ediel_sol  =         0.00000000
  ---------------------------------------------------
  free energy    TOTEN  =      -230.05123561 eV

  energy without entropy =     -230.03413518  energy(sigma->0) =     -230.04553546


--------------------------------------------------------------------------------------------------------




--------------------------------------- Iteration      1(  16)  ---------------------------------------


    POTLOK:  cpu time    0.1322: real time    0.1330
    SETDIJ:  cpu time    0.0101: real time    0.0102
    EDDIAG:  cpu time    1.3275: real time    1.3370
  RMM-DIIS:  cpu time    4.4930: real time    4.5283
    ORTHCH:  cpu time    0.2241: real time    0.2256
       DOS:  cpu time    0.0011: real time    0.0011
    CHARGE:  cpu time    0.4120: real time    0.4148
    MIXING:  cpu time    0.0059: real time    0.0059
    --------------------------------------------
      LOOP:  cpu time    6.6059: real time    6.6560

 eigenvalue-minimisations  :  1831
 total energy-change (2. order) : 0.6883081E-02  (-0.7133055E-03)
 number of electron     376.0000028 magnetization 
 augmentation part      112.9268032 magnetization 

 Broyden mixing:
  rms(total) = 0.23022E-01    rms(broyden)= 0.23017E-01
  rms(prec ) = 0.28224E-01
  weight for this iteration     100.00

 eigenvalues of (default mixing * dielectric matrix)
  average eigenvalue GAMMA=   0.6851
  2.4984  1.2908  0.8136  0.8136  0.5228  0.1404  0.3889  0.2965  0.2965  0.2477
  0.2270

 Free energy of the ion-electron system (eV)
  ---------------------------------------------------
  alpha Z        PSCENC =       975.10247152
  Ewald energy   TEWEN  =     92063.34585411
  -Hartree energ DENC   =   -120766.58528400
  -exchange      EXHF   =         0.00000000
  -V(xc)+E(xc)   XCENC  =       178.82949426
  PAW double counting   =     30223.53900527   -29310.63764156
  entropy T*S    EENTRO =        -0.01645240
  eigenvalues    EBANDS =      -853.51596060
  atomic energy  EATOM  =     27259.89416086
  Solvation  Ediel_sol  =         0.00000000
  ---------------------------------------------------
  free energy    TOTEN  =      -230.04435253 eV

  energy without entropy =     -230.02790013  energy(sigma->0) =     -230.03886839


--------------------------------------------------------------------------------------------------------




--------------------------------------- Iteration      1(  17)  ---------------------------------------


    POTLOK:  cpu time    0.1356: real time    0.1365
    SETDIJ:  cpu time    0.0097: real time    0.0097
    EDDIAG:  cpu time    1.3124: real time    1.3219
  RMM-DIIS:  cpu time    4.2324: real time    4.2647
    ORTHCH:  cpu time    0.2094: real time    0.2108
       DOS:  cpu time    0.0011: real time    0.0011
    CHARGE:  cpu time    0.4006: real time    0.4033
    MIXING:  cpu time    0.0062: real time    0.0062
    --------------------------------------------
      LOOP:  cpu time    6.3073: real time    6.3542

 eigenvalue-minimisations  :  1809
 total energy-change (2. order) : 0.5966653E-03  (-0.1435732E-03)
 number of electron     376.0000028 magnetization 
 augmentation part      112.9272155 magnetization 

 Broyden mixing:
  rms(total) = 0.12834E-01    rms(broyden)= 0.12832E-01
  rms(prec ) = 0.15188E-01
  weight for this iteration     100.00

 eigenvalues of (default mixing * dielectric matrix)
  average eigenvalue GAMMA=   0.7341
  2.5591  1.3231  1.0701  1.0701  0.8439  0.4541  0.1404  0.3174  0.3044  0.2650
  0.2379  0.2240

 Free energy of the ion-electron system (eV)
  ---------------------------------------------------
  alpha Z        PSCENC =       975.10247152
  Ewald energy   TEWEN  =     92063.34585411
  -Hartree energ DENC   =   -120767.03500818
  -exchange      EXHF   =         0.00000000
  -V(xc)+E(xc)   XCENC  =       178.83504173
  PAW double counting   =     30224.77405390   -29311.86125218
  entropy T*S    EENTRO =        -0.01815796
  eigenvalues    EBANDS =      -853.08091968
  atomic energy  EATOM  =     27259.89416086
  Solvation  Ediel_sol  =         0.00000000
  ---------------------------------------------------
  free energy    TOTEN  =      -230.04375586 eV

  energy without entropy =     -230.02559790  energy(sigma->0) =     -230.03770321


--------------------------------------------------------------------------------------------------------




--------------------------------------- Iteration      1(  18)  ---------------------------------------


    POTLOK:  cpu time    0.1314: real time    0.1322
    SETDIJ:  cpu time    0.0104: real time    0.0105
    EDDIAG:  cpu time    1.3099: real time    1.3191
  RMM-DIIS:  cpu time    4.1213: real time    4.1536
    ORTHCH:  cpu time    0.2240: real time    0.2255
       DOS:  cpu time    0.0011: real time    0.0011
    CHARGE:  cpu time    0.4095: real time    0.4123
    MIXING:  cpu time    0.0064: real time    0.0065
    --------------------------------------------
      LOOP:  cpu time    6.2141: real time    6.2609

 eigenvalue-minimisations  :  1677
 total energy-change (2. order) :-0.1717577E-03  (-0.6793246E-04)
 number of electron     376.0000028 magnetization 
 augmentation part      112.9258891 magnetization 

 Broyden mixing:
  rms(total) = 0.10206E-01    rms(broyden)= 0.10205E-01
  rms(prec ) = 0.12680E-01
  weight for this iteration     100.00

 eigenvalues of (default mixing * dielectric matrix)
  average eigenvalue GAMMA=   0.7555
  2.5734  1.8434  1.2901  0.8945  0.8945  0.4546  0.1404  0.3776  0.3351  0.2977
  0.2645  0.2328  0.2226

 Free energy of the ion-electron system (eV)
  ---------------------------------------------------
  alpha Z        PSCENC =       975.10247152
  Ewald energy   TEWEN  =     92063.34585411
  -Hartree energ DENC   =   -120768.23535007
  -exchange      EXHF   =         0.00000000
  -V(xc)+E(xc)   XCENC  =       178.84593407
  PAW double counting   =     30226.08001424   -29313.12019968
  entropy T*S    EENTRO =        -0.01702394
  eigenvalues    EBANDS =      -851.93978873
  atomic energy  EATOM  =     27259.89416086
  Solvation  Ediel_sol  =         0.00000000
  ---------------------------------------------------
  free energy    TOTEN  =      -230.04392762 eV

  energy without entropy =     -230.02690368  energy(sigma->0) =     -230.03825297


--------------------------------------------------------------------------------------------------------




--------------------------------------- Iteration      1(  19)  ---------------------------------------


    POTLOK:  cpu time    0.1348: real time    0.1357
    SETDIJ:  cpu time    0.0099: real time    0.0099
    EDDIAG:  cpu time    1.3047: real time    1.3138
  RMM-DIIS:  cpu time    3.1707: real time    3.1958
    ORTHCH:  cpu time    0.2196: real time    0.2212
       DOS:  cpu time    0.0011: real time    0.0011
    --------------------------------------------
      LOOP:  cpu time    4.8408: real time    4.8774

 eigenvalue-minimisations  :  1203
 total energy-change (2. order) : 0.1022112E-04  (-0.3194322E-04)
 number of electron     376.0000028 magnetization 
 augmentation part      112.9258891 magnetization 

 Free energy of the ion-electron system (eV)
  ---------------------------------------------------
  alpha Z        PSCENC =       975.10247152
  Ewald energy   TEWEN  =     92063.34585411
  -Hartree energ DENC   =   -120769.49704452
  -exchange      EXHF   =         0.00000000
  -V(xc)+E(xc)   XCENC  =       178.85510123
  PAW double counting   =     30222.97513158   -29309.93661066
  entropy T*S    EENTRO =        -0.01824618
  eigenvalues    EBANDS =      -850.76473535
  atomic energy  EATOM  =     27259.89416086
  Solvation  Ediel_sol  =         0.00000000
  ---------------------------------------------------
  free energy    TOTEN  =      -230.04391740 eV

  energy without entropy =     -230.02567122  energy(sigma->0) =     -230.03783534


--------------------------------------------------------------------------------------------------------




 average (electrostatic) potential at core
  the test charge radii are     0.6991  0.7215  1.2059
  (the norm of the test charge is              1.0000)
       1 -56.3328       2 -74.8810       3 -76.3709       4 -72.2759       5 -72.2809
       6 -72.2722       7 -72.2815       8 -72.3033       9 -72.3012      10 -72.2796
      11 -72.2999      12 -72.2805      13 -72.9037      14 -73.0334      15 -72.9987
      16 -72.9754      17 -72.9542      18 -72.9443      19 -72.9439      20 -72.9760
      21 -72.8886      22 -72.9073      23 -72.9533      24 -72.8701      25 -72.9985
      26 -72.9815      27 -73.0114      28 -72.9880      29 -72.9593      30 -72.8971
      31 -72.3822      32 -72.3015      33 -72.4931      34 -72.5174      35 -72.3605
      36 -73.1682      37 -72.6111      38 -73.1868      39 -72.4578
 
 
 
 E-fermi :   1.1334     XC(G=0):  -6.6132     alpha+bet : -6.8913


 k-point     1 :       0.0000    0.0000    0.0000
  band No.  band energies     occupation 
      1     -22.2180      2.00000
      2     -17.2057      2.00000
      3      -8.5651      2.00000
      4      -8.1353      2.00000
      5      -6.8188      2.00000
      6      -6.0258      2.00000
      7      -5.9006      2.00000
      8      -5.7935      2.00000
      9      -5.7204      2.00000
     10      -5.6944      2.00000
     11      -5.6612      2.00000
     12      -5.6443      2.00000
     13      -5.5967      2.00000
     14      -5.5585      2.00000
     15      -5.4599      2.00000
     16      -5.2744      2.00000
     17      -5.1463      2.00000
     18      -5.1223      2.00000
     19      -5.0759      2.00000
     20      -5.0461      2.00000
     21      -5.0056      2.00000
     22      -4.9757      2.00000
     23      -4.7088      2.00000
     24      -4.6485      2.00000
     25      -4.6017      2.00000
     26      -4.5584      2.00000
     27      -4.5245      2.00000
     28      -4.4990      2.00000
     29      -4.4355      2.00000
     30      -4.4259      2.00000
     31      -4.3820      2.00000
     32      -4.3506      2.00000
     33      -4.2920      2.00000
     34      -4.2737      2.00000
     35      -4.1589      2.00000
     36      -4.1503      2.00000
     37      -4.1444      2.00000
     38      -4.1253      2.00000
     39      -4.0842      2.00000
     40      -4.0811      2.00000
     41      -4.0523      2.00000
     42      -4.0500      2.00000
     43      -4.0381      2.00000
     44      -4.0294      2.00000
     45      -4.0016      2.00000
     46      -3.9529      2.00000
     47      -3.6063      2.00000
     48      -3.5829      2.00000
     49      -3.5155      2.00000
     50      -3.4380      2.00000
     51      -3.4243      2.00000
     52      -3.4076      2.00000
     53      -3.3921      2.00000
     54      -3.3866      2.00000
     55      -3.3346      2.00000
     56      -3.3040      2.00000
     57      -3.2703      2.00000
     58      -3.2113      2.00000
     59      -3.1640      2.00000
     60      -3.1205      2.00000
     61      -3.0733      2.00000
     62      -3.0187      2.00000
     63      -2.9264      2.00000
     64      -2.6118      2.00000
     65      -2.5893      2.00000
     66      -2.5633      2.00000
     67      -2.5408      2.00000
     68      -2.5080      2.00000
     69      -2.4994      2.00000
     70      -2.4715      2.00000
     71      -2.4308      2.00000
     72      -2.4171      2.00000
     73      -2.4079      2.00000
     74      -2.4006      2.00000
     75      -2.3797      2.00000
     76      -2.3767      2.00000
     77      -2.3553      2.00000
     78      -2.3412      2.00000
     79      -2.3266      2.00000
     80      -2.3181      2.00000
     81      -2.3080      2.00000
     82      -2.2869      2.00000
     83      -2.2702      2.00000
     84      -2.2449      2.00000
     85      -2.2179      2.00000
     86      -2.1410      2.00000
     87      -2.1387      2.00000
     88      -2.1199      2.00000
     89      -2.0840      2.00000
     90      -2.0643      2.00000
     91      -2.0453      2.00000
     92      -2.0177      2.00000
     93      -1.9782      2.00000
     94      -1.9561      2.00000
     95      -1.9456      2.00000
     96      -1.9386      2.00000
     97      -1.9185      2.00000
     98      -1.8528      2.00000
     99      -1.8086      2.00000
    100      -1.7804      2.00000
    101      -1.7292      2.00000
    102      -1.6049      2.00000
    103      -1.5982      2.00000
    104      -1.5822      2.00000
    105      -1.5683      2.00000
    106      -1.5610      2.00000
    107      -1.5335      2.00000
    108      -1.5017      2.00000
    109      -1.4935      2.00000
    110      -1.4698      2.00000
    111      -1.4590      2.00000
    112      -1.4534      2.00000
    113      -1.4414      2.00000
    114      -1.3040      2.00000
    115      -1.3000      2.00000
    116      -1.1881      2.00000
    117      -1.1370      2.00000
    118      -1.0887      2.00000
    119      -1.0227      2.00000
    120      -1.0101      2.00000
    121      -0.9683      2.00000
    122      -0.9379      2.00000
    123      -0.8935      2.00000
    124      -0.8740      2.00000
    125      -0.8322      2.00000
    126      -0.8074      2.00000
    127      -0.7533      2.00000
    128      -0.7013      2.00000
    129      -0.6698      2.00000
    130      -0.6541      2.00000
    131      -0.6377      2.00000
    132      -0.6309      2.00000
    133      -0.6209      2.00000
    134      -0.5839      2.00000
    135      -0.5225      2.00000
    136      -0.4100      2.00000
    137      -0.4011      2.00000
    138      -0.3726      2.00000
    139      -0.3397      2.00000
    140      -0.3291      2.00000
    141      -0.2597      2.00000
    142      -0.2107      2.00000
    143      -0.2003      2.00000
    144      -0.1890      2.00000
    145      -0.1476      2.00000
    146      -0.1394      2.00000
    147      -0.1066      2.00000
    148      -0.0305      2.00000
    149       0.0135      2.00000
    150       0.0527      2.00000
    151       0.0831      2.00000
    152       0.1122      2.00000
    153       0.1425      2.00000
    154       0.1511      2.00000
    155       0.1902      2.00000
    156       0.2433      2.00000
    157       0.2512      2.00000
    158       0.2796      2.00000
    159       0.2964      2.00000
    160       0.2993      2.00000
    161       0.3138      2.00000
    162       0.3409      2.00000
    163       0.3737      2.00000
    164       0.3788      2.00000
    165       0.4029      2.00000
    166       0.4160      2.00000
    167       0.4359      2.00001
    168       0.4401      2.00001
    169       0.4770      2.00004
    170       0.4997      2.00007
    171       0.5367      2.00021
    172       0.5730      2.00054
    173       0.5900      2.00083
    174       0.6316      2.00223
    175       0.6610      2.00420
    176       0.6656      2.00462
    177       0.6833      2.00657
    178       0.6949      2.00818
    179       0.7371      2.01697
    180       0.7459      2.01948
    181       0.7532      2.02173
    182       0.8055      2.04253
    183       0.8257      2.05185
    184       0.8339      2.05553
    185       0.8483      2.06164
    186       0.8623      2.06654
    187       0.8636      2.06692
    188       0.8676      2.06803
    189       0.8777      2.07009
    190       0.8928      2.07076
    191       0.9020      2.06936
    192       0.9074      2.06777
    193       0.9203      2.06132
    194       0.9534      2.02271
    195       0.9583      2.01367
    196       1.1280      1.04511
    197       1.1636      0.74697
    198       1.2301      0.27770
    199       1.2502      0.17459
    200       1.2724      0.08347
    201       1.2781      0.06420
    202       1.2943      0.01747
    203       1.3086     -0.01403
    204       1.5081     -0.02352
    205       1.5486     -0.01240
    206       1.9960     -0.00000
    207       2.0556     -0.00000
    208       2.0961     -0.00000
    209       2.1489     -0.00000
    210       2.2329     -0.00000
    211       2.4743     -0.00000
    212       3.6283     -0.00000
    213       3.9617     -0.00000
    214       4.4137     -0.00000
    215       4.4166     -0.00000
    216       4.4769     -0.00000
    217       4.6395     -0.00000
    218       4.8654     -0.00000
    219       5.4486     -0.00000
    220       5.6702     -0.00000
    221       5.8644     -0.00000
    222       5.9084     -0.00000
    223       5.9431     -0.00000
    224       5.9532     -0.00000
    225       5.9894     -0.00000
    226       6.1197     -0.00000
    227       6.5627     -0.00000
    228       6.7883      0.00000

 k-point     2 :       0.5000    0.0000    0.0000
  band No.  band energies     occupation 
      1     -22.2178      2.00000
      2     -17.2052      2.00000
      3      -8.5499      2.00000
      4      -7.2872      2.00000
      5      -7.2594      2.00000
      6      -6.1109      2.00000
      7      -6.0295      2.00000
      8      -5.9460      2.00000
      9      -5.8648      2.00000
     10      -5.7685      2.00000
     11      -5.5858      2.00000
     12      -5.4412      2.00000
     13      -5.3170      2.00000
     14      -5.2822      2.00000
     15      -5.0005      2.00000
     16      -4.9467      2.00000
     17      -4.9157      2.00000
     18      -4.8807      2.00000
     19      -4.8715      2.00000
     20      -4.8467      2.00000
     21      -4.8373      2.00000
     22      -4.8158      2.00000
     23      -4.7917      2.00000
     24      -4.7800      2.00000
     25      -4.7446      2.00000
     26      -4.7290      2.00000
     27      -4.7010      2.00000
     28      -4.6749      2.00000
     29      -4.6437      2.00000
     30      -4.5497      2.00000
     31      -4.3827      2.00000
     32      -4.3559      2.00000
     33      -4.3328      2.00000
     34      -4.3094      2.00000
     35      -4.2855      2.00000
     36      -4.1677      2.00000
     37      -4.0738      2.00000
     38      -4.0523      2.00000
     39      -4.0195      2.00000
     40      -3.9854      2.00000
     41      -3.9574      2.00000
     42      -3.9233      2.00000
     43      -3.8820      2.00000
     44      -3.8344      2.00000
     45      -3.7956      2.00000
     46      -3.7264      2.00000
     47      -3.6705      2.00000
     48      -3.6384      2.00000
     49      -3.6275      2.00000
     50      -3.5901      2.00000
     51      -3.4437      2.00000
     52      -3.4400      2.00000
     53      -3.4004      2.00000
     54      -3.3857      2.00000
     55      -3.3712      2.00000
     56      -3.3314      2.00000
     57      -3.2752      2.00000
     58      -3.2249      2.00000
     59      -3.1834      2.00000
     60      -3.1552      2.00000
     61      -3.0904      2.00000
     62      -3.0691      2.00000
     63      -3.0642      2.00000
     64      -3.0239      2.00000
     65      -3.0175      2.00000
     66      -2.9812      2.00000
     67      -2.9059      2.00000
     68      -2.8705      2.00000
     69      -2.8391      2.00000
     70      -2.8074      2.00000
[...]
     89      -2.1661      2.00000
     90      -2.1458      2.00000
     91      -2.1119      2.00000
     92      -2.1055      2.00000
     93      -2.0471      2.00000
     94      -1.9856      2.00000
     95      -1.9634      2.00000
     96      -1.9402      2.00000
     97      -1.9127      2.00000
     98      -1.8837      2.00000
     99      -1.8469      2.00000
    100      -1.8142      2.00000
    101      -1.7701      2.00000
    102      -1.7471      2.00000
    103      -1.7256      2.00000
    104      -1.7143      2.00000
    105      -1.6711      2.00000
    106      -1.6526      2.00000
    107      -1.6091      2.00000
    108      -1.6023      2.00000
    109      -1.5683      2.00000
    110      -1.5431      2.00000
    111      -1.5232      2.00000
    112      -1.4532      2.00000
    113      -1.4276      2.00000
    114      -1.3867      2.00000
    115      -1.2844      2.00000
    116      -1.2578      2.00000
    117      -1.2012      2.00000
    118      -1.1720      2.00000
    119      -1.1349      2.00000
    120      -1.0720      2.00000
    121      -1.0609      2.00000
    122      -1.0308      2.00000
    123      -1.0085      2.00000
    124      -0.9854      2.00000
    125      -0.9691      2.00000
    126      -0.9536      2.00000
    127      -0.9456      2.00000
    128      -0.9243      2.00000
    129      -0.8771      2.00000
    130      -0.8724      2.00000
    131      -0.8373      2.00000
    132      -0.7903      2.00000
    133      -0.7363      2.00000
    134      -0.7222      2.00000
    135      -0.7047      2.00000
    136      -0.6839      2.00000
    137      -0.6581      2.00000
    138      -0.6137      2.00000
    139      -0.5602      2.00000
    140      -0.5498      2.00000
    141      -0.4797      2.00000
    142      -0.4784      2.00000
    143      -0.3728      2.00000
    144      -0.2665      2.00000
    145      -0.2423      2.00000
    146      -0.1680      2.00000
    147      -0.1372      2.00000
    148      -0.1130      2.00000
    149      -0.0593      2.00000
    150      -0.0336      2.00000
    151      -0.0169      2.00000
    152       0.0690      2.00000
    153       0.0820      2.00000
    154       0.1079      2.00000
    155       0.1127      2.00000
    156       0.1348      2.00000
    157       0.1522      2.00000
    158       0.1964      2.00000
    159       0.2104      2.00000
    160       0.2283      2.00000
    161       0.2688      2.00000
    162       0.3074      2.00000
    163       0.3471      2.00000
    164       0.3744      2.00000
    165       0.4047      2.00000
    166       0.4214      2.00001
    167       0.5616      2.00043
    168       0.5850      2.00078
    169       0.6205      2.00183
    170       0.6392      2.00278
    171       0.6624      2.00455
    172       0.6757      2.00594
    173       0.7181      2.01294
    174       0.8117      2.04651
    175       0.8197      2.05019
    176       0.8376      2.05825
    177       0.8716      2.06949
    178       0.9023      2.06861
    179       0.9404      2.03893
    180       0.9702      1.98186
    181       0.9744      1.97084
    182       1.0474      1.64280
    183       1.0807      1.41035
    184       1.1179      1.10945
    185       1.1310      0.99883
    186       1.1366      0.95202
    187       1.1605      0.75261
    188       1.1705      0.67195
    189       1.1951      0.48626
    190       1.2037      0.42697
    191       1.3242     -0.04256
    192       1.3562     -0.06753
    193       1.3946     -0.06853
    194       1.4280     -0.05659
    195       1.4480     -0.04746
    196       1.5002     -0.02542
    197       1.6023     -0.00428
    198       1.7460     -0.00012
    199       1.8513     -0.00000
    200       2.0218     -0.00000
    201       2.2640     -0.00000
    202       2.3526     -0.00000
    203       2.8011     -0.00000
    204       2.9494     -0.00000
    205       2.9818     -0.00000
    206       3.0067     -0.00000
    207       3.0333     -0.00000
    208       3.2391     -0.00000
    209       3.4126     -0.00000
    210       3.5563     -0.00000
    211       3.5909     -0.00000
    212       3.6389     -0.00000
    213       3.7625     -0.00000
    214       3.8521     -0.00000
    215       3.9547     -0.00000
    216       4.1743     -0.00000
    217       4.3040     -0.00000
    218       4.4104     -0.00000
    219       4.4768     -0.00000
    220       4.6503     -0.00000
    221       4.7321     -0.00000
    222       4.8086     -0.00000
    223       5.1333     -0.00000
    224       5.5053     -0.00000
    225       5.9901     -0.00000
    226       6.5509     -0.00000
    227       6.6017      0.00000
    228       6.6793      0.00000


--------------------------------------------------------------------------------------------------------


 soft charge-density along one line, spin component           1
         0         1         2         3         4         5         6         7         8         9
 total charge-density along one line
 
 pseudopotential strength for first ion, spin component:           1
 10.100   0.016   0.004   0.012   0.000  -0.004  -0.011   0.000
  0.016  -0.002  -0.000  -0.000  -0.000  -0.000  -0.000   0.000
  0.004  -0.000  -4.248  -0.007   0.001  -0.010  -0.002   0.000
  0.012  -0.000  -0.007  -4.265   0.004  -0.002  -0.017   0.001
  0.000  -0.000   0.001   0.004  -4.245   0.000   0.001  -0.010
 -0.004  -0.000  -0.010  -0.002   0.000  -0.770  -0.000   0.000
 -0.011  -0.000  -0.002  -0.017   0.001  -0.000  -0.770   0.000
  0.000   0.000   0.000   0.001  -0.010   0.000   0.000  -0.770
 total augmentation occupancy for first ion, spin component:           1
  1.640  -0.878   0.019   0.024  -0.059   0.033   0.094  -0.026
 -0.878   1.281  -0.204  -0.608   0.105  -0.081  -0.245   0.037
  0.019  -0.204   0.839   0.184   0.003   0.114   0.051  -0.005
  0.024  -0.608   0.184   1.345  -0.020   0.051   0.250  -0.012
 -0.059   0.105   0.003  -0.020   0.790  -0.006  -0.013   0.100
  0.033  -0.081   0.114   0.051  -0.006   0.020   0.021  -0.003
  0.094  -0.245   0.051   0.250  -0.013   0.021   0.073  -0.007
 -0.026   0.037  -0.005  -0.012   0.100  -0.003  -0.007   0.014


------------------------ aborting loop because EDIFF is reached ----------------------------------------


    CHARGE:  cpu time    0.3999: real time    0.4026
    FORLOC:  cpu time    0.0436: real time    0.0439
    FORNL :  cpu time    2.2765: real time    2.2932
    STRESS:  cpu time    6.5523: real time    6.5998
    FORCOR:  cpu time    0.1543: real time    0.1553
    FORHAR:  cpu time    0.0717: real time    0.0722
    MIXING:  cpu time    0.0050: real time    0.0050
    OFIELD:  cpu time    0.0000: real time    0.0000

  FORCE on cell =-STRESS in cart. coord.  units (eV):
  Direction    XX          YY          ZZ          XY          YZ          ZX
  --------------------------------------------------------------------------------------
  Alpha Z   975.10247   975.10247   975.10247
  Ewald  111758.05417111779.39553************  -202.28140   258.59484   -97.83171
  Hartree118513.22003118505.79716************  -127.71848   110.87695   -53.85303
  E(xc)   -1666.60079 -1666.38342 -1673.85427    -0.50897     0.77241    -0.22978
  Local  ************************240969.60177   317.69543  -344.45460   144.31968
  n-local   126.87886   125.89405    94.64517    -1.60589     1.18226    -0.18630
  augment  1895.15750  1893.90299  1931.28622     3.22577    -4.77960     1.02306
  Kinetic  5524.87476  5517.97147  5600.36715    11.44541   -21.87888     7.02687
  Fock        0.00000     0.00000     0.00000     0.00000     0.00000     0.00000
  -------------------------------------------------------------------------------------
  Total     -33.31180   -35.03231     0.53143     0.25187     0.31338     0.26879
  in kB     -39.67491   -41.72406     0.63294     0.29999     0.37324     0.32013
  external pressure =      -26.92 kB  Pullay stress =        0.00 kB


 VOLUME and BASIS-vectors are now :
 -----------------------------------------------------------------------------
  energy-cutoff  :      450.00
  volume of cell :     1345.22
      direct lattice vectors                 reciprocal lattice vectors
     7.296955120 -4.212899000  0.000000000     0.137043463  0.000000000  0.000000000
     0.000000000  8.425798000  0.000000000     0.068521732  0.118683121  0.000000000
     0.000000000  0.000000000 21.879635000     0.000000000  0.000000000  0.045704602

  length of vectors
     8.425798004  8.425798000 21.879635000     0.137043463  0.137043463  0.045704602


 FORCES acting on ions
    electron-ion (+dipol)            ewald-force                    non-local-force                 convergence-correction
 -----------------------------------------------------------------------------------------------
   0.723E+01 0.730E+01 -.871E+03   -.801E+01 -.121E+02 0.857E+03   0.380E+00 0.320E+01 0.113E+02   -.544E-03 0.141E-01 0.686E-01
   -.801E+02 0.483E+02 -.159E+04   0.812E+02 -.452E+02 0.162E+04   -.552E+00 -.286E+01 -.228E+02   0.253E-02 0.154E-01 0.282E-01
   0.593E+02 -.102E+03 -.155E+04   -.686E+02 0.123E+03 0.161E+04   0.932E+01 -.198E+02 -.591E+02   0.122E-01 -.177E-01 -.127E-01
   -.580E+00 -.524E+00 0.235E+04   0.564E+00 0.401E+00 -.235E+04   0.352E-01 -.299E-01 -.121E+01   -.303E-01 0.112E+00 0.261E-01
   -.353E+00 -.410E+00 0.235E+04   0.302E+00 0.445E+00 -.234E+04   -.204E-01 -.368E-01 -.111E+01   0.383E-01 -.197E-01 -.551E-02
   -.206E+00 -.986E+00 0.235E+04   0.164E+00 0.955E+00 -.234E+04   0.614E-02 0.397E-02 -.116E+01   0.424E-01 -.450E-02 0.420E-01
   0.583E-01 -.373E+00 0.234E+04   -.371E-01 0.487E+00 -.234E+04   -.840E-02 0.108E-01 -.117E+01   -.370E-02 -.739E-01 0.311E-01
   0.107E+00 0.218E+00 0.235E+04   -.343E-01 -.318E+00 -.234E+04   -.261E-02 0.401E-01 -.127E+01   -.762E-01 0.417E-01 0.234E-01
   0.134E-01 0.434E+00 0.234E+04   -.574E-01 -.394E+00 -.234E+04   0.327E-01 0.295E-01 -.123E+01   0.103E-01 -.882E-01 -.929E-02
   0.943E+00 0.206E-01 0.235E+04   -.882E+00 -.133E+00 -.234E+04   -.749E-01 0.105E+00 -.105E+01   0.193E-01 -.220E-01 0.189E-01
   0.359E+00 0.569E+00 0.235E+04   -.264E+00 -.558E+00 -.235E+04   -.233E-01 -.460E-01 -.129E+01   -.355E-01 0.926E-01 0.960E-02
   -.199E+00 0.933E+00 0.235E+04   0.241E+00 -.885E+00 -.234E+04   -.299E-01 0.121E-02 -.105E+01   0.354E-01 -.377E-01 -.285E-01
   0.427E+01 0.277E+01 0.862E+03   -.448E+01 -.280E+01 -.862E+03   -.352E-01 0.977E-02 -.605E+00   0.742E-01 -.435E-01 0.165E-02
   0.981E+00 0.594E+00 0.872E+03   -.115E+01 -.608E+00 -.872E+03   0.135E+00 -.352E-01 -.557E+00   0.246E-01 0.336E-01 0.250E-01
   -.812E+00 0.115E+01 0.872E+03   0.966E+00 -.141E+01 -.872E+03   -.104E+00 0.119E+00 -.636E+00   -.310E-01 0.126E+00 0.478E-01
   -.104E+02 -.145E+01 0.864E+03   0.105E+02 0.134E+01 -.864E+03   0.183E+00 0.735E-01 -.436E+00   -.442E-01 0.973E-01 0.500E-01
   -.749E+00 -.842E+01 0.864E+03   0.684E+00 0.858E+01 -.863E+03   0.362E-01 0.112E+00 -.346E+00   0.545E-01 -.739E-01 0.140E-01
   0.140E+01 -.580E+01 0.865E+03   -.139E+01 0.587E+01 -.865E+03   -.135E+00 0.216E-01 -.384E+00   0.722E-02 0.681E-02 0.169E-01
   0.311E+01 -.220E+01 0.862E+03   -.311E+01 0.242E+01 -.861E+03   -.504E-01 -.367E-01 -.387E+00   -.234E-01 -.543E-01 0.272E-01
   0.568E+01 0.865E+01 0.866E+03   -.560E+01 -.873E+01 -.866E+03   -.605E-01 -.820E-01 -.457E+00   -.777E-01 0.405E-01 0.693E-01
   -.233E+01 0.482E+01 0.859E+03   0.237E+01 -.458E+01 -.859E+03   0.204E-01 -.967E-01 -.247E+00   0.161E-01 -.133E+00 0.116E-01
   -.512E+01 0.291E+01 -.627E+03   0.496E+01 -.300E+01 0.626E+03   0.316E+00 0.271E-01 0.745E+00   -.140E-01 0.216E-01 -.138E-01
   0.124E+02 -.245E+01 -.635E+03   -.124E+02 0.252E+01 0.635E+03   -.357E+00 0.806E-01 0.596E+00   -.924E-02 -.324E-01 0.489E-02
   -.633E+01 -.832E+01 -.660E+03   0.604E+01 0.860E+01 0.660E+03   0.416E+00 -.643E-01 0.788E+00   0.170E-03 0.424E-01 -.395E-01
   -.935E+01 0.109E+02 -.625E+03   0.893E+01 -.102E+02 0.625E+03   0.539E+00 -.924E+00 0.220E+00   -.160E-01 0.993E-01 0.111E-01
   0.121E+02 0.305E+01 -.616E+03   -.116E+02 -.309E+01 0.616E+03   -.574E+00 -.253E-01 0.925E+00   0.750E-01 -.259E-01 -.416E-01
   -.905E+01 -.853E+01 -.645E+03   0.893E+01 0.846E+01 0.645E+03   0.191E+00 0.923E-01 -.525E+00   0.844E-02 -.106E+00 0.581E-01
   -.670E+01 0.566E+01 -.626E+03   0.673E+01 -.559E+01 0.626E+03   0.194E+00 -.387E+00 0.623E+00   -.703E-01 0.288E-01 0.615E-01
   0.120E+02 -.285E+01 -.669E+03   -.120E+02 0.277E+01 0.669E+03   -.341E+00 0.225E-01 -.796E+00   -.736E-02 0.571E-01 0.710E-01
   -.484E+01 0.427E+01 -.642E+03   0.473E+01 -.442E+01 0.642E+03   0.285E+00 0.782E-01 -.233E+00   0.246E-01 -.610E-01 0.296E-01
   -.213E+02 0.626E+01 -.216E+04   0.217E+02 -.562E+01 0.216E+04   -.297E+00 -.892E+00 0.155E+01   -.148E-01 0.134E-01 -.264E-01
   0.149E+02 0.258E+02 -.217E+04   -.154E+02 -.264E+02 0.217E+04   0.540E+00 0.821E+00 0.121E+01   -.241E-01 -.125E-01 0.129E-01
   0.288E+02 -.964E+01 -.213E+04   -.293E+02 0.936E+01 0.213E+04   0.401E+00 0.220E+00 0.123E+01   0.155E-01 0.571E-01 0.301E-01
   -.118E+02 0.232E+01 -.216E+04   0.116E+02 -.240E+01 0.216E+04   0.297E+00 0.197E+00 0.126E+01   -.323E-01 -.182E-01 0.290E-01
   0.204E+02 0.814E+01 -.218E+04   -.202E+02 -.850E+01 0.218E+04   -.290E+00 0.410E+00 0.805E+00   0.555E-02 -.647E-01 0.209E-01
   0.700E+02 0.614E+02 -.200E+04   -.732E+02 -.597E+02 0.200E+04   0.308E+01 -.136E+01 -.219E+01   0.516E-01 -.871E-02 -.663E-02
   -.514E+02 -.423E+02 -.207E+04   0.528E+02 0.446E+02 0.207E+04   -.152E+01 -.224E+01 0.278E+01   0.110E-01 -.447E-01 -.281E-01
   -.646E+02 0.835E+02 -.206E+04   0.651E+02 -.845E+02 0.206E+04   -.651E+00 0.102E+01 -.937E+00   0.148E-02 0.546E-01 0.173E-01
   0.212E+02 -.702E+02 -.213E+04   -.209E+02 0.712E+02 0.213E+04   -.409E+00 -.670E+00 0.158E+01   -.104E-01 -.552E-02 0.307E-02
 -----------------------------------------------------------------------------------------------
   -.108E+02 0.230E+02 0.749E+02   -.497E-13 -.426E-13 -.318E-11   0.109E+02 -.228E+02 -.755E+02   0.942E-02 0.658E-02 0.649E+00
 
 
 POSITION                                       TOTAL-FORCE (eV/Angst)
 -----------------------------------------------------------------------------------
      5.12671      0.67913     10.40573        -0.405310     -1.609008     -2.775255
      6.61859     -0.56230     10.12633         0.539475      0.332764      0.269753
      4.97094      1.04074     11.47863         0.077464      0.725205      1.900747
      7.20031     -1.38846      1.62732        -0.011600     -0.045131      0.089406
      2.33567      1.42014      1.62732        -0.034840     -0.025117      0.138184
      4.76799      0.01584      1.62732         0.005902     -0.035161      0.120591
      7.20031      1.42015      1.62732         0.007944      0.047128      0.145050
      2.33567      4.22875      1.62732        -0.006690     -0.021763      0.161615
      4.76799      2.82445      1.62732        -0.002058     -0.023001      0.178865
      2.33567      7.03734      1.62732         0.004671     -0.033065      0.103045
      4.76799      5.63304      1.62732         0.034676      0.053679      0.110047
      7.20031      4.22874      1.62732         0.046396      0.007560      0.059629
      1.52490      0.01584      3.92052        -0.174312     -0.068908     -0.202334
      3.95722     -1.38846      3.92052        -0.013896     -0.019449     -0.379671
      6.38953     -2.79276      3.92052         0.018126     -0.015683     -0.456966
      1.52490      2.82445      3.92052         0.193180      0.058215     -0.153569
      3.95722      1.42015      3.92052         0.025091      0.195829     -0.082512
      6.38953      0.01585      3.92052        -0.122524      0.095462     -0.078212
      1.52490      5.63305      3.92052        -0.070496      0.117683     -0.163264
      3.95722      4.22874      3.92052        -0.059364     -0.127434     -0.147325
      6.38953      2.82445      3.92052         0.077278      0.003325     -0.126173
      0.69194      4.21072      6.15865         0.141104     -0.044172      0.197856
      3.16088      5.62169      6.16617        -0.301400      0.113535      0.066070
      5.54845     -1.39486      6.18400         0.120189      0.263150      0.540057
      0.68078      1.46735      6.15108         0.102567     -0.124999      0.556246
      3.15215      0.00761      6.13271         0.000785     -0.093013      0.664977
      0.71204      7.03429      6.21921         0.076967     -0.083216     -0.720200
      5.56460      4.24931      6.15907         0.154830     -0.290741      0.091402
      3.16843      2.81753      6.25601        -0.304162     -0.010183     -0.762168
      5.55678      1.41167      6.22064         0.205229     -0.143679     -0.497957
      2.35373      4.24623      8.43534         0.078526     -0.236946      0.134670
      4.76217      5.57507      8.48121         0.025105      0.192258     -0.199309
      2.32629      1.35785      8.42110        -0.053320     -0.012628      0.027009
      7.19925      4.17903      8.42265         0.063417      0.093697      0.382333
      2.36338      7.00005      8.48958        -0.073617     -0.011329     -0.129472
      4.67727      0.03146      8.60575        -0.086455      0.352184      0.462614
      7.27008      1.41174      8.40010        -0.060744     -0.019300      0.427101
      7.27946     -1.54302      8.59321        -0.108570      0.076835     -0.097518
      4.81194      2.80551      8.46330        -0.109566      0.365416      0.144638
 -----------------------------------------------------------------------------------
    total drift:                                0.042747      0.154184      0.013386
  FORCES: max atom, RMS     3.233454    0.699935
  Number: max atom                 1
  FORCE total and by dimension    4.371093    2.775255


--------------------------------------------------------------------------------------------------------



  FREE ENERGIE OF THE ION-ELECTRON SYSTEM (eV)
  ---------------------------------------------------
  free  energy   TOTEN  =      -230.41274891 eV

  energy  without entropy=     -230.39127837  energy(sigma->0) =     -230.40559207
 
 d Force = 0.9186223E-01[-0.983E-03, 0.185E+00]  d Energy = 0.9655442E-01-0.469E-02
 d Force = 0.1597287E+02[ 0.155E+02, 0.164E+02]  d Ewald  = 0.1597730E+02-0.443E-02


--------------------------------------------------------------------------------------------------------


    POTLOK:  cpu time    0.1427: real time    0.2045


--------------------------------------------------------------------------------------------------------


 stress matrix after NEB project (eV)
    -33.31180      0.25187      0.26879
      0.25187    -35.03231      0.31338
      0.26879      0.31338      0.53143
  FORCES: max atom, RMS     3.233454    0.699935
  FORCE total and by dimension    4.371093    2.775255
  Stress total and by dimension   48.349657   35.032312
 Quasi-Newton relaxation of ions (Broydens 2nd method)
  g(Force)  = 0.369E+00   g(Stress)= 0.000E+00

 retain information from N=  2 steps
 eigenvalues of (default step * inverse Hessian matrix)
  average eigenvalue of G=   0.5540
 eigenvalue spectrum of G is  0.5540  0.5540
  RESET_HESSIAN           0


--------------------------------------------------------------------------------------------------------


    WAVPRE:  cpu time    0.0677: real time    0.1787
    FEWALD:  cpu time    0.0009: real time    0.0009

 real space projection operators:
  total allocation   :      13559.06 KBytes
  max/ min on nodes  :       6788.20       6770.86

    ORTHCH:  cpu time    0.9111: real time    0.9178
     LOOP+:  cpu time   67.5265: real time   68.5109


--------------------------------------- Iteration      4(   1)  ---------------------------------------


    POTLOK:  cpu time    0.1323: real time    0.2167
    SETDIJ:  cpu time    0.0099: real time    0.0099
