 running on    8 total cores
 distrk:  each k-point on    8 cores,    1 groups
 distr:  one band on    2 cores,    4 groups
 using from now: INCAR     
 vasp.5.4.4 16052018 (build Apr 24 2014 20:13:14) complex standard
 Contain Constrained Minimization Technique (TS), Periodic NBO, VASPsol, libbeef, VASP2WANNIER90, Constrained Cell Relaxation
 POSCAR found type information on POSCAR  C  O  Pt
 POSCAR found :  3 types and      39 ions
 scaLAPACK will be used
 LDA part: xc-table for Pade appr. of Perdew
 POSCAR found type information on POSCAR  C  O  Pt
 POSCAR found :  3 types and      39 ions
 POSCAR, INCAR and KPOINTS ok, starting setup
 FFT: planning ...
 WAVECAR not read
 entering main loop
       N       E                     dE             d eps       ncg     rms          rms(c)
DAV:   1     0.242493351599E+04    0.24249E+04   -0.15956E+05  1824   0.129E+03
DAV:   2    -0.646927969041E+02   -0.24896E+04   -0.23142E+04  2136   0.286E+02
DAV:   3    -0.240306752748E+03   -0.17561E+03   -0.15932E+03  2168   0.690E+01
DAV:   4    -0.247769310143E+03   -0.74626E+01   -0.71966E+01  2288   0.136E+01
DAV:   5    -0.248001775447E+03   -0.23247E+00   -0.23069E+00  2416   0.247E+00    0.272E+01
RMM:   6    -0.245116558041E+03    0.28852E+01   -0.53833E+01  1831   0.147E+01    0.289E+01
RMM:   7    -0.246540632042E+03   -0.14241E+01   -0.31258E+01  1831   0.883E+00    0.224E+01
RMM:   8    -0.243618954454E+03    0.29217E+01   -0.10513E+01  1826   0.487E+00    0.231E+01
RMM:   9    -0.231669686873E+03    0.11949E+02   -0.64133E+00  1831   0.419E+00    0.857E+00
RMM:  10    -0.230500932183E+03    0.11688E+01   -0.18339E+00  1831   0.221E+00    0.490E+00
RMM:  11    -0.230253904945E+03    0.24703E+00   -0.46215E-01  1831   0.107E+00    0.327E+00
RMM:  12    -0.230091241577E+03    0.16266E+00   -0.22221E-01  1845   0.751E-01    0.175E+00
RMM:  13    -0.230098801496E+03   -0.75599E-02   -0.11130E-01  1835   0.545E-01    0.182E+00
RMM:  14    -0.230055760403E+03    0.43041E-01   -0.69744E-02  1832   0.455E-01    0.931E-01
RMM:  15    -0.230051235608E+03    0.45248E-02   -0.27465E-02  1831   0.285E-01    0.656E-01
RMM:  16    -0.230044352527E+03    0.68831E-02   -0.71331E-03  1831   0.147E-01    0.230E-01
RMM:  17    -0.230043755862E+03    0.59667E-03   -0.14357E-03  1809   0.638E-02    0.128E-01
RMM:  18    -0.230043927620E+03   -0.17176E-03   -0.67932E-04  1677   0.438E-02    0.102E-01
RMM:  19    -0.230043917399E+03    0.10221E-04   -0.31943E-04  1203   0.322E-02
   1 F= -.23004392E+03 E0= -.23003784E+03  d E =-.230044E+03
 BRION: g(F)=  0.347E+00 g(S)=  0.000E+00
 bond charge predicted
       N       E                     dE             d eps       ncg     rms          rms(c)
DAV:   1    -0.230272820338E+03   -0.22889E+00   -0.32571E+01  1856   0.106E+01    0.836E-01
RMM:   2    -0.230387307125E+03   -0.11449E+00   -0.62894E-01  1834   0.165E+00    0.212E+00
RMM:   3    -0.230334870095E+03    0.52437E-01   -0.48004E-02  1862   0.378E-01    0.101E+00
RMM:   4    -0.230322630854E+03    0.12239E-01   -0.17354E-02  1837   0.224E-01    0.614E-01
RMM:   5    -0.230318032788E+03    0.45981E-02   -0.58566E-03  1835   0.129E-01    0.398E-01
RMM:   6    -0.230317287053E+03    0.74574E-03   -0.73179E-03  1830   0.146E-01    0.276E-01
RMM:   7    -0.230316576594E+03    0.71046E-03   -0.35225E-03  1828   0.102E-01    0.171E-01
RMM:   8    -0.230316213004E+03    0.36359E-03   -0.10231E-03  1811   0.557E-02    0.892E-02
RMM:   9    -0.230316194491E+03    0.18513E-04   -0.22392E-04  1036   0.275E-02
   2 F= -.23031619E+03 E0= -.23030934E+03  d E =-.272277E+00
 BRION: g(F)=  0.249E+00 g(S)=  0.000E+00 retain N=  1 mean eig= 1.23
 eig:   1.228
 bond charge predicted
       N       E                     dE             d eps       ncg     rms          rms(c)
DAV:   1    -0.230378512753E+03   -0.62300E-01   -0.13807E+01  1840   0.712E+00    0.590E-01
RMM:   2    -0.230429798005E+03   -0.51285E-01   -0.47469E-01  1843   0.115E+00    0.879E-01
RMM:   3    -0.230422341645E+03    0.74564E-02   -0.18415E-02  1865   0.224E-01    0.698E-01
RMM:   4    -0.230416669407E+03    0.56722E-02   -0.49936E-03  1836   0.118E-01    0.429E-01
RMM:   5    -0.230415327487E+03    0.13419E-02   -0.47692E-03  1833   0.112E-01    0.400E-01
RMM:   6    -0.230414503096E+03    0.82439E-03   -0.65463E-03  1828   0.129E-01    0.311E-01
RMM:   7    -0.230412880662E+03    0.16224E-02   -0.25531E-03  1825   0.854E-02    0.101E-01
RMM:   8    -0.230412772402E+03    0.10826E-03   -0.34437E-04  1131   0.333E-02    0.585E-02
RMM:   9    -0.230412748912E+03    0.23491E-04   -0.12047E-04   993   0.222E-02
   3 F= -.23041275E+03 E0= -.23040559E+03  d E =-.965544E-01
 BRION: g(F)=  0.369E+00 g(S)=  0.000E+00 retain N=  2 mean eig= 0.55
 eig:   0.554  0.554
 bond charge predicted
       N       E                     dE             d eps       ncg     rms          rms(c)
[mpiexec@node06] Sending Ctrl-C to processes as requested
[mpiexec@node06] Press Ctrl-C again to force abort
Ctrl-C caught... cleaning up processes
APPLICATION TERMINATED WITH THE EXIT STRING: Hangup (signal 1)
