<?xml version="1.0" encoding="ISO-8859-1"?>
<modeling>
 <generator>
  <i name="program" type="string"> vasp </i>
  <i name="version" type="string">5.4.4  </i>
  <i name="subversion" type="string">16052018 (build Apr 24 2014 20:13:14) complex standard parallel Constrained Minimization Technique (TS), Periodic NBO, VASPsol, libbeef, VASP2WANNIER90, Constrained Cell Relaxation </i>
  <i name="platform" type="string">Center for Computational Chemistry </i>
  <i name="user" type="string">phu </i>
  <i name="host" type="string">node06 </i>
  <i name="date" type="string">2025 09 27 </i>
  <i name="time" type="string">23:39:26 </i>
 </generator>
 <incar>
  <i type="string" name="SYSTEM"> metal</i>
  <i type="int" name="ISTART">     0</i>
  <i type="string" name="PREC">normal</i>
  <i type="string" name="ALGO">Fast</i>
  <i type="int" name="NSIM">     4</i>
  <i type="int" name="ISPIN">     1</i>
  <i type="int" name="NELMIN">     8</i>
  <i type="int" name="IBRION">     1</i>
  <i name="EDIFFG">     -0.05000000</i>
  <i type="int" name="NSW">  5000</i>
  <i type="int" name="ISIF">     2</i>
  <i type="int" name="ISYM">     0</i>
  <i name="ENCUT">    450.00000000</i>
  <i name="POTIM">      0.20000000</i>
  <i type="string" name="LREAL">A</i>
  <i type="int" name="ISMEAR">     1</i>
  <i name="SIGMA">      0.20000000</i>
  <i type="logical" name="LWAVE"> F  </i>
  <i type="logical" name="LCHARG"> F  </i>
  <v type="int" name="KPOINT_BSE">    -1     0     0     0</v>
  <i type="int" name="VOSKOWN">     0</i>
 </incar>
 <structure name="primitive_cell" >
  <crystal>
   <varray name="basis" >
    <v>       7.29695512      -4.21289900       0.00000000 </v>
    <v>       0.00000000       8.42579800       0.00000000 </v>
    <v>       0.00000000       0.00000000      21.87963500 </v>
   </varray>
   <i name="volume">   1345.21837528 </i>
   <varray name="rec_basis" >
    <v>       0.13704346       0.00000000       0.00000000 </v>
    <v>       0.06852173       0.11868312       0.00000000 </v>
    <v>       0.00000000       0.00000000       0.04570460 </v>
   </varray>
  </crystal>
  <varray name="positions" >
   <v>      -0.29321683       0.43691001       0.47609815 </v>
   <v>      -0.32135338       0.46376590      -0.47401331 </v>
   <v>      -0.09478631       0.38375355       0.46163896 </v>
   <v>      -0.35843299       0.32298133       0.39227967 </v>
   <v>      -0.34016493      -0.33903102       0.38610903 </v>
   <v>      -0.00336360      -0.33361272       0.38285626 </v>
   <v>       0.31963258       0.32136235       0.38491566 </v>
   <v>      -0.00268367       0.31647803       0.39353773 </v>
   <v>       0.32382271      -0.00741670       0.38826501 </v>
   <v>      -0.34758854      -0.01302073       0.38794770 </v>
   <v>      -0.23986181      -0.45118456       0.28566732 </v>
   <v>      -0.01365900      -0.01225977       0.38413726 </v>
   <v>      -0.24046662       0.21243932       0.28156413 </v>
   <v>       0.43219332       0.21750897       0.27886549 </v>
   <v>       0.32227784      -0.33393028       0.38521531 </v>
   <v>       0.43664295      -0.44729666       0.28761706 </v>
   <v>       0.09389651      -0.45294015       0.28121337 </v>
   <v>       0.09654295      -0.11655355       0.28613640 </v>
   <v>      -0.23864418      -0.11324757       0.28138976 </v>
   <v>       0.43568742      -0.11574110       0.28171645 </v>
   <v>       0.09231431       0.22080689       0.27990092 </v>
   <v>      -0.45768900       0.43970300       0.17918600 </v>
   <v>      -0.12435600       0.43970300       0.17918600 </v>
   <v>      -0.45768900       0.10636900       0.17918600 </v>
   <v>      -0.12435600      -0.22696400       0.17918600 </v>
   <v>       0.20897700       0.10636900       0.17918600 </v>
   <v>      -0.12435600       0.10636900       0.17918600 </v>
   <v>      -0.45768900      -0.22696400       0.17918600 </v>
   <v>       0.20897700      -0.22696400       0.17918600 </v>
   <v>       0.20897700       0.43970300       0.17918600 </v>
   <v>      -0.34657800       0.32859100       0.07437600 </v>
   <v>      -0.34657800      -0.33807500       0.07437600 </v>
   <v>      -0.01324500      -0.33807500       0.07437600 </v>
   <v>       0.32008800       0.32859100       0.07437600 </v>
   <v>      -0.01324500       0.32859100       0.07437600 </v>
   <v>       0.32008800      -0.00474200       0.07437600 </v>
   <v>      -0.34657800      -0.00474200       0.07437600 </v>
   <v>      -0.01324500      -0.00474200       0.07437600 </v>
   <v>       0.32008800      -0.33807500       0.07437600 </v>
  </varray>
 </structure>
 <varray name="primitive_index" >
  <v type="int" >        1 </v>
  <v type="int" >        3 </v>
  <v type="int" >        2 </v>
  <v type="int" >       36 </v>
  <v type="int" >       39 </v>
  <v type="int" >       37 </v>
  <v type="int" >       33 </v>
  <v type="int" >       38 </v>
  <v type="int" >       35 </v>
  <v type="int" >       32 </v>
  <v type="int" >       30 </v>
  <v type="int" >       34 </v>
  <v type="int" >       24 </v>
  <v type="int" >       26 </v>
  <v type="int" >       31 </v>
  <v type="int" >       29 </v>
  <v type="int" >       22 </v>
  <v type="int" >       27 </v>
  <v type="int" >       28 </v>
  <v type="int" >       23 </v>
  <v type="int" >       25 </v>
  <v type="int" >       17 </v>
  <v type="int" >       18 </v>
  <v type="int" >       14 </v>
  <v type="int" >       21 </v>
  <v type="int" >       13 </v>
  <v type="int" >       15 </v>
  <v type="int" >       20 </v>
  <v type="int" >       19 </v>
  <v type="int" >       16 </v>
  <v type="int" >        6 </v>
  <v type="int" >        9 </v>
  <v type="int" >        7 </v>
  <v type="int" >        5 </v>
  <v type="int" >        4 </v>
  <v type="int" >       10 </v>
  <v type="int" >       11 </v>
  <v type="int" >       12 </v>
  <v type="int" >        8 </v>
 </varray>
 <kpoints>
  <generation param="Gamma">
   <v type="int" name="divisions">       2        2        1 </v>
   <v name="usershift">      0.00000000       0.00000000       0.00000000 </v>
   <v name="genvec1">      0.50000000       0.00000000       0.00000000 </v>
   <v name="genvec2">     -0.00000000       0.50000000       0.00000000 </v>
   <v name="genvec3">      0.00000000       0.00000000       1.00000000 </v>
   <v name="shift">      0.00000000       0.00000000       0.00000000 </v>
  </generation>
  <varray name="kpointlist" >
   <v>       0.00000000       0.00000000       0.00000000 </v>
   <v>       0.50000000       0.00000000       0.00000000 </v>
   <v>      -0.00000000       0.50000000       0.00000000 </v>
   <v>       0.50000000       0.50000000       0.00000000 </v>
  </varray>
  <varray name="weights" >
   <v>       0.25000000 </v>
   <v>       0.25000000 </v>
   <v>       0.25000000 </v>
   <v>       0.25000000 </v>
  </varray>
 </kpoints>
 <parameters>
  <separator name="general" >
   <i type="string" name="SYSTEM">metal</i>
   <i type="logical" name="LCOMPAT"> F  </i>
  </separator>
  <separator name="electronic" >
   <i type="string" name="PREC">normal</i>
   <i name="ENMAX">    450.00000000</i>
   <i name="ENAUG">    644.87300000</i>
   <i name="EDIFF">      0.00010000</i>
   <i type="int" name="IALGO">    68</i>
   <i type="int" name="IWAVPR">    11</i>
   <i type="int" name="NBANDS">   228</i>
   <i name="NELECT">    376.00000000</i>
   <i type="int" name="TURBO">     0</i>
   <i type="int" name="IRESTART">     0</i>
   <i type="int" name="NREBOOT">     0</i>
   <i type="int" name="NMIN">     0</i>
   <i name="EREF">      0.00000000</i>
   <separator name="electronic smearing" >
    <i type="int" name="ISMEAR">     1</i>
    <i name="SIGMA">      0.20000000</i>
    <i name="KSPACING">      0.50000000</i>
    <i type="logical" name="KGAMMA"> T  </i>
   </separator>
   <separator name="electronic projectors" >
    <i type="logical" name="LREAL"> T  </i>
    <v name="ROPT">     -0.00050000     -0.00050000     -0.00050000</v>
    <i type="int" name="LMAXPAW">  -100</i>
    <i type="int" name="LMAXMIX">     2</i>
    <i type="logical" name="NLSPLINE"> F  </i>
   </separator>
   <separator name="electronic startup" >
    <i type="int" name="ISTART">     0</i>
    <i type="int" name="ICHARG">     2</i>
    <i type="int" name="INIWAV">     1</i>
   </separator>
   <separator name="electronic spin" >
    <i type="int" name="ISPIN">     1</i>
    <i type="logical" name="LNONCOLLINEAR"> F  </i>
    <v name="MAGMOM">      1.00000000      1.00000000      1.00000000      1.00000000      1.00000000      1.00000000      1.00000000      1.00000000      1.00000000      1.00000000      1.00000000      1.00000000      1.00000000      1.00000000      1.00000000      1.00000000      1.00000000      1.00000000      1.00000000      1.00000000
      1.00000000      1.00000000      1.00000000      1.00000000      1.00000000      1.00000000      1.00000000      1.00000000      1.00000000      1.00000000      1.00000000      1.00000000      1.00000000      1.00000000      1.00000000      1.00000000      1.00000000      1.00000000      1.00000000</v>
    <i name="NUPDOWN">     -1.00000000</i>
    <i type="logical" name="LSORBIT"> F  </i>
    <v name="SAXIS">      0.00000000      0.00000000      1.00000000</v>
    <i type="logical" name="LSPIRAL"> F  </i>
    <v name="QSPIRAL">      0.00000000      0.00000000      0.00000000</v>
    <i type="logical" name="LZEROZ"> F  </i>
   </separator>
   <separator name="electronic exchange-correlation" >
    <i type="logical" name="LASPH"> F  </i>
    <i type="logical" name="LMETAGGA"> F  </i>
   </separator>
   <separator name="electronic convergence" >
    <i type="int" name="NELM">    60</i>
    <i type="int" name="NELMDL">    -5</i>
    <i type="int" name="NELMIN">     8</i>
    <i name="ENINI">    450.00000000</i>
    <separator name="electronic convergence detail" >
     <i type="logical" name="LDIAG"> T  </i>
     <i type="logical" name="LSUBROT"> F  </i>
     <i name="WEIMIN">      0.00100000</i>
     <i name="EBREAK">      0.00000011</i>
     <i name="DEPER">      0.30000000</i>
     <i type="int" name="NRMM">     4</i>
     <i name="TIME">      0.40000000</i>
    </separator>
   </separator>
   <separator name="electronic mixer" >
    <i name="AMIX">      0.40000000</i>
    <i name="BMIX">      1.00000000</i>
    <i name="AMIN">      0.10000000</i>
    <i name="AMIX_MAG">      1.60000000</i>
    <i name="BMIX_MAG">      1.00000000</i>
    <separator name="electronic mixer details" >
     <i type="int" name="IMIX">     4</i>
     <i type="logical" name="MIXFIRST"> F  </i>
     <i type="int" name="MAXMIX">   -45</i>
     <i name="WC">    100.00000000</i>
     <i type="int" name="INIMIX">     1</i>
     <i type="int" name="MIXPRE">     1</i>
     <i type="int" name="MREMOVE">     5</i>
    </separator>
   </separator>
   <separator name="electronic dipolcorrection" >
    <i type="logical" name="LDIPOL"> F  </i>
    <i type="logical" name="LMONO"> F  </i>
    <i type="int" name="IDIPOL">     0</i>
    <i name="EPSILON">      1.00000000</i>
    <v name="DIPOL">   -100.00000000   -100.00000000   -100.00000000</v>
    <i name="EFIELD">      0.00000000</i>
   </separator>
  </separator>
  <separator name="grids" >
   <i type="int" name="NGX">    48</i>
   <i type="int" name="NGY">    48</i>
   <i type="int" name="NGZ">   120</i>
   <i type="int" name="NGXF">    96</i>
   <i type="int" name="NGYF">    96</i>
   <i type="int" name="NGZF">   240</i>
   <i type="logical" name="ADDGRID"> F  </i>
  </separator>
  <separator name="ionic" >
   <i type="int" name="NSW">  5000</i>
   <i type="int" name="IBRION">     1</i>
   <i type="int" name="MDALGO">     0</i>
   <i type="int" name="ISIF">     2</i>
   <i name="PSTRESS">      0.00000000</i>
   <i name="EDIFFG">     -0.05000000</i>
   <i type="int" name="NFREE">     0</i>
   <i name="POTIM">      0.20000000</i>
   <i name="SMASS">     -3.00000000</i>
   <i name="SCALEE">      1.00000000</i>
  </separator>
  <separator name="ionic md" >
   <i name="TEBEG">      0.00010000</i>
   <i name="TEEND">      0.00010000</i>
   <i type="int" name="NBLOCK">     1</i>
   <i type="int" name="KBLOCK">  5000</i>
   <i type="int" name="NPACO">   256</i>
   <i name="APACO">     16.00000000</i>
  </separator>
  <separator name="symmetry" >
   <i type="int" name="ISYM">     0</i>
   <i name="SYMPREC">      0.00001000</i>
  </separator>
  <separator name="dos" >
   <i type="int" name="LORBIT">     0</i>
   <v name="RWIGS">     -1.00000000     -1.00000000     -1.00000000</v>
   <i type="int" name="NEDOS">   301</i>
   <i name="EMIN">     10.00000000</i>
   <i name="EMAX">    -10.00000000</i>
   <i name="EFERMI">      0.00000000</i>
  </separator>
  <separator name="writing" >
   <i type="int" name="NWRITE">     2</i>
   <i type="logical" name="LWAVE"> F  </i>
   <i type="logical" name="LDOWNSAMPLE"> F  </i>
   <i type="logical" name="LCHARG"> F  </i>
   <i type="logical" name="LPARD"> F  </i>
   <i type="logical" name="LVTOT"> F  </i>
   <i type="logical" name="LVHAR"> F  </i>
   <i type="logical" name="LELF"> F  </i>
   <i type="logical" name="LOPTICS"> F  </i>
   <v name="STM">      0.00000000      0.00000000      0.00000000      0.00000000      0.00000000      0.00000000      0.00000000</v>
  </separator>
  <separator name="performance" >
   <i type="int" name="NPAR">     4</i>
   <i type="int" name="NSIM">     4</i>
   <i type="int" name="NBLK">    -1</i>
   <i type="logical" name="LPLANE"> T  </i>
   <i type="logical" name="LSCALAPACK"> T  </i>
   <i type="logical" name="LSCAAWARE"> F  </i>
   <i type="logical" name="LSCALU"> F  </i>
   <i type="logical" name="LASYNC"> F  </i>
   <i type="logical" name="LORBITALREAL"> F  </i>
  </separator>
  <separator name="miscellaneous" >
   <i type="int" name="IDIOT">     3</i>
   <i type="int" name="ISPECIAL">     0</i>
   <i type="logical" name="LMUSIC"> F  </i>
   <v name="POMASS">     12.01100000     16.00000000    195.08000000</v>
   <v name="DARWINR">      0.00000000      0.00000000      0.00000000</v>
   <v name="DARWINV">      1.00000000      1.00000000      1.00000000</v>
   <i type="logical" name="LCORR"> T  </i>
  </separator>
  <i type="logical" name="GGA_COMPAT"> T  </i>
  <i type="logical" name="LBERRY"> F  </i>
  <i type="int" name="ICORELEVEL">     0</i>
  <i type="logical" name="LDAU"> F  </i>
  <i type="int" name="I_CONSTRAINED_M">     0</i>
  <separator name="electronic exchange-correlation" >
   <i type="string" name="GGA">--</i>
   <i type="int" name="VOSKOWN">     0</i>
   <i type="logical" name="LHFCALC"> F  </i>
   <i type="string" name="PRECFOCK"></i>
   <i type="logical" name="LSYMGRAD"> F  </i>
   <i type="logical" name="LHFONE"> F  </i>
   <i type="logical" name="LRHFCALC"> F  </i>
   <i type="logical" name="LTHOMAS"> F  </i>
   <i type="logical" name="LMODELHF"> F  </i>
   <i name="ENCUT4O">     -1.00000000</i>
   <i type="int" name="EXXOEP">     0</i>
   <i type="int" name="FOURORBIT">     0</i>
   <i name="AEXX">      0.00000000</i>
   <i name="HFALPHA">      0.00000000</i>
   <i name="MCALPHA">      0.00000000</i>
   <i name="ALDAX">      1.00000000</i>
   <i name="AGGAX">      1.00000000</i>
   <i name="ALDAC">      1.00000000</i>
   <i name="AGGAC">      1.00000000</i>
   <i type="int" name="NKREDX">     1</i>
   <i type="int" name="NKREDY">     1</i>
   <i type="int" name="NKREDZ">     1</i>
   <i type="logical" name="SHIFTRED"> F  </i>
   <i type="logical" name="ODDONLY"> F  </i>
   <i type="logical" name="EVENONLY"> F  </i>
   <i type="int" name="LMAXFOCK">     0</i>
   <i type="int" name="NMAXFOCKAE">     0</i>
   <i type="logical" name="LFOCKAEDFT"> F  </i>
   <i name="HFSCREEN">      0.00000000</i>
   <i name="HFSCREENC">      0.00000000</i>
   <i type="int" name="NBANDSGWLOW">     0</i>
  </separator>
  <separator name="vdW DFT" >
   <i type="logical" name="LUSE_VDW"> F  </i>
   <i name="Zab_VDW">     -0.84910000</i>
   <i name="PARAM1">      0.12340000</i>
   <i name="PARAM2">      1.00000000</i>
   <i name="PARAM3">      0.00000000</i>
  </separator>
  <separator name="model GW" >
   <i type="int" name="MODEL_GW">     0</i>
   <i name="MODEL_EPS0">     20.69566731</i>
   <i name="MODEL_ALPHA">      1.00000000</i>
  </separator>
  <separator name="linear response parameters" >
   <i type="logical" name="LEPSILON"> F  </i>
   <i type="logical" name="LRPA"> F  </i>
   <i type="logical" name="LNABLA"> F  </i>
   <i type="logical" name="LVEL"> F  </i>
   <i type="int" name="KINTER">     0</i>
   <i name="CSHIFT">      0.10000000</i>
   <i name="OMEGAMAX">     -1.00000000</i>
   <i name="DEG_THRESHOLD">      0.00200000</i>
   <i name="RTIME">     -0.10000000</i>
   <i name="WPLASMAI">      0.00000000</i>
   <v name="DFIELD">      0.00000000      0.00000000      0.00000000</v>
   <v name="WPLASMA">      0.00000000      0.00000000      0.00000000      0.00000000      0.00000000      0.00000000      0.00000000      0.00000000      0.00000000</v>
  </separator>
  <separator name="orbital magnetization" >
   <i type="logical" name="NUCIND"> F  </i>
   <v name="MAGPOS">      0.00000000      0.00000000      0.00000000</v>
   <i type="logical" name="LNICSALL"> T  </i>
   <i type="logical" name="ORBITALMAG"> F  </i>
   <i type="logical" name="LMAGBLOCH"> F  </i>
   <i type="logical" name="LCHIMAG"> F  </i>
   <i type="logical" name="LGAUGE"> T  </i>
   <i type="int" name="MAGATOM">     0</i>
   <v name="MAGDIPOL">      0.00000000      0.00000000      0.00000000</v>
   <v name="AVECCONST">      0.00000000      0.00000000      0.00000000</v>
  </separator>
  <separator name="response functions" >
   <i type="logical" name="LADDER"> F  </i>
   <i type="logical" name="LRPAFORCE"> F  </i>
   <i type="logical" name="LFXC"> F  </i>
   <i type="logical" name="LHARTREE"> T  </i>
   <i type="int" name="IBSE">     0</i>
   <v type="int" name="KPOINT">    -1     0     0     0</v>
   <i type="logical" name="LTCTE"> F  </i>
   <i type="logical" name="LTETE"> F  </i>
   <i type="logical" name="LTRIPLET"> F  </i>
   <i type="logical" name="LFXCEPS"> F  </i>
   <i type="logical" name="LFXHEG"> F  </i>
   <i type="int" name="NATURALO">     2</i>
   <i type="logical" name="L2ORDER"> F  </i>
   <i type="logical" name="LMP2LT"> F  </i>
   <i type="logical" name="LUSEW"> F  </i>
   <i name="ENCUTGW">     -2.00000000</i>
   <i name="ENCUTGWSOFT">     -2.00000000</i>
   <i name="ENCUTLF">     -1.00000000</i>
   <i type="int" name="LMAXMP2">    -1</i>
   <i name="SCISSOR">      0.00000000</i>
   <i type="int" name="NOMEGA">     0</i>
   <i type="int" name="NOMEGAR">     0</i>
   <i type="int" name="NBANDSGW">    -1</i>
   <i type="int" name="NBANDSO">    -1</i>
   <i type="int" name="NBANDSV">    -1</i>
   <i type="int" name="NELM">     1</i>
   <i type="int" name="NELMHF">     1</i>
   <i type="int" name="DIM">     3</i>
   <i type="int" name="ANTIRES">     0</i>
   <i name="OMEGAMAX">    -30.00000000</i>
   <i name="OMEGAMIN">    -30.00000000</i>
   <i name="OMEGATL">   -200.00000000</i>
   <i type="int" name="OMEGAGRID">   140</i>
   <i name="CSHIFT">     -0.10000000</i>
   <i type="logical" name="SELFENERGY"> F  </i>
   <i type="logical" name="LSPECTRAL"> F  </i>
   <i type="logical" name="LSPECTRALGW"> F  </i>
   <i type="logical" name="LSINGLES"> F  </i>
   <i type="logical" name="LFERMIGW"> F  </i>
   <i type="logical" name="ODDONLYGW"> F  </i>
   <i type="logical" name="EVENONLYGW"> F  </i>
   <i type="int" name="NKREDLFX">     1</i>
   <i type="int" name="NKREDLFY">     1</i>
   <i type="int" name="NKREDLFZ">     1</i>
   <i type="int" name="MAXMEM">  2800</i>
   <i type="int" name="TELESCOPE">     0</i>
   <i type="int" name="TAUPAR">     1</i>
   <i type="int" name="OMEGAPAR">    -1</i>
   <i name="LAMBDA">      1.00000000</i>
  </separator>
  <separator name="External order field" >
   <i name="OFIELD_KAPPA">      0.00000000</i>
   <v name="OFIELD_K">      0.00000000      0.00000000      0.00000000</v>
   <i name="OFIELD_Q6_NEAR">      0.00000000</i>
   <i name="OFIELD_Q6_FAR">      0.00000000</i>
   <i name="OFIELD_A">      0.00000000</i>
  </separator>
  <separator name="solvation model" >
   <i type="logical" name="LSOL"> F  </i>
  </separator>
 </parameters>
 <atominfo>
  <atoms>      39 </atoms>
  <types>       3 </types>
  <array name="atoms" >
   <dimension dim="1">ion</dimension>
   <field type="string">element</field>
   <field type="int">atomtype</field>
   <set>
    <rc><c>C </c><c>   1</c></rc>
    <rc><c>O </c><c>   2</c></rc>
    <rc><c>O </c><c>   2</c></rc>
    <rc><c>Pt</c><c>   3</c></rc>
    <rc><c>Pt</c><c>   3</c></rc>
    <rc><c>Pt</c><c>   3</c></rc>
    <rc><c>Pt</c><c>   3</c></rc>
    <rc><c>Pt</c><c>   3</c></rc>
    <rc><c>Pt</c><c>   3</c></rc>
    <rc><c>Pt</c><c>   3</c></rc>
    <rc><c>Pt</c><c>   3</c></rc>
    <rc><c>Pt</c><c>   3</c></rc>
    <rc><c>Pt</c><c>   3</c></rc>
    <rc><c>Pt</c><c>   3</c></rc>
    <rc><c>Pt</c><c>   3</c></rc>
    <rc><c>Pt</c><c>   3</c></rc>
    <rc><c>Pt</c><c>   3</c></rc>
    <rc><c>Pt</c><c>   3</c></rc>
    <rc><c>Pt</c><c>   3</c></rc>
    <rc><c>Pt</c><c>   3</c></rc>
    <rc><c>Pt</c><c>   3</c></rc>
    <rc><c>Pt</c><c>   3</c></rc>
    <rc><c>Pt</c><c>   3</c></rc>
    <rc><c>Pt</c><c>   3</c></rc>
    <rc><c>Pt</c><c>   3</c></rc>
    <rc><c>Pt</c><c>   3</c></rc>
    <rc><c>Pt</c><c>   3</c></rc>
    <rc><c>Pt</c><c>   3</c></rc>
    <rc><c>Pt</c><c>   3</c></rc>
    <rc><c>Pt</c><c>   3</c></rc>
    <rc><c>Pt</c><c>   3</c></rc>
    <rc><c>Pt</c><c>   3</c></rc>
    <rc><c>Pt</c><c>   3</c></rc>
    <rc><c>Pt</c><c>   3</c></rc>
    <rc><c>Pt</c><c>   3</c></rc>
    <rc><c>Pt</c><c>   3</c></rc>
    <rc><c>Pt</c><c>   3</c></rc>
    <rc><c>Pt</c><c>   3</c></rc>
    <rc><c>Pt</c><c>   3</c></rc>
   </set>
  </array>
  <array name="atomtypes" >
   <dimension dim="1">type</dimension>
   <field type="int">atomspertype</field>
   <field type="string">element</field>
   <field>mass</field>
   <field>valence</field>
   <field type="string">pseudopotential</field>
   <set>
    <rc><c>   1</c><c>C </c><c>     12.01100000</c><c>      4.00000000</c><c> PAW_PBE C 08Apr2002                    </c></rc>
    <rc><c>   2</c><c>O </c><c>     16.00000000</c><c>      6.00000000</c><c> PAW_PBE O 08Apr2002                    </c></rc>
    <rc><c>  36</c><c>Pt</c><c>    195.08000000</c><c>     10.00000000</c><c>  PAW_PBE Pt 04Feb2005                  </c></rc>
   </set>
  </array>
 </atominfo>
 <structure name="initialpos" >
  <crystal>
   <varray name="basis" >
    <v>       7.29695512      -4.21289900       0.00000000 </v>
    <v>       0.00000000       8.42579800       0.00000000 </v>
    <v>       0.00000000       0.00000000      21.87963500 </v>
   </varray>
   <i name="volume">   1345.21837528 </i>
   <varray name="rec_basis" >
    <v>       0.13704346       0.00000000       0.00000000 </v>
    <v>       0.06852173       0.11868312       0.00000000 </v>
    <v>       0.00000000       0.00000000       0.04570460 </v>
   </varray>
  </crystal>
  <varray name="positions" >
   <v>       0.70678317       0.43691001       0.47609815 </v>
   <v>       0.90521369       0.38375355       0.46163896 </v>
   <v>       0.67864662       0.46376590       0.52598669 </v>
   <v>       0.98675500       0.32859100       0.07437600 </v>
   <v>       0.32008800       0.32859100       0.07437600 </v>
   <v>       0.65342200       0.32859100       0.07437600 </v>
   <v>       0.98675500       0.66192500       0.07437600 </v>
   <v>       0.32008800       0.66192500       0.07437600 </v>
   <v>       0.65342200       0.66192500       0.07437600 </v>
   <v>       0.32008800       0.99525800       0.07437600 </v>
   <v>       0.65342200       0.99525800       0.07437600 </v>
   <v>       0.98675500       0.99525800       0.07437600 </v>
   <v>       0.20897700       0.10636900       0.17918600 </v>
   <v>       0.54231100       0.10636900       0.17918600 </v>
   <v>       0.87564400       0.10636900       0.17918600 </v>
   <v>       0.20897700       0.43970300       0.17918600 </v>
   <v>       0.54231100       0.43970300       0.17918600 </v>
   <v>       0.87564400       0.43970300       0.17918600 </v>
   <v>       0.20897700       0.77303600       0.17918600 </v>
   <v>       0.54231100       0.77303600       0.17918600 </v>
   <v>       0.87564400       0.77303600       0.17918600 </v>
   <v>       0.09389651       0.54705985       0.28121337 </v>
   <v>       0.43568742       0.88425890       0.28171645 </v>
   <v>       0.75953338       0.21243932       0.28156413 </v>
   <v>       0.09231431       0.22080689       0.27990092 </v>
   <v>       0.43219332       0.21750897       0.27886549 </v>
   <v>       0.09654295       0.88344645       0.28613640 </v>
   <v>       0.76135582       0.88675243       0.28138976 </v>
   <v>       0.43664295       0.55270334       0.28761706 </v>
   <v>       0.76013819       0.54881544       0.28566732 </v>
   <v>       0.32227784       0.66606972       0.38521531 </v>
   <v>       0.65241146       0.98697927       0.38794770 </v>
   <v>       0.31963258       0.32136235       0.38491566 </v>
   <v>       0.98634100       0.98774023       0.38413726 </v>
   <v>       0.32382271       0.99258330       0.38826501 </v>
   <v>       0.64156701       0.32298133       0.39227967 </v>
   <v>       0.99663640       0.66638728       0.38285626 </v>
   <v>       0.99731633       0.31647803       0.39353773 </v>
   <v>       0.65983507       0.66096898       0.38610903 </v>
  </varray>
  <varray name="selective"  type="logical" >
   <v type="logical" >  T  T  T </v>
   <v type="logical" >  T  T  T </v>
   <v type="logical" >  T  T  T </v>
   <v type="logical" >  F  F  F </v>
   <v type="logical" >  F  F  F </v>
   <v type="logical" >  F  F  F </v>
   <v type="logical" >  F  F  F </v>
   <v type="logical" >  F  F  F </v>
   <v type="logical" >  F  F  F </v>
   <v type="logical" >  F  F  F </v>
   <v type="logical" >  F  F  F </v>
   <v type="logical" >  F  F  F </v>
   <v type="logical" >  F  F  F </v>
   <v type="logical" >  F  F  F </v>
   <v type="logical" >  F  F  F </v>
   <v type="logical" >  F  F  F </v>
   <v type="logical" >  F  F  F </v>
   <v type="logical" >  F  F  F </v>
   <v type="logical" >  F  F  F </v>
   <v type="logical" >  F  F  F </v>
   <v type="logical" >  F  F  F </v>
   <v type="logical" >  T  T  T </v>
   <v type="logical" >  T  T  T </v>
   <v type="logical" >  T  T  T </v>
   <v type="logical" >  T  T  T </v>
   <v type="logical" >  T  T  T </v>
   <v type="logical" >  T  T  T </v>
   <v type="logical" >  T  T  T </v>
   <v type="logical" >  T  T  T </v>
   <v type="logical" >  T  T  T </v>
   <v type="logical" >  T  T  T </v>
   <v type="logical" >  T  T  T </v>
   <v type="logical" >  T  T  T </v>
   <v type="logical" >  T  T  T </v>
   <v type="logical" >  T  T  T </v>
   <v type="logical" >  T  T  T </v>
   <v type="logical" >  T  T  T </v>
   <v type="logical" >  T  T  T </v>
   <v type="logical" >  T  T  T </v>
  </varray>
  <nose>
   <v>      -3.00000000       0.00000000       0.00010000       0.00010000 </v>
  </nose>
 </structure>
 <calculation>
  <scstep>
   <time name="dav">    8.80    8.86</time>
   <time name="total">    8.96    9.14</time>
   <energy>
    <i name="alphaZ">    975.10247152 </i>
    <i name="ewald">  92063.34585411 </i>
    <i name="hartreedc">-121147.88920714 </i>
    <i name="XCdc">    190.24735957 </i>
    <i name="pawpsdc">  24789.08602224 </i>
    <i name="pawaedc"> -23775.73976456 </i>
    <i name="eentropy">      0.00885716 </i>
    <i name="bandstr">   2070.87776222 </i>
    <i name="atom">  27259.89416086 </i>
    <i name="e_fr_energy">   2424.93351599 </i>
    <i name="e_wo_entrp">   2424.92465882 </i>
    <i name="e_0_energy">   2424.93056360 </i>
   </energy>
  </scstep>
  <scstep>
   <time name="dav">   10.74   10.81</time>
   <time name="total">   10.74   10.81</time>
   <energy>
    <i name="e_fr_energy">    -64.69279690 </i>
    <i name="e_wo_entrp">    -64.69371701 </i>
    <i name="e_0_energy">    -64.69310361 </i>
   </energy>
  </scstep>
  <scstep>
   <time name="dav">    9.83    9.90</time>
   <time name="total">    9.83    9.90</time>
   <energy>
    <i name="e_fr_energy">   -240.30675275 </i>
    <i name="e_wo_entrp">   -240.28172602 </i>
    <i name="e_0_energy">   -240.29841050 </i>
   </energy>
  </scstep>
  <scstep>
   <time name="dav">    9.92    9.98</time>
   <time name="total">    9.92    9.98</time>
   <energy>
    <i name="e_fr_energy">   -247.76931014 </i>
    <i name="e_wo_entrp">   -247.74629342 </i>
    <i name="e_0_energy">   -247.76163790 </i>
   </energy>
  </scstep>
  <scstep>
   <time name="dav">   10.24   10.31</time>
   <time name="total">   10.65   10.72</time>
   <energy>
    <i name="e_fr_energy">   -248.00177545 </i>
    <i name="e_wo_entrp">   -247.97903247 </i>
    <i name="e_0_energy">   -247.99419445 </i>
   </energy>
  </scstep>
  <scstep>
   <time name="diag">    1.33    1.34</time>
   <time name="diis">    4.52    4.55</time>
   <time name="orth">    0.22    0.22</time>
   <time name="total">    6.59    6.64</time>
   <energy>
    <i name="e_fr_energy">   -245.11655804 </i>
    <i name="e_wo_entrp">   -244.95155331 </i>
    <i name="e_0_energy">   -245.06155646 </i>
   </energy>
  </scstep>
  <scstep>
   <time name="diag">    1.31    1.32</time>
   <time name="diis">    4.32    4.35</time>
   <time name="orth">    0.22    0.22</time>
   <time name="total">    6.38    6.42</time>
   <energy>
    <i name="e_fr_energy">   -246.54063204 </i>
    <i name="e_wo_entrp">   -246.40577851 </i>
    <i name="e_0_energy">   -246.49568086 </i>
   </energy>
  </scstep>
  <scstep>
   <time name="diag">    1.30    1.31</time>
   <time name="diis">    4.50    4.54</time>
   <time name="orth">    0.22    0.22</time>
   <time name="total">    6.56    6.61</time>
   <energy>
    <i name="e_fr_energy">   -243.61895445 </i>
    <i name="e_wo_entrp">   -243.60354115 </i>
    <i name="e_0_energy">   -243.61381669 </i>
   </energy>
  </scstep>
  <scstep>
   <time name="diag">    1.35    1.36</time>
   <time name="diis">    4.51    4.54</time>
   <time name="orth">    0.22    0.22</time>
   <time name="total">    6.61    6.66</time>
   <energy>
    <i name="e_fr_energy">   -231.66968687 </i>
    <i name="e_wo_entrp">   -231.58671505 </i>
    <i name="e_0_energy">   -231.64202960 </i>
   </energy>
  </scstep>
  <scstep>
   <time name="diag">    1.33    1.34</time>
   <time name="diis">    4.49    4.52</time>
   <time name="orth">    0.22    0.22</time>
   <time name="total">    6.57    6.62</time>
   <energy>
    <i name="e_fr_energy">   -230.50093218 </i>
    <i name="e_wo_entrp">   -230.49851881 </i>
    <i name="e_0_energy">   -230.50012773 </i>
   </energy>
  </scstep>
  <scstep>
   <time name="diag">    1.24    1.25</time>
   <time name="diis">    4.44    4.47</time>
   <time name="orth">    0.22    0.22</time>
   <time name="total">    6.41    6.46</time>
   <energy>
    <i name="e_fr_energy">   -230.25390494 </i>
    <i name="e_wo_entrp">   -230.21383673 </i>
    <i name="e_0_energy">   -230.24054887 </i>
   </energy>
  </scstep>
  <scstep>
   <time name="diag">    1.30    1.31</time>
   <time name="diis">    4.23    4.26</time>
   <time name="orth">    0.22    0.22</time>
   <time name="total">    6.28    6.33</time>
   <energy>
    <i name="e_fr_energy">   -230.09124158 </i>
    <i name="e_wo_entrp">   -230.07203719 </i>
    <i name="e_0_energy">   -230.08484012 </i>
   </energy>
  </scstep>
  <scstep>
   <time name="diag">    1.29    1.30</time>
   <time name="diis">    4.39    4.42</time>
   <time name="orth">    0.22    0.22</time>
   <time name="total">    6.43    6.47</time>
   <energy>
    <i name="e_fr_energy">   -230.09880150 </i>
    <i name="e_wo_entrp">   -230.08303983 </i>
    <i name="e_0_energy">   -230.09354761 </i>
   </energy>
  </scstep>
  <scstep>
   <time name="diag">    1.34    1.35</time>
   <time name="diis">    4.35    4.38</time>
   <time name="orth">    0.21    0.22</time>
   <time name="total">    6.41    6.46</time>
   <energy>
    <i name="e_fr_energy">   -230.05576040 </i>
    <i name="e_wo_entrp">   -230.03438592 </i>
    <i name="e_0_energy">   -230.04863558 </i>
   </energy>
  </scstep>
  <scstep>
   <time name="diag">    1.31    1.32</time>
   <time name="diis">    4.44    4.47</time>
   <time name="orth">    0.22    0.22</time>
   <time name="total">    6.50    6.54</time>
   <energy>
    <i name="e_fr_energy">   -230.05123561 </i>
    <i name="e_wo_entrp">   -230.03413518 </i>
    <i name="e_0_energy">   -230.04553546 </i>
   </energy>
  </scstep>
  <scstep>
   <time name="diag">    1.33    1.34</time>
   <time name="diis">    4.49    4.53</time>
   <time name="orth">    0.22    0.23</time>
   <time name="total">    6.61    6.66</time>
   <energy>
    <i name="e_fr_energy">   -230.04435253 </i>
    <i name="e_wo_entrp">   -230.02790013 </i>
    <i name="e_0_energy">   -230.03886839 </i>
   </energy>
  </scstep>
  <scstep>
   <time name="diag">    1.31    1.32</time>
   <time name="diis">    4.23    4.26</time>
   <time name="orth">    0.21    0.21</time>
   <time name="total">    6.31    6.35</time>
   <energy>
    <i name="e_fr_energy">   -230.04375586 </i>
    <i name="e_wo_entrp">   -230.02559790 </i>
    <i name="e_0_energy">   -230.03770321 </i>
   </energy>
  </scstep>
  <scstep>
   <time name="diag">    1.31    1.32</time>
   <time name="diis">    4.12    4.15</time>
   <time name="orth">    0.22    0.23</time>
   <time name="total">    6.21    6.26</time>
   <energy>
    <i name="e_fr_energy">   -230.04392762 </i>
    <i name="e_wo_entrp">   -230.02690368 </i>
    <i name="e_0_energy">   -230.03825297 </i>
   </energy>
  </scstep>
  <scstep>
   <time name="diag">    1.30    1.31</time>
   <time name="diis">    3.17    3.20</time>
   <time name="orth">    0.22    0.22</time>
   <time name="total">    4.84    4.88</time>
   <energy>
    <i name="alphaZ">    975.10247152 </i>
    <i name="ewald">  92063.34585411 </i>
    <i name="hartreedc">-120769.49704452 </i>
    <i name="XCdc">    178.85510123 </i>
    <i name="pawpsdc">  30222.97513158 </i>
    <i name="pawaedc"> -29309.93661066 </i>
    <i name="eentropy">     -0.01824618 </i>
    <i name="bandstr">   -850.76473535 </i>
    <i name="atom">  27259.89416086 </i>
    <i name="e_fr_energy">   -230.04391740 </i>
    <i name="e_wo_entrp">   -230.02567122 </i>
    <i name="e_0_energy">   -230.03783534 </i>
   </energy>
  </scstep>
  <structure>
   <crystal>
    <varray name="basis" >
     <v>       7.29695512      -4.21289900       0.00000000 </v>
     <v>       0.00000000       8.42579800       0.00000000 </v>
     <v>       0.00000000       0.00000000      21.87963500 </v>
    </varray>
    <i name="volume">   1345.21837528 </i>
    <varray name="rec_basis" >
     <v>       0.13704346       0.00000000       0.00000000 </v>
     <v>       0.06852173       0.11868312       0.00000000 </v>
     <v>       0.00000000       0.00000000       0.04570460 </v>
    </varray>
   </crystal>
   <varray name="positions" >
    <v>       0.70678317       0.43691001       0.47609815 </v>
    <v>       0.90521369       0.38375355       0.46163896 </v>
    <v>       0.67864662       0.46376590       0.52598669 </v>
    <v>       0.98675500       0.32859100       0.07437600 </v>
    <v>       0.32008800       0.32859100       0.07437600 </v>
    <v>       0.65342200       0.32859100       0.07437600 </v>
    <v>       0.98675500       0.66192500       0.07437600 </v>
    <v>       0.32008800       0.66192500       0.07437600 </v>
    <v>       0.65342200       0.66192500       0.07437600 </v>
    <v>       0.32008800       0.99525800       0.07437600 </v>
    <v>       0.65342200       0.99525800       0.07437600 </v>
    <v>       0.98675500       0.99525800       0.07437600 </v>
    <v>       0.20897700       0.10636900       0.17918600 </v>
    <v>       0.54231100       0.10636900       0.17918600 </v>
    <v>       0.87564400       0.10636900       0.17918600 </v>
    <v>       0.20897700       0.43970300       0.17918600 </v>
    <v>       0.54231100       0.43970300       0.17918600 </v>
    <v>       0.87564400       0.43970300       0.17918600 </v>
    <v>       0.20897700       0.77303600       0.17918600 </v>
    <v>       0.54231100       0.77303600       0.17918600 </v>
    <v>       0.87564400       0.77303600       0.17918600 </v>
    <v>       0.09389651       0.54705985       0.28121337 </v>
    <v>       0.43568742       0.88425890       0.28171645 </v>
    <v>       0.75953338       0.21243932       0.28156413 </v>
    <v>       0.09231431       0.22080689       0.27990092 </v>
    <v>       0.43219332       0.21750897       0.27886549 </v>
    <v>       0.09654295       0.88344645       0.28613640 </v>
    <v>       0.76135582       0.88675243       0.28138976 </v>
    <v>       0.43664295       0.55270334       0.28761706 </v>
    <v>       0.76013819       0.54881544       0.28566732 </v>
    <v>       0.32227784       0.66606972       0.38521531 </v>
    <v>       0.65241146       0.98697927       0.38794770 </v>
    <v>       0.31963258       0.32136235       0.38491566 </v>
    <v>       0.98634100       0.98774023       0.38413726 </v>
    <v>       0.32382271       0.99258330       0.38826501 </v>
    <v>       0.64156701       0.32298133       0.39227967 </v>
    <v>       0.99663640       0.66638728       0.38285626 </v>
    <v>       0.99731633       0.31647803       0.39353773 </v>
    <v>       0.65983507       0.66096898       0.38610903 </v>
   </varray>
  </structure>
  <varray name="forces" >
   <v>      -0.92017602      -0.96253965      -1.26170547 </v>
   <v>       0.36518421       0.58377704       0.96543018 </v>
   <v>       0.48704236      -0.00695225      -0.12709845 </v>
   <v>      -0.01530093      -0.04968075       0.04744639 </v>
   <v>      -0.03052090      -0.01463431       0.11466839 </v>
   <v>       0.01630465      -0.04059641       0.10228600 </v>
   <v>       0.00341367       0.04281635       0.15784293 </v>
   <v>      -0.00413573      -0.04494803       0.16004221 </v>
   <v>      -0.01913065      -0.03134356       0.18970786 </v>
   <v>       0.00539547      -0.03256410       0.12673499 </v>
   <v>       0.04728943       0.06732397       0.11610166 </v>
   <v>       0.06021833       0.01320123       0.07172366 </v>
   <v>      -0.24734890      -0.15290966      -0.21290271 </v>
   <v>      -0.04737187      -0.06107628      -0.54464770 </v>
   <v>      -0.00532574      -0.04619670      -0.64037185 </v>
   <v>       0.28132257       0.11494379      -0.12727450 </v>
   <v>       0.08182505       0.30015939      -0.07979792 </v>
   <v>      -0.15311959       0.18199782      -0.06113500 </v>
   <v>      -0.08585751       0.17114254      -0.04746480 </v>
   <v>      -0.09002559      -0.18936267      -0.15228171 </v>
   <v>       0.09083993      -0.02859842       0.02046523 </v>
   <v>       0.22580866      -0.11550114       0.15933146 </v>
   <v>      -0.64821065       0.23025968       0.06681552 </v>
   <v>       0.21070238       0.52004700       0.75550340 </v>
   <v>       0.25447277      -0.12070212       0.90193730 </v>
   <v>      -0.06627885      -0.14096249       1.02509948 </v>
   <v>       0.29191823      -0.07979851      -1.43733960 </v>
   <v>       0.31590497      -0.49305842       0.05688307 </v>
   <v>      -0.62203338       0.00804901      -1.23502492 </v>
   <v>       0.34131202      -0.36968703      -1.03878647 </v>
   <v>       0.05330866      -0.24486696       0.23574915 </v>
   <v>       0.05500015       0.23740350      -0.20532942 </v>
   <v>      -0.24412962      -0.12868401      -0.04140820 </v>
   <v>       0.05567560       0.47032359       0.59485672 </v>
   <v>       0.05189191       0.04275074      -0.17901977 </v>
   <v>      -0.11027964       0.41765610       0.83019344 </v>
   <v>      -0.07040487      -0.18364715       0.80723924 </v>
   <v>       0.16056603      -0.39612418      -0.69961587 </v>
   <v>      -0.07574659       0.53258305       0.58514607 </v>
  </varray>
  <varray name="stress" >
   <v>     -37.94758226       0.11479596       0.10165705 </v>
   <v>       0.11479605     -39.94061615      -0.17757170 </v>
   <v>       0.10165685      -0.17757172       0.67752275 </v>
  </varray>
  <energy>
   <i name="e_fr_energy">   -230.04391740 </i>
   <i name="e_wo_entrp">   -230.03783534 </i>
   <i name="e_0_energy">     -0.01824618 </i>
  </energy>
  <time name="totalsc">  149.54  151.01</time>
 </calculation>
 <calculation>
  <scstep>
   <time name="dav">    8.13    8.19</time>
   <time name="total">    8.66    8.76</time>
   <energy>
    <i name="alphaZ">    975.10247152 </i>
    <i name="ewald">  91990.16366881 </i>
    <i name="hartreedc">-120700.15304779 </i>
    <i name="XCdc">    178.69024606 </i>
    <i name="pawpsdc">  30220.34609171 </i>
    <i name="pawaedc"> -29307.26115611 </i>
    <i name="eentropy">     -0.01830482 </i>
    <i name="bandstr">   -847.03695059 </i>
    <i name="atom">  27259.89416086 </i>
    <i name="e_fr_energy">   -230.27282034 </i>
    <i name="e_wo_entrp">   -230.25451552 </i>
    <i name="e_0_energy">   -230.26671873 </i>
   </energy>
  </scstep>
  <scstep>
   <time name="diag">    1.22    1.23</time>
   <time name="diis">    4.36    4.39</time>
   <time name="orth">    0.21    0.22</time>
   <time name="total">    6.33    6.38</time>
   <energy>
    <i name="e_fr_energy">   -230.38730712 </i>
    <i name="e_wo_entrp">   -230.35167606 </i>
    <i name="e_0_energy">   -230.37543010 </i>
   </energy>
  </scstep>
  <scstep>
   <time name="diag">    1.34    1.35</time>
   <time name="diis">    4.47    4.51</time>
   <time name="orth">    0.22    0.22</time>
   <time name="total">    6.56    6.61</time>
   <energy>
    <i name="e_fr_energy">   -230.33487009 </i>
    <i name="e_wo_entrp">   -230.31935497 </i>
    <i name="e_0_energy">   -230.32969839 </i>
   </energy>
  </scstep>
  <scstep>
   <time name="diag">    1.34    1.35</time>
   <time name="diis">    4.33    4.37</time>
   <time name="orth">    0.22    0.22</time>
   <time name="total">    6.40    6.44</time>
   <energy>
    <i name="e_fr_energy">   -230.32263085 </i>
    <i name="e_wo_entrp">   -230.30215733 </i>
    <i name="e_0_energy">   -230.31580635 </i>
   </energy>
  </scstep>
  <scstep>
   <time name="diag">    1.18    1.19</time>
   <time name="diis">    4.03    4.06</time>
   <time name="orth">    0.21    0.21</time>
   <time name="total">    5.91    5.95</time>
   <energy>
    <i name="e_fr_energy">   -230.31803279 </i>
    <i name="e_wo_entrp">   -230.29678479 </i>
    <i name="e_0_energy">   -230.31095012 </i>
   </energy>
  </scstep>
  <scstep>
   <time name="diag">    1.21    1.22</time>
   <time name="diis">    4.32    4.36</time>
   <time name="orth">    0.22    0.22</time>
   <time name="total">    6.27    6.32</time>
   <energy>
    <i name="e_fr_energy">   -230.31728705 </i>
    <i name="e_wo_entrp">   -230.29810711 </i>
    <i name="e_0_energy">   -230.31089374 </i>
   </energy>
  </scstep>
  <scstep>
   <time name="diag">    1.26    1.27</time>
   <time name="diis">    4.30    4.33</time>
   <time name="orth">    0.22    0.22</time>
   <time name="total">    6.31    6.35</time>
   <energy>
    <i name="e_fr_energy">   -230.31657659 </i>
    <i name="e_wo_entrp">   -230.29541641 </i>
    <i name="e_0_energy">   -230.30952320 </i>
   </energy>
  </scstep>
  <scstep>
   <time name="diag">    1.28    1.29</time>
   <time name="diis">    4.44    4.48</time>
   <time name="orth">    0.22    0.22</time>
   <time name="total">    6.47    6.52</time>
   <energy>
    <i name="e_fr_energy">   -230.31621300 </i>
    <i name="e_wo_entrp">   -230.29593030 </i>
    <i name="e_0_energy">   -230.30945210 </i>
   </energy>
  </scstep>
  <scstep>
   <time name="diag">    1.28    1.29</time>
   <time name="diis">    2.80    2.82</time>
   <time name="orth">    0.22    0.22</time>
   <time name="total">    4.44    4.47</time>
   <energy>
    <i name="alphaZ">    975.10247152 </i>
    <i name="ewald">  91990.16366881 </i>
    <i name="hartreedc">-120694.47309786 </i>
    <i name="XCdc">    178.63056890 </i>
    <i name="pawpsdc">  30182.38439589 </i>
    <i name="pawaedc"> -29269.08467832 </i>
    <i name="eentropy">     -0.02056152 </i>
    <i name="bandstr">   -852.91312278 </i>
    <i name="atom">  27259.89416086 </i>
    <i name="e_fr_energy">   -230.31619449 </i>
    <i name="e_wo_entrp">   -230.29563297 </i>
    <i name="e_0_energy">   -230.30934065 </i>
   </energy>
  </scstep>
  <structure>
   <crystal>
    <varray name="basis" >
     <v>       7.29695512      -4.21289900       0.00000000 </v>
     <v>       0.00000000       8.42579800       0.00000000 </v>
     <v>       0.00000000       0.00000000      21.87963500 </v>
    </varray>
    <i name="volume">   1345.21837528 </i>
    <varray name="rec_basis" >
     <v>       0.13704346       0.00000000       0.00000000 </v>
     <v>       0.06852173       0.11868312       0.00000000 </v>
     <v>       0.00000000       0.00000000       0.04570460 </v>
    </varray>
   </crystal>
   <varray name="positions" >
    <v>       0.70434973       0.43348885       0.47498538 </v>
    <v>       0.90617944       0.38557341       0.46249043 </v>
    <v>       0.67993462       0.46439397       0.52587459 </v>
    <v>       0.98675500       0.32859100       0.07437600 </v>
    <v>       0.32008800       0.32859100       0.07437600 </v>
    <v>       0.65342200       0.32859100       0.07437600 </v>
    <v>       0.98675500       0.66192500       0.07437600 </v>
    <v>       0.32008800       0.66192500       0.07437600 </v>
    <v>       0.65342200       0.66192500       0.07437600 </v>
    <v>       0.32008800       0.99525800       0.07437600 </v>
    <v>       0.65342200       0.99525800       0.07437600 </v>
    <v>       0.98675500       0.99525800       0.07437600 </v>
    <v>       0.20897700       0.10636900       0.17918600 </v>
    <v>       0.54231100       0.10636900       0.17918600 </v>
    <v>       0.87564400       0.10636900       0.17918600 </v>
    <v>       0.20897700       0.43970300       0.17918600 </v>
    <v>       0.54231100       0.43970300       0.17918600 </v>
    <v>       0.87564400       0.43970300       0.17918600 </v>
    <v>       0.20897700       0.77303600       0.17918600 </v>
    <v>       0.54231100       0.77303600       0.17918600 </v>
    <v>       0.87564400       0.77303600       0.17918600 </v>
    <v>       0.09449367       0.54709390       0.28135390 </v>
    <v>       0.43397321       0.88392914       0.28177538 </v>
    <v>       0.76009059       0.21390895       0.28223046 </v>
    <v>       0.09298727       0.22086694       0.28069639 </v>
    <v>       0.43201804       0.21709850       0.27976960 </v>
    <v>       0.09731494       0.88364969       0.28486872 </v>
    <v>       0.76219124       0.88604092       0.28143993 </v>
    <v>       0.43499796       0.55189928       0.28652781 </v>
    <v>       0.76104080       0.54842008       0.28475115 </v>
    <v>       0.32241882       0.66557940       0.38542324 </v>
    <v>       0.65255691       0.98759571       0.38776660 </v>
    <v>       0.31898697       0.32074483       0.38487914 </v>
    <v>       0.98648823       0.98889100       0.38466190 </v>
    <v>       0.32395994       0.99274983       0.38810712 </v>
    <v>       0.64127537       0.32379205       0.39301187 </v>
    <v>       0.99645021       0.66587359       0.38356822 </v>
    <v>       0.99774095       0.31578312       0.39292069 </v>
    <v>       0.65963475       0.66208857       0.38662511 </v>
   </varray>
  </structure>
  <varray name="forces" >
   <v>      -0.90019566      -0.41923879       0.92281392 </v>
   <v>       0.43562089       0.45912441       0.50328369 </v>
   <v>       0.66261397      -0.53411085      -1.90650446 </v>
   <v>      -0.01153659      -0.04427765       0.07649645 </v>
   <v>      -0.03405554      -0.01968130       0.13192715 </v>
   <v>       0.01167273      -0.03638289       0.11624712 </v>
   <v>       0.00697044       0.04436800       0.15151141 </v>
   <v>      -0.00710356      -0.02975771       0.16188696 </v>
   <v>      -0.00799874      -0.02549063       0.18331124 </v>
   <v>       0.00419599      -0.03213408       0.11410206 </v>
   <v>       0.03856210       0.05898595       0.10978483 </v>
   <v>       0.05187043       0.00920072       0.06424370 </v>
   <v>      -0.20318336      -0.09591324      -0.21240075 </v>
   <v>      -0.02405763      -0.03420232      -0.43932405 </v>
   <v>       0.01136207      -0.02751447      -0.52870560 </v>
   <v>       0.22689139       0.07825082      -0.14749336 </v>
   <v>       0.04402639       0.23475095      -0.08253629 </v>
   <v>      -0.13316903       0.12679876      -0.07727584 </v>
   <v>      -0.07716776       0.13772331      -0.12596091 </v>
   <v>      -0.07029675      -0.15031491      -0.14818411 </v>
   <v>       0.08399551      -0.00751661      -0.07691922 </v>
   <v>       0.16900053      -0.06206480       0.19064896 </v>
   <v>      -0.40507709       0.15092336       0.07146632 </v>
   <v>       0.14689481       0.34701075       0.62149119 </v>
   <v>       0.15782998      -0.13181774       0.66599767 </v>
   <v>      -0.01880691      -0.10957896       0.79949371 </v>
   <v>       0.13489317      -0.08307269      -0.95031392 </v>
   <v>       0.20405750      -0.36703818       0.08840972 </v>
   <v>      -0.39981783      -0.00403015      -0.91518567 </v>
   <v>       0.24408120      -0.21064455      -0.67118722 </v>
   <v>       0.07358787      -0.24385668       0.16907965 </v>
   <v>       0.03433982       0.20547816      -0.20809697 </v>
   <v>      -0.09361265      -0.05762062       0.00558093 </v>
   <v>       0.06228167       0.19645234       0.44624634 </v>
   <v>      -0.03781627       0.01074617      -0.14398346 </v>
   <v>      -0.14549205       0.34080313       0.47390662 </v>
   <v>      -0.06804653      -0.05808548       0.54240068 </v>
   <v>      -0.07076390      -0.02509841      -0.26162670 </v>
   <v>      -0.09655059       0.40882690       0.28536822 </v>
  </varray>
  <varray name="stress" >
   <v>     -39.24558805       0.62420801       1.09263612 </v>
   <v>       0.62420794     -41.66722940      -1.13591476 </v>
   <v>       1.09263603      -1.13591472      -3.51149434 </v>
  </varray>
  <energy>
   <i name="e_fr_energy">   -230.31619449 </i>
   <i name="e_wo_entrp">   -230.30934065 </i>
   <i name="e_0_energy">     -0.02056152 </i>
  </energy>
  <time name="totalsc">   67.97   68.82</time>
 </calculation>
 <calculation>
  <scstep>
   <time name="dav">    7.88    7.93</time>
   <time name="total">    8.40    8.48</time>
   <energy>
    <i name="alphaZ">    975.10247152 </i>
    <i name="ewald">  91974.18637325 </i>
    <i name="hartreedc">-120674.99925783 </i>
    <i name="XCdc">    178.73432218 </i>
    <i name="pawpsdc">  30182.18291142 </i>
    <i name="pawaedc"> -29268.88145640 </i>
    <i name="eentropy">     -0.02135443 </i>
    <i name="bandstr">   -856.57668334 </i>
    <i name="atom">  27259.89416086 </i>
    <i name="e_fr_energy">   -230.37851275 </i>
    <i name="e_wo_entrp">   -230.35715833 </i>
    <i name="e_0_energy">   -230.37139461 </i>
   </energy>
  </scstep>
  <scstep>
   <time name="diag">    1.26    1.27</time>
   <time name="diis">    4.34    4.37</time>
   <time name="orth">    0.21    0.21</time>
   <time name="total">    6.32    6.37</time>
   <energy>
    <i name="e_fr_energy">   -230.42979801 </i>
    <i name="e_wo_entrp">   -230.40367097 </i>
    <i name="e_0_energy">   -230.42108899 </i>
   </energy>
  </scstep>
  <scstep>
   <time name="diag">    1.28    1.29</time>
   <time name="diis">    4.55    4.58</time>
   <time name="orth">    0.21    0.21</time>
   <time name="total">    6.55    6.60</time>
   <energy>
    <i name="e_fr_energy">   -230.42234165 </i>
    <i name="e_wo_entrp">   -230.40430994 </i>
    <i name="e_0_energy">   -230.41633108 </i>
   </energy>
  </scstep>
  <scstep>
   <time name="diag">    1.30    1.31</time>
   <time name="diis">    4.44    4.47</time>
   <time name="orth">    0.21    0.22</time>
   <time name="total">    6.49    6.53</time>
   <energy>
    <i name="e_fr_energy">   -230.41666941 </i>
    <i name="e_wo_entrp">   -230.39492800 </i>
    <i name="e_0_energy">   -230.40942227 </i>
   </energy>
  </scstep>
  <scstep>
   <time name="diag">    1.32    1.33</time>
   <time name="diis">    4.49    4.53</time>
   <time name="orth">    0.22    0.22</time>
   <time name="total">    6.56    6.61</time>
   <energy>
    <i name="e_fr_energy">   -230.41532749 </i>
    <i name="e_wo_entrp">   -230.39327937 </i>
    <i name="e_0_energy">   -230.40797812 </i>
   </energy>
  </scstep>
  <scstep>
   <time name="diag">    1.27    1.28</time>
   <time name="diis">    4.34    4.37</time>
   <time name="orth">    0.22    0.22</time>
   <time name="total">    6.36    6.40</time>
   <energy>
    <i name="e_fr_energy">   -230.41450310 </i>
    <i name="e_wo_entrp">   -230.39507046 </i>
    <i name="e_0_energy">   -230.40802555 </i>
   </energy>
  </scstep>
  <scstep>
   <time name="diag">    1.26    1.27</time>
   <time name="diis">    4.54    4.58</time>
   <time name="orth">    0.22    0.22</time>
   <time name="total">    6.57    6.61</time>
   <energy>
    <i name="e_fr_energy">   -230.41288066 </i>
    <i name="e_wo_entrp">   -230.39113938 </i>
    <i name="e_0_energy">   -230.40563357 </i>
   </energy>
  </scstep>
  <scstep>
   <time name="diag">    1.30    1.31</time>
   <time name="diis">    3.05    3.08</time>
   <time name="orth">    0.22    0.22</time>
   <time name="total">    5.11    5.15</time>
   <energy>
    <i name="e_fr_energy">   -230.41277240 </i>
    <i name="e_wo_entrp">   -230.39152575 </i>
    <i name="e_0_energy">   -230.40569019 </i>
   </energy>
  </scstep>
  <scstep>
   <time name="diag">    1.34    1.35</time>
   <time name="diis">    2.82    2.84</time>
   <time name="orth">    0.22    0.22</time>
   <time name="total">    4.52    4.56</time>
   <energy>
    <i name="alphaZ">    975.10247152 </i>
    <i name="ewald">  91974.18637325 </i>
    <i name="hartreedc">-120682.81990430 </i>
    <i name="XCdc">    178.84045829 </i>
    <i name="pawpsdc">  30179.87511738 </i>
    <i name="pawaedc"> -29266.52719393 </i>
    <i name="eentropy">     -0.02147054 </i>
    <i name="bandstr">   -848.94276145 </i>
    <i name="atom">  27259.89416086 </i>
    <i name="e_fr_energy">   -230.41274891 </i>
    <i name="e_wo_entrp">   -230.39127837 </i>
    <i name="e_0_energy">   -230.40559207 </i>
   </energy>
  </scstep>
  <structure>
   <crystal>
    <varray name="basis" >
     <v>       7.29695512      -4.21289900       0.00000000 </v>
     <v>       0.00000000       8.42579800       0.00000000 </v>
     <v>       0.00000000       0.00000000      21.87963500 </v>
    </varray>
    <i name="volume">   1345.21837528 </i>
    <varray name="rec_basis" >
     <v>       0.13704346       0.00000000       0.00000000 </v>
     <v>       0.06852173       0.11868312       0.00000000 </v>
     <v>       0.00000000       0.00000000       0.04570460 </v>
    </varray>
   </crystal>
   <varray name="positions" >
    <v>       0.70258244       0.43189241       0.47558958 </v>
    <v>       0.90703466       0.38678163       0.46281995 </v>
    <v>       0.68123549       0.46413631       0.52462631 </v>
    <v>       0.98675500       0.32859100       0.07437600 </v>
    <v>       0.32008800       0.32859100       0.07437600 </v>
    <v>       0.65342200       0.32859100       0.07437600 </v>
    <v>       0.98675500       0.66192500       0.07437600 </v>
    <v>       0.32008800       0.66192500       0.07437600 </v>
    <v>       0.65342200       0.66192500       0.07437600 </v>
    <v>       0.32008800       0.99525800       0.07437600 </v>
    <v>       0.65342200       0.99525800       0.07437600 </v>
    <v>       0.98675500       0.99525800       0.07437600 </v>
    <v>       0.20897700       0.10636900       0.17918600 </v>
    <v>       0.54231100       0.10636900       0.17918600 </v>
    <v>       0.87564400       0.10636900       0.17918600 </v>
    <v>       0.20897700       0.43970300       0.17918600 </v>
    <v>       0.54231100       0.43970300       0.17918600 </v>
    <v>       0.87564400       0.43970300       0.17918600 </v>
    <v>       0.20897700       0.77303600       0.17918600 </v>
    <v>       0.54231100       0.77303600       0.17918600 </v>
    <v>       0.87564400       0.77303600       0.17918600 </v>
    <v>       0.09482545       0.54715427       0.28147872 </v>
    <v>       0.43317795       0.88378811       0.28182218 </v>
    <v>       0.76037898       0.21464314       0.28263738 </v>
    <v>       0.09329713       0.22079775       0.28113245 </v>
    <v>       0.43198112       0.21689373       0.28029306 </v>
    <v>       0.09757977       0.88364086       0.28424650 </v>
    <v>       0.76259185       0.88561719       0.28149782 </v>
    <v>       0.43421302       0.55149996       0.28592860 </v>
    <v>       0.76151999       0.54830153       0.28431169 </v>
    <v>       0.32256329       0.66523703       0.38553394 </v>
    <v>       0.65262433       0.98797877       0.38763035 </v>
    <v>       0.31880319       0.32055497       0.38488280 </v>
    <v>       0.98661051       0.98928615       0.38495408 </v>
    <v>       0.32388570       0.99273098       0.38801285 </v>
    <v>       0.64098973       0.32422867       0.39332216 </v>
    <v>       0.99631662       0.66570803       0.38392335 </v>
    <v>       0.99760203       0.31567099       0.39274939 </v>
    <v>       0.65944520       0.66268888       0.38681195 </v>
   </varray>
  </structure>
  <varray name="forces" >
   <v>      -0.40531021      -1.60900800      -2.77525549 </v>
   <v>       0.53947491       0.33276422       0.26975335 </v>
   <v>       0.07746428       0.72520550       1.90074717 </v>
   <v>      -0.01159984      -0.04513123       0.08940627 </v>
   <v>      -0.03483963      -0.02511686       0.13818406 </v>
   <v>       0.00590170      -0.03516079       0.12059114 </v>
   <v>       0.00794386       0.04712831       0.14505049 </v>
   <v>      -0.00668953      -0.02176313       0.16161504 </v>
   <v>      -0.00205774      -0.02300052       0.17886508 </v>
   <v>       0.00467130      -0.03306486       0.10304486 </v>
   <v>       0.03467600       0.05367928       0.11004730 </v>
   <v>       0.04639588       0.00756009       0.05962865 </v>
   <v>      -0.17431175      -0.06890823      -0.20233445 </v>
   <v>      -0.01389648      -0.01944891      -0.37967096 </v>
   <v>       0.01812602      -0.01568334      -0.45696568 </v>
   <v>       0.19317992       0.05821516      -0.15356940 </v>
   <v>       0.02509100       0.19582922      -0.08251161 </v>
   <v>      -0.12252355       0.09546229      -0.07821173 </v>
   <v>      -0.07049559       0.11768315      -0.16326435 </v>
   <v>      -0.05936438      -0.12743447      -0.14732533 </v>
   <v>       0.07727837       0.00332520      -0.12617317 </v>
   <v>       0.14110405      -0.04417222       0.19785557 </v>
   <v>      -0.30140008       0.11353452       0.06607040 </v>
   <v>       0.12018915       0.26314983       0.54005683 </v>
   <v>       0.10256742      -0.12499904       0.55624558 </v>
   <v>       0.00078465      -0.09301262       0.66497670 </v>
   <v>       0.07696739      -0.08321582      -0.72019979 </v>
   <v>       0.15483036      -0.29074122       0.09140220 </v>
   <v>      -0.30416231      -0.01018326      -0.76216787 </v>
   <v>       0.20522867      -0.14367909      -0.49795692 </v>
   <v>       0.07852611      -0.23694572       0.13466950 </v>
   <v>       0.02510459       0.19225791      -0.19930922 </v>
   <v>      -0.05331996      -0.01262829       0.02700947 </v>
   <v>       0.06341691       0.09369749       0.38233305 </v>
   <v>      -0.07361691      -0.01132943      -0.12947152 </v>
   <v>      -0.08645475       0.35218428       0.46261352 </v>
   <v>      -0.06074406      -0.01930026       0.42710070 </v>
   <v>      -0.10856994       0.07683508      -0.09751789 </v>
   <v>      -0.10956581       0.36541580       0.14463843 </v>
  </varray>
  <varray name="stress" >
   <v>     -39.67490979       0.29998714       0.32013050 </v>
   <v>       0.29998718     -41.72406234       0.37324351 </v>
   <v>       0.32013039       0.37324338       0.63293638 </v>
  </varray>
  <energy>
   <i name="e_fr_energy">   -230.41274891 </i>
   <i name="e_wo_entrp">   -230.40559207 </i>
   <i name="e_0_energy">     -0.02147054 </i>
  </energy>
  <time name="totalsc">   67.53   68.51</time>
 </calculation>
 <calculation>
  <scstep>
