metal                                   
           1
     7.296955   -4.212899    0.000000
     0.000000    8.425798    0.000000
     0.000000    0.000000   21.879635
   C    O    Pt
   1   2  36
Direct configuration=     1
   0.70678317  0.43691001  0.47609815
   0.90521369  0.38375355  0.46163896
   0.67864662  0.46376590  0.52598669
   0.98675500  0.32859100  0.07437600
   0.32008800  0.32859100  0.07437600
   0.65342200  0.32859100  0.07437600
   0.98675500  0.66192500  0.07437600
   0.32008800  0.66192500  0.07437600
   0.65342200  0.66192500  0.07437600
   0.32008800  0.99525800  0.07437600
   0.65342200  0.99525800  0.07437600
   0.98675500  0.99525800  0.07437600
   0.20897700  0.10636900  0.17918600
   0.54231100  0.10636900  0.17918600
   0.87564400  0.10636900  0.17918600
   0.20897700  0.43970300  0.17918600
   0.54231100  0.43970300  0.17918600
   0.87564400  0.43970300  0.17918600
   0.20897700  0.77303600  0.17918600
   0.54231100  0.77303600  0.17918600
   0.87564400  0.77303600  0.17918600
   0.09389651  0.54705985  0.28121337
   0.43568742  0.88425890  0.28171645
   0.75953338  0.21243932  0.28156413
   0.09231431  0.22080689  0.27990092
   0.43219332  0.21750897  0.27886549
   0.09654295  0.88344645  0.28613640
   0.76135582  0.88675243  0.28138976
   0.43664295  0.55270334  0.28761706
   0.76013819  0.54881544  0.28566732
   0.32227784  0.66606972  0.38521531
   0.65241146  0.98697927  0.38794770
   0.31963258  0.32136235  0.38491566
   0.98634100  0.98774023  0.38413726
   0.32382271  0.99258330  0.38826501
   0.64156701  0.32298133  0.39227967
   0.99663640  0.66638728  0.38285626
   0.99731633  0.31647803  0.39353773
   0.65983507  0.66096898  0.38610903
Direct configuration=     2
   0.70434973  0.43348885  0.47498538
   0.90617944  0.38557341  0.46249043
   0.67993462  0.46439397  0.52587459
   0.98675500  0.32859100  0.07437600
   0.32008800  0.32859100  0.07437600
   0.65342200  0.32859100  0.07437600
   0.98675500  0.66192500  0.07437600
   0.32008800  0.66192500  0.07437600
   0.65342200  0.66192500  0.07437600
   0.32008800  0.99525800  0.07437600
   0.65342200  0.99525800  0.07437600
   0.98675500  0.99525800  0.07437600
   0.20897700  0.10636900  0.17918600
   0.54231100  0.10636900  0.17918600
   0.87564400  0.10636900  0.17918600
   0.20897700  0.43970300  0.17918600
   0.54231100  0.43970300  0.17918600
   0.87564400  0.43970300  0.17918600
   0.20897700  0.77303600  0.17918600
   0.54231100  0.77303600  0.17918600
   0.87564400  0.77303600  0.17918600
   0.09449367  0.54709390  0.28135390
   0.43397321  0.88392914  0.28177538
   0.76009059  0.21390895  0.28223046
   0.09298727  0.22086694  0.28069639
   0.43201804  0.21709850  0.27976960
   0.09731494  0.88364969  0.28486872
   0.76219124  0.88604092  0.28143993
   0.43499796  0.55189928  0.28652781
   0.76104080  0.54842008  0.28475115
   0.32241882  0.66557940  0.38542324
   0.65255691  0.98759571  0.38776660
   0.31898697  0.32074483  0.38487914
   0.98648823  0.98889100  0.38466190
   0.32395994  0.99274983  0.38810712
   0.64127537  0.32379205  0.39301187
   0.99645021  0.66587359  0.38356822
   0.99774095  0.31578312  0.39292069
   0.65963475  0.66208857  0.38662511
Direct configuration=     3
   0.70258244  0.43189241  0.47558958
   0.90703466  0.38678163  0.46281995
   0.68123549  0.46413631  0.52462631
   0.98675500  0.32859100  0.07437600
   0.32008800  0.32859100  0.07437600
   0.65342200  0.32859100  0.07437600
   0.98675500  0.66192500  0.07437600
   0.32008800  0.66192500  0.07437600
   0.65342200  0.66192500  0.07437600
   0.32008800  0.99525800  0.07437600
   0.65342200  0.99525800  0.07437600
   0.98675500  0.99525800  0.07437600
   0.20897700  0.10636900  0.17918600
   0.54231100  0.10636900  0.17918600
   0.87564400  0.10636900  0.17918600
   0.20897700  0.43970300  0.17918600
   0.54231100  0.43970300  0.17918600
   0.87564400  0.43970300  0.17918600
   0.20897700  0.77303600  0.17918600
   0.54231100  0.77303600  0.17918600
   0.87564400  0.77303600  0.17918600
   0.09482545  0.54715427  0.28147872
   0.43317795  0.88378811  0.28182218
   0.76037898  0.21464314  0.28263738
   0.09329713  0.22079775  0.28113245
   0.43198112  0.21689373  0.28029306
   0.09757977  0.88364086  0.28424650
   0.76259185  0.88561719  0.28149782
   0.43421302  0.55149996  0.28592860
   0.76151999  0.54830153  0.28431169
   0.32256329  0.66523703  0.38553394
   0.65262433  0.98797877  0.38763035
   0.31880319  0.32055497  0.38488280
   0.98661051  0.98928615  0.38495408
   0.32388570  0.99273098  0.38801285
   0.64098973  0.32422867  0.39332216
   0.99631662  0.66570803  0.38392335
   0.99760203  0.31567099  0.39274939
   0.65944520  0.66268888  0.38681195
