 vasp.5.4.4 16052018 (build Apr 24 2014 20:13:14) complex standard
 Contain Constrained Minimization Technique (TS), Periodic NBO, VASPsol, libbeef, VASP2WANNIER90, Constrained Cell Relaxation
 executed on Center for Computational Chemistry by phu@node06 date 2025.09.27 23:49:52
 running on    8 total cores
 distrk:  each k-point on    8 cores,    1 groups
 distr:  one band on NCORES_PER_BAND=   2 cores,    4 groups


--------------------------------------------------------------------------------------------------------


 INCAR:
 POTCAR:   PAW_PBE C 08Apr2002                    
 POTCAR:   PAW_PBE O 08Apr2002                    
 POTCAR:    PAW_PBE Pt 04Feb2005                  
 POTCAR:   PAW_PBE C 08Apr2002                    
   VRHFIN =C: s2p2                                                              
   LEXCH  = PE                                                                  
   EATOM  =   147.1560 eV,   10.8157 Ry                                         
                                                                                
   TITEL  = PAW_PBE C 08Apr2002                                                 
   LULTRA =        F    use ultrasoft PP ?                                      
   IUNSCR =        0    unscreen: 0-lin 1-nonlin 2-no                           
   RPACOR =     .000    partial core radius                                     
   POMASS =   12.011; ZVAL   =    4.000    mass and valenz                      
   RCORE  =    1.500    outmost cutoff radius                                   
   RWIGS  =    1.630; RWIGS  =     .863    wigner-seitz radius (au A)           
   ENMAX  =  400.000; ENMIN  =  300.000 eV                                      
   ICORE  =        2    local potential                                         
   LCOR   =        T    correct aug charges                                     
   LPAW   =        T    paw PP                                                  
   EAUG   =  644.873                                                            
   DEXC   =     .000                                                            
   RMAX   =    2.266    core radius for proj-oper                               
   RAUG   =    1.300    factor for augmentation sphere                          
   RDEP   =    1.501    radius for radial grids                                 
   RDEPT  =    1.300    core radius for aug-charge                              
   QCUT   =   -5.516; QGAM   =   11.032    optimization parameters              
                                                                                
   Description                                                                  
     l     E      TYP  RCUT    TYP  RCUT                                        
     0   .000     23  1.200                                                     
     0   .000     23  1.200                                                     
     1   .000     23  1.500                                                     
     1  2.500     23  1.500                                                     
     2   .000      7  1.500                                                     
  local pseudopotential read in
  atomic valenz-charges read in
  non local Contribution for L=           0  read in
    real space projection operators read in
  non local Contribution for L=           0  read in
    real space projection operators read in
  non local Contribution for L=           1  read in
    real space projection operators read in
  non local Contribution for L=           1  read in
    real space projection operators read in
    PAW grid and wavefunctions read in
 
   number of l-projection  operators is LMAX  =           4
   number of lm-projection operators is LMMAX =           8
 
 POTCAR:   PAW_PBE O 08Apr2002                    
   VRHFIN =O: s2p4                                                              
   LEXCH  = PE                                                                  
   EATOM  =   432.3788 eV,   31.7789 Ry                                         
                                                                                
   TITEL  = PAW_PBE O 08Apr2002                                                 
   LULTRA =        F    use ultrasoft PP ?                                      
   IUNSCR =        0    unscreen: 0-lin 1-nonlin 2-no                           
   RPACOR =     .000    partial core radius                                     
   POMASS =   16.000; ZVAL   =    6.000    mass and valenz                      
   RCORE  =    1.520    outmost cutoff radius                                   
   RWIGS  =    1.550; RWIGS  =     .820    wigner-seitz radius (au A)           
   ENMAX  =  400.000; ENMIN  =  300.000 eV                                      
   ICORE  =        2    local potential                                         
   LCOR   =        T    correct aug charges                                     
   LPAW   =        T    paw PP                                                  
   EAUG   =  605.392                                                            
   DEXC   =     .000                                                            
   RMAX   =    2.264    core radius for proj-oper                               
   RAUG   =    1.300    factor for augmentation sphere                          
   RDEP   =    1.550    radius for radial grids                                 
   QCUT   =   -5.520; QGAM   =   11.041    optimization parameters              
                                                                                
   Description                                                                  
     l     E      TYP  RCUT    TYP  RCUT                                        
     0   .000     23  1.200                                                     
     0  -.700     23  1.200                                                     
     1   .000     23  1.520                                                     
     1   .600     23  1.520                                                     
     2   .000      7  1.500                                                     
  local pseudopotential read in
  atomic valenz-charges read in
  non local Contribution for L=           0  read in
    real space projection operators read in
  non local Contribution for L=           0  read in
    real space projection operators read in
  non local Contribution for L=           1  read in
    real space projection operators read in
  non local Contribution for L=           1  read in
    real space projection operators read in
    PAW grid and wavefunctions read in
 
   number of l-projection  operators is LMAX  =           4
   number of lm-projection operators is LMMAX =           8
 
 POTCAR:    PAW_PBE Pt 04Feb2005                  
   VRHFIN =Pt: s1d9                                                             
   LEXCH  = PE                                                                  
   EATOM  =   729.1182 eV,   53.5887 Ry                                         
                                                                                
   TITEL  = PAW_PBE Pt 04Feb2005                                                
   LULTRA =        F    use ultrasoft PP ?                                      
   IUNSCR =        1    unscreen: 0-lin 1-nonlin 2-no                           
   RPACOR =    2.330    partial core radius                                     
   POMASS =  195.080; ZVAL   =   10.000    mass and valenz                      
   RCORE  =    2.600    outmost cutoff radius                                   
   RWIGS  =    2.750; RWIGS  =    1.455    wigner-seitz radius (au A)           
   ENMAX  =  230.283; ENMIN  =  172.712 eV                                      
   ICORE  =        3    local potential                                         
   LCOR   =        T    correct aug charges                                     
   LPAW   =        T    paw PP                                                  
   EAUG   =  358.966                                                            
   DEXC   =     .000                                                            
   RMAX   =    3.038    core radius for proj-oper                               
   RAUG   =    1.300    factor for augmentation sphere                          
   RDEP   =    2.761    radius for radial grids                                 
   QCUT   =   -4.114; QGAM   =    8.228    optimization parameters              
                                                                                
   Description                                                                  
     l     E      TYP  RCUT    TYP  RCUT                                        
     2   .000     23  2.500                                                     
     2   .000     23  2.500                                                     
     0   .000     23  2.500                                                     
     0   .000     23  2.500                                                     
     1  -.200     23  2.600                                                     
     1  1.500     23  2.600                                                     
     3   .000     23  2.500                                                     
  local pseudopotential read in
  partial core-charges read in
  atomic valenz-charges read in
  non local Contribution for L=           2  read in
    real space projection operators read in
  non local Contribution for L=           2  read in
    real space projection operators read in
  non local Contribution for L=           0  read in
    real space projection operators read in
  non local Contribution for L=           0  read in
    real space projection operators read in
  non local Contribution for L=           1  read in
    real space projection operators read in
  non local Contribution for L=           1  read in
    real space projection operators read in
    PAW grid and wavefunctions read in
 
   number of l-projection  operators is LMAX  =           6
   number of lm-projection operators is LMMAX =          18
 
 Optimization of the real space projectors (new method)

 maximal supplied QI-value         = 25.13
 optimisation between [QCUT,QGAM] = [ 10.81, 21.61] = [ 32.71,130.83] Ry 
 Optimized for a Real-space Cutoff    1.23 Angstroem

   l    n(q)    QCUT    max X(q) W(low)/X(q) W(high)/X(q)  e(spline) 
   0      8    10.807     5.582    0.53E-04    0.84E-04    0.44E-07
   0      8    10.807    69.432    0.35E-03    0.71E-03    0.24E-06
   1      7    10.807     2.780    0.44E-04    0.88E-04    0.89E-07
   1      7    10.807     4.549    0.14E-03    0.28E-03    0.13E-06
 Optimization of the real space projectors (new method)

 maximal supplied QI-value         = 24.76
 optimisation between [QCUT,QGAM] = [ 10.64, 21.54] = [ 31.73,129.89] Ry 
 Optimized for a Real-space Cutoff    1.23 Angstroem

   l    n(q)    QCUT    max X(q) W(low)/X(q) W(high)/X(q)  e(spline) 
   0      8    10.645     4.192    0.69E-04    0.93E-04    0.58E-07
   0      8    10.645     8.473    0.40E-03    0.65E-03    0.17E-06
   1      7    10.645     2.474    0.80E-04    0.12E-03    0.30E-07
   1      7    10.645     3.912    0.24E-03    0.53E-03    0.16E-06
 Optimization of the real space projectors (new method)

 maximal supplied QI-value         = 14.36
 optimisation between [QCUT,QGAM] = [ 10.77, 21.69] = [ 32.49,131.70] Ry 
 Optimized for a Real-space Cutoff    1.46 Angstroem

   l    n(q)    QCUT    max X(q) W(low)/X(q) W(high)/X(q)  e(spline) 
   2      9    10.771     3.903    0.38E-04    0.12E-03    0.82E-07
   2      9    10.771    18.372    0.13E-03    0.32E-03    0.28E-06
   0     10    10.771    13.697    0.11E-04    0.86E-05    0.85E-08
   0     10    10.771    65.529    0.40E-04    0.12E-03    0.14E-06
   1      9    10.771     7.604    0.48E-04    0.31E-04    0.38E-07
   1      9    10.771    12.136    0.35E-03    0.16E-03    0.23E-06
 PAW_PBE C 08Apr2002                    :
 energy of atom  1       EATOM= -147.1560
 kinetic energy error for atom=    0.0116 (will be added to EATOM!!)
 PAW_PBE O 08Apr2002                    :
 energy of atom  2       EATOM= -432.3788
 kinetic energy error for atom=    0.0389 (will be added to EATOM!!)
  PAW_PBE Pt 04Feb2005                  :
 energy of atom  3       EATOM= -729.1182
 kinetic energy error for atom=    0.0051 (will be added to EATOM!!)
 
 
 POSCAR: C    O    Pt                            
  positions in direct lattice
  No initial velocities read in
 exchange correlation table for  LEXCH =        8
   RHO(1)=    0.500       N(1)  =     2000
   RHO(2)=  100.500       N(2)  =     4000

 VTST: version 3.2, (02/03/18)

 CHAIN: initializing optimizer
 
 OPT: Using VASP QUASI-newton optimizer
 CHAIN: Read ICHAIN            0
 
 POSCAR: C    O    Pt                            
  positions in direct lattice
  No initial velocities read in
 


--------------------------------------------------------------------------------------------------------


 ion  position               nearest neighbor table
   1  0.700  0.438  0.477-   3 1.16   2 2.01  36 2.07
   2  0.902  0.380  0.464-  38 2.00   1 2.01  36 2.54  37 2.71
   3  0.672  0.465  0.527-   1 1.16
   4  0.987  0.329  0.074-  15 2.81  16 2.81  12 2.81   5 2.81  11 2.81   6 2.81  18 2.81   8 2.81
                             7 2.81
   5  0.320  0.329  0.074-  13 2.81  10 2.81   4 2.81  12 2.81  16 2.81  17 2.81   8 2.81   9 2.81
                             6 2.81
   6  0.653  0.329  0.074-  14 2.81  18 2.81  11 2.81   4 2.81  17 2.81   7 2.81  10 2.81   9 2.81
                             5 2.81
   7  0.987  0.662  0.074-  18 2.81  21 2.81  19 2.81  12 2.81   8 2.81  10 2.81   9 2.81   6 2.81
                             4 2.81
   8  0.320  0.662  0.074-  16 2.81  19 2.81  10 2.81   7 2.81  20 2.81   4 2.81  11 2.81   5 2.81
                             9 2.81
   9  0.653  0.662  0.074-  17 2.81  20 2.81  21 2.81  11 2.81  12 2.81   7 2.81   6 2.81   5 2.81
                             8 2.81
  10  0.320  0.995  0.074-  13 2.81  19 2.81   5 2.81   8 2.81  12 2.81   7 2.81  14 2.81   6 2.81
                            11 2.81
  11  0.653  0.995  0.074-  14 2.81  20 2.81  15 2.81   9 2.81   6 2.81  12 2.81   4 2.81   8 2.81
                            10 2.81
  12  0.987  0.995  0.074-  15 2.81  21 2.81  13 2.81   7 2.81   4 2.81  10 2.81   5 2.81  11 2.81
                             9 2.81
  13  0.209  0.106  0.179-  27 2.74  26 2.77   5 2.81  10 2.81  12 2.81  19 2.81  15 2.81  21 2.81
                            16 2.81  14 2.81  17 2.81  25 2.88
  14  0.542  0.106  0.179-  26 2.76  24 2.77   6 2.81  11 2.81  20 2.81  15 2.81  10 2.81  18 2.81
                            19 2.81  17 2.81  13 2.81  23 2.84
  15  0.876  0.106  0.179-  28 2.71  12 2.81   4 2.81  11 2.81  21 2.81  13 2.81  14 2.81  20 2.81
                            16 2.81  18 2.81  24 2.82  25 2.85
  16  0.209  0.440  0.179-  29 2.75  22 2.77   8 2.81   4 2.81  19 2.81  18 2.81   5 2.81  15 2.81
                            20 2.81  13 2.81  17 2.81  25 2.88
  17  0.542  0.440  0.179-  26 2.74  29 2.75  30 2.77   9 2.81  20 2.81  21 2.81  18 2.81   6 2.81
                             5 2.81  14 2.81  13 2.81  16 2.81
  18  0.876  0.440  0.179-  30 2.75  22 2.76  24 2.77   7 2.81   6 2.81  21 2.81  16 2.81  19 2.81
                            17 2.81   4 2.81  14 2.81  15 2.81
  19  0.209  0.773  0.179-  27 2.69  22 2.77   8 2.81  10 2.81   7 2.81  16 2.81  13 2.81  18 2.81
                            21 2.81  14 2.81  20 2.81  23 2.84
  20  0.542  0.773  0.179-  28 2.70  29 2.73   9 2.81  11 2.81  17 2.81  14 2.81  15 2.81  21 2.81
                             8 2.81  16 2.81  19 2.81  23 2.82
  21  0.876  0.773  0.179-  27 2.75  28 2.76  30 2.77  12 2.81   7 2.81   9 2.81  18 2.81  15 2.81
                            19 2.81  13 2.81  17 2.81  20 2.81
  22  0.096  0.550  0.282-  18 2.76  27 2.77  16 2.77  19 2.77  30 2.78  24 2.80  31 2.81  25 2.81
                            29 2.82  23 2.82  37 2.85  38 2.91
  23  0.433  0.882  0.285-  31 2.71  32 2.72  28 2.73  35 2.74  29 2.77  27 2.78  24 2.81  20 2.82
                            22 2.82  14 2.84  19 2.84  26 2.85
  24  0.760  0.221  0.283-  30 2.74  26 2.74  14 2.77  18 2.77  32 2.79  22 2.80  23 2.81  28 2.82
                            15 2.82  25 2.83  36 2.84  38 2.93
  25  0.092  0.215  0.287-  38 2.66  34 2.76  33 2.76  28 2.79  22 2.81  24 2.83  15 2.85  27 2.86
                            26 2.86  29 2.87  13 2.88  16 2.88
  26  0.435  0.221  0.281-  24 2.74  17 2.74  14 2.76  13 2.77  30 2.78  33 2.80  29 2.81  27 2.83
                            36 2.85  23 2.85  25 2.86  35 2.87
  27  0.102  0.881  0.279-  19 2.69  13 2.74  21 2.75  22 2.77  23 2.78  30 2.81  35 2.83  26 2.83
                            37 2.86  25 2.86  34 2.90  28 2.92
  28  0.760  0.887  0.279-  20 2.70  15 2.71  23 2.73  21 2.76  29 2.78  32 2.78  25 2.79  24 2.82
                            30 2.88  34 2.91  27 2.92  39 2.95
  29  0.433  0.554  0.280-  20 2.73  17 2.75  16 2.75  23 2.77  28 2.78  26 2.81  22 2.82  31 2.82
                            30 2.83  33 2.85  25 2.87  39 2.91
  30  0.766  0.549  0.282-  24 2.74  18 2.75  21 2.77  17 2.77  22 2.78  26 2.78  27 2.81  29 2.83
                            28 2.88  39 2.90  37 2.91  36 2.93
  31  0.321  0.665  0.386-  23 2.71  37 2.74  35 2.74  32 2.79  22 2.81  39 2.82  29 2.82  38 2.82
                            33 2.85
  32  0.656  0.994  0.385-  23 2.72  28 2.78  39 2.79  24 2.79  31 2.79  36 2.80  34 2.80  38 2.82
                            35 2.82
  33  0.326  0.328  0.387-  38 2.71  36 2.72  25 2.76  39 2.79  26 2.80  35 2.83  29 2.85  31 2.85
                            34 2.86
  34  0.986  0.989  0.389-  38 2.72  37 2.73  25 2.76  39 2.77  35 2.80  32 2.80  33 2.86  27 2.90
                            28 2.91
  35  0.318  0.989  0.387-  37 2.68  31 2.74  23 2.74  36 2.76  34 2.80  32 2.82  27 2.83  33 2.83
                            26 2.87
  36  0.643  0.319  0.391-   1 2.07   2 2.54  33 2.72  35 2.76  32 2.80  24 2.84  26 2.85  39 2.85
                            30 2.93  37 2.99  38 3.00
  37  0.999  0.672  0.390-  35 2.68   2 2.71  34 2.73  31 2.74  22 2.85  27 2.86  39 2.87  30 2.91
                            38 2.98  36 2.99
  38  0.999  0.318  0.390-   2 2.00  25 2.66  33 2.71  34 2.72  32 2.82  31 2.82  22 2.91  24 2.93
                            37 2.98  36 3.00
  39  0.654  0.662  0.391-  34 2.77  32 2.79  33 2.79  31 2.82  36 2.85  37 2.87  30 2.90  29 2.91
                            28 2.95
 

IMPORTANT INFORMATION: All symmetrisations will be switched off!
NOSYMM: (Re-)initialisation of all symmetry stuff for point group C_1.

 
 
 KPOINTS: mesh auto                               

Automatic generation of k-mesh.
Space group operators:
 irot       det(A)        alpha          n_x          n_y          n_z        tau_x        tau_y        tau_z
    1     1.000000     0.000000     1.000000     0.000000     0.000000     0.000000     0.000000     0.000000
 
 Subroutine IBZKPT returns following result:
 ===========================================
 
 Found      4 irreducible k-points:
 
 Following reciprocal coordinates:
            Coordinates               Weight
  0.000000  0.000000  0.000000      1.000000
  0.500000  0.000000  0.000000      1.000000
 -0.000000  0.500000  0.000000      1.000000
  0.500000  0.500000  0.000000      1.000000
 
 Following cartesian coordinates:
            Coordinates               Weight
  0.000000  0.000000  0.000000      1.000000
  0.068522  0.000000  0.000000      1.000000
  0.034261  0.059342  0.000000      1.000000
  0.102783  0.059342  0.000000      1.000000
 


--------------------------------------------------------------------------------------------------------




 Dimension of arrays:
   k-points           NKPTS =      4   k-points in BZ     NKDIM =      4   number of bands    NBANDS=    228
   number of dos      NEDOS =    301   number of ions     NIONS =     39
   non local maximal  LDIM  =      6   non local SUM 2l+1 LMDIM =     18
   total plane-waves  NPLWV = 276480
   max r-space proj   IRMAX =   2756   max aug-charges    IRDMAX=  12646
   dimension x,y,z NGX =    48 NGY =   48 NGZ =  120
   dimension x,y,z NGXF=    96 NGYF=   96 NGZF=  240
   support grid    NGXF=    96 NGYF=   96 NGZF=  240
   ions per type =               1   2  36
   NGX,Y,Z   is equivalent  to a cutoff of   9.47,  9.47,  9.12 a.u.
   NGXF,Y,Z  is equivalent  to a cutoff of  18.94, 18.94, 18.24 a.u.

 SYSTEM =  metal                                   
 POSCAR =  C    O    Pt                            

 Startparameter for this run:
   NWRITE =      2    write-flag & timer
   PREC   = normal    normal or accurate (medium, high low for compatibility)
   ISTART =      0    job   : 0-new  1-cont  2-samecut
   ICHARG =      2    charge: 1-file 2-atom 10-const
   ISPIN  =      1    spin polarized calculation?
   LNONCOLLINEAR =      F non collinear calculations
   LSORBIT =      F    spin-orbit coupling
   INIWAV =      1    electr: 0-lowe 1-rand  2-diag
   LASPH  =      F    aspherical Exc in radial PAW
   METAGGA=      F    non-selfconsistent MetaGGA calc.

 Electronic Relaxation 1
   ENCUT  =  450.0 eV  33.07 Ry    5.75 a.u.  14.57 14.57 37.84*2*pi/ulx,y,z
   ENINI  =  450.0     initial cutoff
   ENAUG  =  644.9 eV  augmentation charge cutoff
   NELM   =     60;   NELMIN=  8; NELMDL= -5     # of ELM steps 
   EDIFF  = 0.1E-03   stopping-criterion for ELM
   LREAL  =      T    real-space projection
   NLSPLINE    = F    spline interpolate recip. space projectors
   LCOMPAT=      F    compatible to vasp.4.4
   GGA_COMPAT  = T    GGA compatible to vasp.4.4-vasp.4.6
   LMAXPAW     = -100 max onsite density
   LMAXMIX     =    2 max onsite mixed and CHGCAR
   VOSKOWN=      0    Vosko Wilk Nusair interpolation
   ROPT   =   -0.00050  -0.00050  -0.00050
 Ionic relaxation
   EDIFFG = -.5E-01   stopping-criterion for IOM
   NSW    =   5000    number of steps for IOM
   NBLOCK =      1;   KBLOCK =   5000    inner block; outer block 
   IBRION =      1    ionic relax: 0-MD 1-quasi-New 2-CG
   NFREE  =      0    steps in history (QN), initial steepest desc. (CG)
   ISIF   =      2    stress and relaxation
   IWAVPR =     11    prediction:  0-non 1-charg 2-wave 3-comb
   ISYM   =      0    0-nonsym 1-usesym 2-fastsym
   LCORR  =      T    Harris-Foulkes like correction to forces

   POTIM  = 0.2000    time-step for ionic-motion
   TEIN   =    0.0    initial temperature
   TEBEG  =    0.0;   TEEND  =   0.0 temperature during run
   SMASS  =  -3.00    Nose mass-parameter (am)
   estimated Nose-frequenzy (Omega)   =  0.10E-29 period in steps =****** mass=  -0.162E-26a.u.
   SCALEE = 1.0000    scale energy and forces
   NPACO  =    256;   APACO  = 16.0  distance and # of slots for P.C.
   PSTRESS=    0.0 pullay stress

  Mass of Ions in am
   POMASS =  12.01 16.00195.08
  Ionic Valenz
   ZVAL   =   4.00  6.00 10.00
  Atomic Wigner-Seitz radii
   RWIGS  =  -1.00 -1.00 -1.00
  virtual crystal weights 
   VCA    =   1.00  1.00  1.00
   NELECT =     376.0000    total number of electrons
   NUPDOWN=      -1.0000    fix difference up-down

 DOS related values:
   EMIN   =  10.00;   EMAX   =-10.00  energy-range for DOS
   EFERMI =   0.00
   ISMEAR =     1;   SIGMA  =   0.20  broadening in eV -4-tet -1-fermi 0-gaus

 Electronic relaxation 2 (details)
   IALGO  =     68    algorithm
   LDIAG  =      T    sub-space diagonalisation (order eigenvalues)
   LSUBROT=      F    optimize rotation matrix (better conditioning)
   TURBO    =      0    0=normal 1=particle mesh
   IRESTART =      0    0=no restart 2=restart with 2 vectors
   NREBOOT  =      0    no. of reboots
   NMIN     =      0    reboot dimension
   EREF     =   0.00    reference energy to select bands
   IMIX   =      4    mixing-type and parameters
     AMIX     =   0.40;   BMIX     =  1.00
     AMIX_MAG =   1.60;   BMIX_MAG =  1.00
     AMIN     =   0.10
     WC   =   100.;   INIMIX=   1;  MIXPRE=   1;  MAXMIX= -45

 Intra band minimization:
   WEIMIN = 0.0010     energy-eigenvalue tresh-hold
   EBREAK =  0.11E-06  absolut break condition
   DEPER  =   0.30     relativ break condition  

   TIME   =   0.40     timestep for ELM

  volume/ion in A,a.u.               =      34.49       232.77
  Fermi-wavevector in a.u.,A,eV,Ry     =   1.070385  2.022734 15.588510  1.145723
  Thomas-Fermi vector in A             =   2.206093
 
 Write flags
   LWAVE        =      F    write WAVECAR
   LDOWNSAMPLE  =      F    k-point downsampling of WAVECAR
   LCHARG       =      F    write CHGCAR
   LVTOT        =      F    write LOCPOT, total local potential
   LVHAR        =      F    write LOCPOT, Hartree potential only
   LELF         =      F    write electronic localiz. function (ELF)
   LORBIT       =      0    0 simple, 1 ext, 2 COOP (PROOUT), +10 PAW based schemes


 Dipole corrections
   LMONO  =      F    monopole corrections only (constant potential shift)
   LDIPOL =      F    correct potential (dipole corrections)
   IDIPOL =      0    1-x, 2-y, 3-z, 4-all directions 
   EPSILON=  1.0000000 bulk dielectric constant

 Exchange correlation treatment:
   GGA     =    --    GGA type
   LEXCH   =     8    internal setting for exchange type
   VOSKOWN=      0    Vosko Wilk Nusair interpolation
   LHFCALC =     F    Hartree Fock is set to
   LHFONE  =     F    Hartree Fock one center treatment
   AEXX    =    0.0000 exact exchange contribution

 Linear response parameters
   LEPSILON=     F    determine dielectric tensor
   LRPA    =     F    only Hartree local field effects (RPA)
   LNABLA  =     F    use nabla operator in PAW spheres
   LVEL    =     F    velocity operator in full k-point grid
   LINTERFAST=   F  fast interpolation
   KINTER  =     0    interpolate to denser k-point grid
   CSHIFT  =0.1000    complex shift for real part using Kramers Kronig
   OMEGAMAX=  -1.0    maximum frequency
   DEG_THRESHOLD= 0.2000000E-02 threshold for treating states as degnerate
   RTIME   =   -0.100 relaxation time in fs
  (WPLASMAI=    0.000 imaginary part of plasma frequency in eV, 0.658/RTIME)
   DFIELD  = 0.0000000 0.0000000 0.0000000 field for delta impulse in time
 
 Orbital magnetization related:
   ORBITALMAG=     F  switch on orbital magnetization
   LCHIMAG   =     F  perturbation theory with respect to B field
   DQ        =  0.001000  dq finite difference perturbation B field
   LLRAUG    =     F  two centre corrections for induced B field



--------------------------------------------------------------------------------------------------------


 quasi-Newton-method for relaxation of ions
   using selective dynamics as specified on POSCAR
 charge density and potential will be updated during run
 non-spin polarized calculation
 RMM-DIIS sequential band-by-band and
  variant of blocked Davidson during initial phase
 perform sub-space diagonalisation
    before iterative eigenvector-optimisation
 modified Broyden-mixing scheme, WC =      100.0
 initial mixing is a Kerker type mixing with AMIX =  0.4000 and BMIX =      1.0000
 Hartree-type preconditioning will be used
 using additional bands           40
 real space projection scheme for non local part
 use partial core corrections
 calculate Harris-corrections to forces 
   (improved forces if not selfconsistent)
 use gradient corrections 
 use of overlap-Matrix (Vanderbilt PP)
 Methfessel and Paxton  Order N= 1 SIGMA  =   0.20


--------------------------------------------------------------------------------------------------------


  energy-cutoff  :      450.00
  volume of cell :     1345.22
      direct lattice vectors                 reciprocal lattice vectors
     7.296955120 -4.212899000  0.000000000     0.137043463  0.000000000  0.000000000
     0.000000000  8.425798000  0.000000000     0.068521732  0.118683121  0.000000000
     0.000000000  0.000000000 21.879635000     0.000000000  0.000000000  0.045704602

  length of vectors
     8.425798004  8.425798000 21.879635000     0.137043463  0.137043463  0.045704602


 
 k-points in units of 2pi/SCALE and weight: mesh auto                               
   0.00000000  0.00000000  0.00000000       0.250
   0.06852173  0.00000000  0.00000000       0.250
   0.03426087  0.05934156  0.00000000       0.250
   0.10278260  0.05934156  0.00000000       0.250
 
 k-points in reciprocal lattice and weights: mesh auto                               
   0.00000000  0.00000000  0.00000000       0.250
   0.50000000  0.00000000  0.00000000       0.250
  -0.00000000  0.50000000  0.00000000       0.250
   0.50000000  0.50000000  0.00000000       0.250
 
 position of ions in fractional coordinates (direct lattice) 
   0.69980449  0.43808560  0.47706685
   0.90186492  0.38000911  0.46411798
   0.67166795  0.46494148  0.52695538
   0.98675500  0.32859100  0.07437600
   0.32008800  0.32859100  0.07437600
   0.65342200  0.32859100  0.07437600
   0.98675500  0.66192500  0.07437600
   0.32008800  0.66192500  0.07437600
   0.65342200  0.66192500  0.07437600
   0.32008800  0.99525800  0.07437600
   0.65342200  0.99525800  0.07437600
   0.98675500  0.99525800  0.07437600
   0.20897700  0.10636900  0.17918600
   0.54231100  0.10636900  0.17918600
   0.87564400  0.10636900  0.17918600
   0.20897700  0.43970300  0.17918600
   0.54231100  0.43970300  0.17918600
   0.87564400  0.43970300  0.17918600
   0.20897700  0.77303600  0.17918600
   0.54231100  0.77303600  0.17918600
   0.87564400  0.77303600  0.17918600
   0.09629890  0.54964462  0.28171554
   0.43329968  0.88226868  0.28536816
   0.76005589  0.22138566  0.28276513
   0.09244608  0.21462720  0.28736937
   0.43481678  0.22118959  0.28111526
   0.10249667  0.88089965  0.27941549
   0.75972667  0.88722417  0.27905651
   0.43326611  0.55429167  0.28026999
   0.76643847  0.54937677  0.28154528
   0.32119438  0.66479366  0.38576899
   0.65566010  0.99358246  0.38519890
   0.32589808  0.32838733  0.38670848
   0.98580204  0.98886472  0.38856682
   0.31820861  0.98878565  0.38665614
   0.64327849  0.31876523  0.39105346
   0.99944168  0.67176832  0.38970621
   0.99901159  0.31828875  0.38977839
   0.65448608  0.66222908  0.39081452
 
 position of ions in cartesian coordinates  (Angst):
   5.10644198  0.74301512 10.43804854
   6.58086788 -0.59758587 10.15473209
   4.90113087  1.08783379 11.52959141
   7.20030695 -1.38845776  1.62731973
   2.33566777  1.42014298  1.62731973
   4.76799101  0.01584050  1.62731973
   7.20030695  1.42014719  1.62731973
   2.33566777  4.22874793  1.62731973
   4.76799101  2.82444545  1.62731973
   2.33566777  7.03734445  1.62731973
   4.76799101  5.63304198  1.62731973
   7.20030695  4.22874371  1.62731973
   1.52489579  0.01584471  3.92052428
   3.95721903 -1.38845776  3.92052428
   6.38953497 -2.79275602  3.92052428
   1.52489579  2.82444966  3.92052428
   3.95721903  1.42014719  3.92052428
   6.38953497  0.01584893  3.92052428
   1.52489579  5.63304619  3.92052428
   3.95721903  4.22874371  3.92052428
   6.38953497  2.82444545  3.92052428
   0.70268878  4.22549694  6.16383329
   3.16176832  5.60836992  6.24375115
   5.54609372 -1.33668781  6.18679793
   0.67457487  1.41893948  6.28753703
   3.17283850  0.03185961  6.15069937
   0.74791363  6.99047440  6.11350901
   5.54369143  4.27491986  6.10565461
   3.16152337  2.84504327  6.13220509
   5.59266711  1.40000985  6.16010797
   2.34374098  4.24825761  8.44048470
   4.78432233  5.60949529  8.42801140
   2.37806364  1.39394964  8.46104038
   7.19335328  4.17888993  8.50170013
   2.32195395  6.99072741  8.45989513
   4.69397426 -0.02421588  8.55610691
   7.29288110  1.44963734  8.52662965
   7.28974271 -1.52689817  8.52820883
   4.77575557  2.82252466  8.55087911
 


--------------------------------------------------------------------------------------------------------


 k-point  1 :   0.0000 0.0000 0.0000  plane waves:   29241
 k-point  2 :   0.5000 0.0000 0.0000  plane waves:   29108
 k-point  3 :  -0.0000 0.5000 0.0000  plane waves:   29108
 k-point  4 :   0.5000 0.5000 0.0000  plane waves:   29108

 maximum and minimum number of plane-waves per node :     14624    14548

 maximum number of plane-waves:     29241
 maximum index in each direction: 
   IXMAX=   14   IYMAX=   14   IZMAX=   37
   IXMIN=  -15   IYMIN=  -15   IZMIN=  -37


 real space projection operators:
  total allocation   :      13565.47 KBytes
  max/ min on nodes  :       6792.11       6773.36


 parallel 3D FFT for wavefunctions:
    minimum data exchange during FFTs selected (reduces bandwidth)
 parallel 3D FFT for charge:
    minimum data exchange during FFTs selected (reduces bandwidth)


 total amount of memory used by VASP MPI-rank0   131962. kBytes
=======================================================================

   base      :      30000. kBytes
   nonlr-proj:      10154. kBytes
   fftplans  :      13556. kBytes
   grid      :      23353. kBytes
   one-center:        311. kBytes
   wavefun   :      54588. kBytes
 
     INWAV:  cpu time    0.0000: real time    0.0000
 Broyden mixing: mesh for mixing (old mesh)
   NGX = 29   NGY = 29   NGZ = 75
  (NGX  = 96   NGY  = 96   NGZ  =240)
  gives a total of  63075 points

 initial charge density was supplied:
 charge density of overlapping atoms calculated
 number of electron     376.0000000 magnetization 
 keeping initial charge density in first step


--------------------------------------------------------------------------------------------------------


 Maximum index for non-local projection operator         1323
 Maximum index for augmentation-charges         1558 (set IRDMAX)


--------------------------------------------------------------------------------------------------------


 First call to EWALD:  gamma=   0.161
 Maximum number of real-space cells 4x 4x 2
 Maximum number of reciprocal cells 2x 2x 5

    FEWALD:  cpu time    0.0023: real time    0.0023


--------------------------------------- Iteration      1(   1)  ---------------------------------------


    POTLOK:  cpu time    0.1386: real time    0.3474
    SETDIJ:  cpu time    0.0106: real time    0.0106
     EDDAV:  cpu time    8.1236: real time    8.1823
       DOS:  cpu time    0.0010: real time    0.0010
    --------------------------------------------
      LOOP:  cpu time    8.2738: real time    8.5414

 eigenvalue-minimisations  :  1824
 total energy-change (2. order) : 0.2419868E+04  (-0.1595111E+05)
 number of electron     376.0000000 magnetization 
 augmentation part      376.0000000 magnetization 

 Free energy of the ion-electron system (eV)
  ---------------------------------------------------
  alpha Z        PSCENC =       975.10247152
  Ewald energy   TEWEN  =     91568.11985288
  -Hartree energ DENC   =   -120659.38937920
  -exchange      EXHF   =         0.00000000
  -V(xc)+E(xc)   XCENC  =       189.58120323
  PAW double counting   =     24789.08602224   -23775.73976456
  entropy T*S    EENTRO =         0.00857082
  eigenvalues    EBANDS =      2073.20485673
  atomic energy  EATOM  =     27259.89416086
  Solvation  Ediel_sol  =         0.00000000
  ---------------------------------------------------
  free energy    TOTEN  =      2419.86799454 eV

  energy without entropy =     2419.85942372  energy(sigma->0) =     2419.86513760


--------------------------------------------------------------------------------------------------------




--------------------------------------- Iteration      1(   2)  ---------------------------------------


     EDDAV:  cpu time    9.2797: real time    9.3469
       DOS:  cpu time    0.0010: real time    0.0010
    --------------------------------------------
      LOOP:  cpu time    9.2807: real time    9.3479

 eigenvalue-minimisations  :  2120
 total energy-change (2. order) :-0.2483664E+04  (-0.2307313E+04)
 number of electron     376.0000000 magnetization 
 augmentation part      376.0000000 magnetization 

 Free energy of the ion-electron system (eV)
  ---------------------------------------------------
  alpha Z        PSCENC =       975.10247152
  Ewald energy   TEWEN  =     91568.11985288
  -Hartree energ DENC   =   -120659.38937920
  -exchange      EXHF   =         0.00000000
  -V(xc)+E(xc)   XCENC  =       189.58120323
  PAW double counting   =     24789.08602224   -23775.73976456
  entropy T*S    EENTRO =        -0.01069105
  eigenvalues    EBANDS =      -410.44015841
  atomic energy  EATOM  =     27259.89416086
  Solvation  Ediel_sol  =         0.00000000
  ---------------------------------------------------
  free energy    TOTEN  =       -63.79628247 eV

  energy without entropy =      -63.78559143  energy(sigma->0) =      -63.79271879


--------------------------------------------------------------------------------------------------------




--------------------------------------- Iteration      1(   3)  ---------------------------------------


     EDDAV:  cpu time    9.4130: real time    9.4829
       DOS:  cpu time    0.0010: real time    0.0010
    --------------------------------------------
      LOOP:  cpu time    9.4140: real time    9.4840

 eigenvalue-minimisations  :  2168
 total energy-change (2. order) :-0.1766936E+03  (-0.1602629E+03)
 number of electron     376.0000000 magnetization 
 augmentation part      376.0000000 magnetization 

 Free energy of the ion-electron system (eV)
  ---------------------------------------------------
  alpha Z        PSCENC =       975.10247152
  Ewald energy   TEWEN  =     91568.11985288
  -Hartree energ DENC   =   -120659.38937920
  -exchange      EXHF   =         0.00000000
  -V(xc)+E(xc)   XCENC  =       189.58120323
  PAW double counting   =     24789.08602224   -23775.73976456
  entropy T*S    EENTRO =        -0.00350573
  eigenvalues    EBANDS =      -587.14093135
  atomic energy  EATOM  =     27259.89416086
  Solvation  Ediel_sol  =         0.00000000
  ---------------------------------------------------
  free energy    TOTEN  =      -240.48987011 eV

  energy without entropy =     -240.48636437  energy(sigma->0) =     -240.48870153


--------------------------------------------------------------------------------------------------------




--------------------------------------- Iteration      1(   4)  ---------------------------------------


     EDDAV:  cpu time    9.4131: real time    9.4803
       DOS:  cpu time    0.0010: real time    0.0010
    --------------------------------------------
      LOOP:  cpu time    9.4142: real time    9.4813

 eigenvalue-minimisations  :  2344
 total energy-change (2. order) :-0.7615097E+01  (-0.7332272E+01)
 number of electron     376.0000000 magnetization 
 augmentation part      376.0000000 magnetization 

 Free energy of the ion-electron system (eV)
  ---------------------------------------------------
  alpha Z        PSCENC =       975.10247152
  Ewald energy   TEWEN  =     91568.11985288
  -Hartree energ DENC   =   -120659.38937920
  -exchange      EXHF   =         0.00000000
  -V(xc)+E(xc)   XCENC  =       189.58120323
  PAW double counting   =     24789.08602224   -23775.73976456
  entropy T*S    EENTRO =        -0.00435546
  eigenvalues    EBANDS =      -594.75517889
  atomic energy  EATOM  =     27259.89416086
  Solvation  Ediel_sol  =         0.00000000
  ---------------------------------------------------
  free energy    TOTEN  =      -248.10496737 eV

  energy without entropy =     -248.10061191  energy(sigma->0) =     -248.10351555


--------------------------------------------------------------------------------------------------------




--------------------------------------- Iteration      1(   5)  ---------------------------------------


     EDDAV:  cpu time    9.8212: real time    9.8935
       DOS:  cpu time    0.0011: real time    0.0011
    CHARGE:  cpu time    0.3833: real time    0.3862
    MIXING:  cpu time    0.0068: real time    0.0069
    --------------------------------------------
      LOOP:  cpu time   10.2125: real time   10.2878

 eigenvalue-minimisations  :  2344
 total energy-change (2. order) :-0.2147301E+00  (-0.2128889E+00)
 number of electron     376.0000069 magnetization 
 augmentation part      105.7964503 magnetization 

 Broyden mixing:
  rms(total) = 0.27371E+01    rms(broyden)= 0.27367E+01
  rms(prec ) = 0.30572E+01
  weight for this iteration     100.00

 Free energy of the ion-electron system (eV)
  ---------------------------------------------------
  alpha Z        PSCENC =       975.10247152
  Ewald energy   TEWEN  =     91568.11985288
  -Hartree energ DENC   =   -120659.38937920
  -exchange      EXHF   =         0.00000000
  -V(xc)+E(xc)   XCENC  =       189.58120323
  PAW double counting   =     24789.08602224   -23775.73976456
  entropy T*S    EENTRO =        -0.00424563
  eigenvalues    EBANDS =      -594.97001884
  atomic energy  EATOM  =     27259.89416086
  Solvation  Ediel_sol  =         0.00000000
  ---------------------------------------------------
  free energy    TOTEN  =      -248.31969749 eV

  energy without entropy =     -248.31545186  energy(sigma->0) =     -248.31828228


--------------------------------------------------------------------------------------------------------




--------------------------------------- Iteration      1(   6)  ---------------------------------------


    POTLOK:  cpu time    0.1322: real time    0.1331
    SETDIJ:  cpu time    0.0101: real time    0.0102
    EDDIAG:  cpu time    1.3033: real time    1.3130
  RMM-DIIS:  cpu time    4.4641: real time    4.4994
    ORTHCH:  cpu time    0.2099: real time    0.2112
       DOS:  cpu time    0.0011: real time    0.0011
    CHARGE:  cpu time    0.3786: real time    0.3813
    MIXING:  cpu time    0.0054: real time    0.0054
    --------------------------------------------
      LOOP:  cpu time    6.5046: real time    6.5547

 eigenvalue-minimisations  :  1831
 total energy-change (2. order) : 0.1117244E+01  (-0.5448159E+01)
 number of electron     376.0000060 magnetization 
 augmentation part      112.9386294 magnetization 

 Broyden mixing:
  rms(total) = 0.29528E+01    rms(broyden)= 0.29518E+01
  rms(prec ) = 0.39274E+01
  weight for this iteration     100.00

 eigenvalues of (default mixing * dielectric matrix)
  average eigenvalue GAMMA=   0.4876
  0.4876

 Free energy of the ion-electron system (eV)
  ---------------------------------------------------
  alpha Z        PSCENC =       975.10247152
  Ewald energy   TEWEN  =     91568.11985288
  -Hartree energ DENC   =   -120187.92160466
  -exchange      EXHF   =         0.00000000
  -V(xc)+E(xc)   XCENC  =       182.48081661
  PAW double counting   =     26717.31358664   -25757.62375114
  entropy T*S    EENTRO =        -0.24156191
  eigenvalues    EBANDS =     -1004.32642445
  atomic energy  EATOM  =     27259.89416086
  Solvation  Ediel_sol  =         0.00000000
  ---------------------------------------------------
  free energy    TOTEN  =      -247.20245364 eV

  energy without entropy =     -246.96089173  energy(sigma->0) =     -247.12193300


--------------------------------------------------------------------------------------------------------




--------------------------------------- Iteration      1(   7)  ---------------------------------------


    POTLOK:  cpu time    0.1226: real time    0.1235
    SETDIJ:  cpu time    0.0095: real time    0.0096
    EDDIAG:  cpu time    1.3072: real time    1.3166
  RMM-DIIS:  cpu time    4.3842: real time    4.4181
    ORTHCH:  cpu time    0.2132: real time    0.3486
       DOS:  cpu time    0.0011: real time    0.0011
    CHARGE:  cpu time    0.3767: real time    0.3794
    MIXING:  cpu time    0.0041: real time    0.0042
    --------------------------------------------
      LOOP:  cpu time    6.4186: real time    6.6009

 eigenvalue-minimisations  :  1830
 total energy-change (2. order) : 0.8847313E+01  (-0.3289638E+01)
 number of electron     376.0000069 magnetization 
 augmentation part      111.4462532 magnetization 

 Broyden mixing:
  rms(total) = 0.17817E+01    rms(broyden)= 0.17807E+01
  rms(prec ) = 0.25770E+01
  weight for this iteration     100.00

 eigenvalues of (default mixing * dielectric matrix)
  average eigenvalue GAMMA=   0.6560
  1.0452  0.2668

 Free energy of the ion-electron system (eV)
  ---------------------------------------------------
  alpha Z        PSCENC =       975.10247152
  Ewald energy   TEWEN  =     91568.11985288
  -Hartree energ DENC   =   -120385.59996252
  -exchange      EXHF   =         0.00000000
  -V(xc)+E(xc)   XCENC  =       180.09559466
  PAW double counting   =     27373.58123730   -26421.29416801
  entropy T*S    EENTRO =        -0.10963753
  eigenvalues    EBANDS =      -788.14469014
  atomic energy  EATOM  =     27259.89416086
  Solvation  Ediel_sol  =         0.00000000
  ---------------------------------------------------
  free energy    TOTEN  =      -238.35514097 eV

  energy without entropy =     -238.24550344  energy(sigma->0) =     -238.31859513


--------------------------------------------------------------------------------------------------------




--------------------------------------- Iteration      1(   8)  ---------------------------------------


    POTLOK:  cpu time    0.1266: real time    0.1275
    SETDIJ:  cpu time    0.0096: real time    0.0097
    EDDIAG:  cpu time    1.2975: real time    1.3071
  RMM-DIIS:  cpu time    4.1186: real time    4.1490
    ORTHCH:  cpu time    0.1948: real time    0.1958
       DOS:  cpu time    0.0010: real time    0.0010
    CHARGE:  cpu time    0.3661: real time    0.3687
    MIXING:  cpu time    0.0042: real time    0.0042
    --------------------------------------------
      LOOP:  cpu time    6.1184: real time    6.1632

 eigenvalue-minimisations  :  1832
 total energy-change (2. order) :-0.4913024E+01  (-0.7924143E+00)
 number of electron     376.0000079 magnetization 
 augmentation part      112.4587890 magnetization 

 Broyden mixing:
  rms(total) = 0.24815E+01    rms(broyden)= 0.24814E+01
  rms(prec ) = 0.45142E+01
  weight for this iteration     100.00

 eigenvalues of (default mixing * dielectric matrix)
  average eigenvalue GAMMA=   0.5518
  1.2081  0.2889  0.1584

 Free energy of the ion-electron system (eV)
  ---------------------------------------------------
  alpha Z        PSCENC =       975.10247152
  Ewald energy   TEWEN  =     91568.11985288
  -Hartree energ DENC   =   -120306.44370263
  -exchange      EXHF   =         0.00000000
  -V(xc)+E(xc)   XCENC  =       178.88334644
  PAW double counting   =     28274.17663611   -27336.01069333
  entropy T*S    EENTRO =         0.05089292
  eigenvalues    EBANDS =      -857.04112959
  atomic energy  EATOM  =     27259.89416086
  Solvation  Ediel_sol  =         0.00000000
  ---------------------------------------------------
  free energy    TOTEN  =      -243.26816482 eV

  energy without entropy =     -243.31905774  energy(sigma->0) =     -243.28512913


--------------------------------------------------------------------------------------------------------




--------------------------------------- Iteration      1(   9)  ---------------------------------------


    POTLOK:  cpu time    0.1183: real time    0.1190
    SETDIJ:  cpu time    0.0090: real time    0.0091
    EDDIAG:  cpu time    1.1721: real time    1.1799
  RMM-DIIS:  cpu time    4.3511: real time    4.3847
    ORTHCH:  cpu time    0.2157: real time    0.2171
       DOS:  cpu time    0.0011: real time    0.0011
    CHARGE:  cpu time    0.3795: real time    0.3822
    MIXING:  cpu time    0.0044: real time    0.0044
    --------------------------------------------
      LOOP:  cpu time    6.2512: real time    6.2975

 eigenvalue-minimisations  :  1831
 total energy-change (2. order) : 0.1177921E+02  (-0.3534393E+00)
 number of electron     376.0000069 magnetization 
 augmentation part      112.6617355 magnetization 

 Broyden mixing:
  rms(total) = 0.86309E+00    rms(broyden)= 0.86297E+00
  rms(prec ) = 0.13652E+01
  weight for this iteration     100.00

 eigenvalues of (default mixing * dielectric matrix)
  average eigenvalue GAMMA=   0.5282
  1.3158  0.3409  0.3409  0.1149

 Free energy of the ion-electron system (eV)
  ---------------------------------------------------
  alpha Z        PSCENC =       975.10247152
  Ewald energy   TEWEN  =     91568.11985288
  -Hartree energ DENC   =   -120279.74445886
  -exchange      EXHF   =         0.00000000
  -V(xc)+E(xc)   XCENC  =       178.50843747
  PAW double counting   =     28702.27417733   -27770.57394376
  entropy T*S    EENTRO =        -0.04929906
  eigenvalues    EBANDS =      -865.02035013
  atomic energy  EATOM  =     27259.89416086
  Solvation  Ediel_sol  =         0.00000000
  ---------------------------------------------------
  free energy    TOTEN  =      -231.48895176 eV

  energy without entropy =     -231.43965269  energy(sigma->0) =     -231.47251873


--------------------------------------------------------------------------------------------------------




--------------------------------------- Iteration      1(  10)  ---------------------------------------


    POTLOK:  cpu time    0.1276: real time    0.1285
    SETDIJ:  cpu time    0.0097: real time    0.0098
    EDDIAG:  cpu time    1.3121: real time    1.3215
  RMM-DIIS:  cpu time    4.5164: real time    4.5513
    ORTHCH:  cpu time    0.2168: real time    0.2183
       DOS:  cpu time    0.0011: real time    0.0011
    CHARGE:  cpu time    0.3904: real time    0.3932
    MIXING:  cpu time    0.0050: real time    0.0051
    --------------------------------------------
      LOOP:  cpu time    6.5790: real time    6.6287

 eigenvalue-minimisations  :  1831
 total energy-change (2. order) : 0.9614722E+00  (-0.1166949E+00)
 number of electron     376.0000069 magnetization 
 augmentation part      112.7984764 magnetization 

 Broyden mixing:
  rms(total) = 0.47355E+00    rms(broyden)= 0.47306E+00
  rms(prec ) = 0.61558E+00
  weight for this iteration     100.00

 eigenvalues of (default mixing * dielectric matrix)
  average eigenvalue GAMMA=   0.5155
  1.3813  0.5161  0.3461  0.2222  0.1121

 Free energy of the ion-electron system (eV)
  ---------------------------------------------------
  alpha Z        PSCENC =       975.10247152
  Ewald energy   TEWEN  =     91568.11985288
  -Hartree energ DENC   =   -120293.69117573
  -exchange      EXHF   =         0.00000000
  -V(xc)+E(xc)   XCENC  =       178.42529963
  PAW double counting   =     29024.82262816   -28097.72469680
  entropy T*S    EENTRO =        -0.04007057
  eigenvalues    EBANDS =      -845.43594951
  atomic energy  EATOM  =     27259.89416086
  Solvation  Ediel_sol  =         0.00000000
  ---------------------------------------------------
  free energy    TOTEN  =      -230.52747955 eV

  energy without entropy =     -230.48740898  energy(sigma->0) =     -230.51412269


--------------------------------------------------------------------------------------------------------




--------------------------------------- Iteration      1(  11)  ---------------------------------------


    POTLOK:  cpu time    0.1291: real time    0.1299
    SETDIJ:  cpu time    0.0100: real time    0.0101
    EDDIAG:  cpu time    1.2967: real time    1.3058
  RMM-DIIS:  cpu time    4.5370: real time    4.5718
    ORTHCH:  cpu time    0.2164: real time    0.2179
       DOS:  cpu time    0.0011: real time    0.0011
    CHARGE:  cpu time    0.3841: real time    0.3868
    MIXING:  cpu time    0.0047: real time    0.0047
    --------------------------------------------
      LOOP:  cpu time    6.5792: real time    6.6281

 eigenvalue-minimisations  :  1831
 total energy-change (2. order) : 0.4050839E+00  (-0.3430565E-01)
 number of electron     376.0000068 magnetization 
 augmentation part      112.8677304 magnetization 

 Broyden mixing:
  rms(total) = 0.26747E+00    rms(broyden)= 0.26745E+00
  rms(prec ) = 0.32770E+00
  weight for this iteration     100.00

 eigenvalues of (default mixing * dielectric matrix)
  average eigenvalue GAMMA=   0.5889
  1.5355  0.7930  0.4931  0.3464  0.2531  0.1122

 Free energy of the ion-electron system (eV)
  ---------------------------------------------------
  alpha Z        PSCENC =       975.10247152
  Ewald energy   TEWEN  =     91568.11985288
  -Hartree energ DENC   =   -120279.70892472
  -exchange      EXHF   =         0.00000000
  -V(xc)+E(xc)   XCENC  =       178.34451194
  PAW double counting   =     29265.42718217   -28341.44581410
  entropy T*S    EENTRO =        -0.03294221
  eigenvalues    EBANDS =      -855.82289402
  atomic energy  EATOM  =     27259.89416086
  Solvation  Ediel_sol  =         0.00000000
  ---------------------------------------------------
  free energy    TOTEN  =      -230.12239567 eV

  energy without entropy =     -230.08945346  energy(sigma->0) =     -230.11141493


--------------------------------------------------------------------------------------------------------




--------------------------------------- Iteration      1(  12)  ---------------------------------------


    POTLOK:  cpu time    0.1317: real time    0.1326
    SETDIJ:  cpu time    0.0099: real time    0.0100
    EDDIAG:  cpu time    1.2964: real time    1.3055
  RMM-DIIS:  cpu time    4.5264: real time    4.5611
    ORTHCH:  cpu time    0.2161: real time    0.2176
       DOS:  cpu time    0.0010: real time    0.0011
    CHARGE:  cpu time    0.3808: real time    0.3835
    MIXING:  cpu time    0.0049: real time    0.0049
    --------------------------------------------
      LOOP:  cpu time    6.5672: real time    6.6163

 eigenvalue-minimisations  :  1833
 total energy-change (2. order) : 0.6527802E-01  (-0.1763567E-01)
 number of electron     376.0000067 magnetization 
 augmentation part      112.9776251 magnetization 

 Broyden mixing:
  rms(total) = 0.27557E+00    rms(broyden)= 0.27546E+00
  rms(prec ) = 0.32802E+00
  weight for this iteration     100.00

 eigenvalues of (default mixing * dielectric matrix)
  average eigenvalue GAMMA=   0.6854
  1.9267  1.1106  0.6905  0.4457  0.1120  0.2561  0.2561

 Free energy of the ion-electron system (eV)
  ---------------------------------------------------
  alpha Z        PSCENC =       975.10247152
  Ewald energy   TEWEN  =     91568.11985288
  -Hartree energ DENC   =   -120271.49413587
  -exchange      EXHF   =         0.00000000
  -V(xc)+E(xc)   XCENC  =       178.27537531
  PAW double counting   =     29584.87849002   -28664.93043246
  entropy T*S    EENTRO =        -0.03837479
  eigenvalues    EBANDS =      -859.86452514
  atomic energy  EATOM  =     27259.89416086
  Solvation  Ediel_sol  =         0.00000000
  ---------------------------------------------------
  free energy    TOTEN  =      -230.05711765 eV

  energy without entropy =     -230.01874286  energy(sigma->0) =     -230.04432606


--------------------------------------------------------------------------------------------------------




--------------------------------------- Iteration      1(  13)  ---------------------------------------


    POTLOK:  cpu time    0.1300: real time    0.1309
    SETDIJ:  cpu time    0.0100: real time    0.0101
    EDDIAG:  cpu time    1.2500: real time    1.2590
  RMM-DIIS:  cpu time    4.4183: real time    4.4531
    ORTHCH:  cpu time    0.2152: real time    0.2167
       DOS:  cpu time    0.0011: real time    0.0011
    CHARGE:  cpu time    0.3741: real time    0.3768
    MIXING:  cpu time    0.0046: real time    0.0046
    --------------------------------------------
      LOOP:  cpu time    6.4032: real time    6.4523

 eigenvalue-minimisations  :  1830
 total energy-change (2. order) : 0.3627930E-01  (-0.1640565E-01)
 number of electron     376.0000067 magnetization 
 augmentation part      112.9783184 magnetization 

 Broyden mixing:
  rms(total) = 0.19418E+00    rms(broyden)= 0.19416E+00
  rms(prec ) = 0.23606E+00
  weight for this iteration     100.00

 eigenvalues of (default mixing * dielectric matrix)
  average eigenvalue GAMMA=   0.7140
  2.2850  1.2330  0.7930  0.4645  0.1120  0.3163  0.2396  0.2686

 Free energy of the ion-electron system (eV)
  ---------------------------------------------------
  alpha Z        PSCENC =       975.10247152
  Ewald energy   TEWEN  =     91568.11985288
  -Hartree energ DENC   =   -120270.14199929
  -exchange      EXHF   =         0.00000000
  -V(xc)+E(xc)   XCENC  =       178.16435023
  PAW double counting   =     29869.23767331   -28952.69758979
  entropy T*S    EENTRO =        -0.02330300
  eigenvalues    EBANDS =      -857.67645508
  atomic energy  EATOM  =     27259.89416086
  Solvation  Ediel_sol  =         0.00000000
  ---------------------------------------------------
  free energy    TOTEN  =      -230.02083835 eV

  energy without entropy =     -229.99753536  energy(sigma->0) =     -230.01307069


--------------------------------------------------------------------------------------------------------




--------------------------------------- Iteration      1(  14)  ---------------------------------------


    POTLOK:  cpu time    0.1199: real time    0.1206
    SETDIJ:  cpu time    0.0092: real time    0.0092
    EDDIAG:  cpu time    1.0614: real time    1.0682
  RMM-DIIS:  cpu time    4.2432: real time    4.2753
    ORTHCH:  cpu time    0.2131: real time    0.2146
       DOS:  cpu time    0.0011: real time    0.0011
    CHARGE:  cpu time    0.3797: real time    0.3823
    MIXING:  cpu time    0.0052: real time    0.0053
    --------------------------------------------
      LOOP:  cpu time    6.0327: real time    6.0767

 eigenvalue-minimisations  :  1830
 total energy-change (2. order) : 0.4273651E-01  (-0.9137532E-02)
 number of electron     376.0000067 magnetization 
 augmentation part      112.9534037 magnetization 

 Broyden mixing:
  rms(total) = 0.98006E-01    rms(broyden)= 0.97907E-01
  rms(prec ) = 0.12660E+00
  weight for this iteration     100.00

 eigenvalues of (default mixing * dielectric matrix)
  average eigenvalue GAMMA=   0.7117
  2.3954  1.2480  0.8697  0.5188  0.4902  0.1120  0.2862  0.2424  0.2424

 Free energy of the ion-electron system (eV)
  ---------------------------------------------------
  alpha Z        PSCENC =       975.10247152
  Ewald energy   TEWEN  =     91568.11985288
  -Hartree energ DENC   =   -120271.90965571
  -exchange      EXHF   =         0.00000000
  -V(xc)+E(xc)   XCENC  =       178.09300401
  PAW double counting   =     30039.36200395   -29124.77043262
  entropy T*S    EENTRO =        -0.02086713
  eigenvalues    EBANDS =      -853.84863961
  atomic energy  EATOM  =     27259.89416086
  Solvation  Ediel_sol  =         0.00000000
  ---------------------------------------------------
  free energy    TOTEN  =      -229.97810184 eV

  energy without entropy =     -229.95723471  energy(sigma->0) =     -229.97114613


--------------------------------------------------------------------------------------------------------




--------------------------------------- Iteration      1(  15)  ---------------------------------------


    POTLOK:  cpu time    0.1253: real time    0.1261
    SETDIJ:  cpu time    0.0099: real time    0.0100
    EDDIAG:  cpu time    1.2690: real time    1.2783
  RMM-DIIS:  cpu time    4.4239: real time    4.4579
    ORTHCH:  cpu time    0.2104: real time    0.2117
       DOS:  cpu time    0.0012: real time    0.0012
    CHARGE:  cpu time    0.3704: real time    0.3731
    MIXING:  cpu time    0.0056: real time    0.0056
    --------------------------------------------
      LOOP:  cpu time    6.4157: real time    6.4639

 eigenvalue-minimisations  :  1831
 total energy-change (2. order) : 0.9387805E-02  (-0.2917391E-02)
 number of electron     376.0000067 magnetization 
 augmentation part      112.9539087 magnetization 

 Broyden mixing:
  rms(total) = 0.58138E-01    rms(broyden)= 0.58134E-01
  rms(prec ) = 0.74224E-01
  weight for this iteration     100.00

 eigenvalues of (default mixing * dielectric matrix)
  average eigenvalue GAMMA=   0.7065
  2.4759  1.2567  0.9129  0.7384  0.4717  0.1120  0.3475  0.2679  0.2551  0.2266

 Free energy of the ion-electron system (eV)
  ---------------------------------------------------
  alpha Z        PSCENC =       975.10247152
  Ewald energy   TEWEN  =     91568.11985288
  -Hartree energ DENC   =   -120273.74837239
  -exchange      EXHF   =         0.00000000
  -V(xc)+E(xc)   XCENC  =       178.09530580
  PAW double counting   =     30082.51411813   -29168.38210003
  entropy T*S    EENTRO =        -0.02346517
  eigenvalues    EBANDS =      -851.54068565
  atomic energy  EATOM  =     27259.89416086
  Solvation  Ediel_sol  =         0.00000000
  ---------------------------------------------------
  free energy    TOTEN  =      -229.96871404 eV

  energy without entropy =     -229.94524887  energy(sigma->0) =     -229.96089232


--------------------------------------------------------------------------------------------------------




--------------------------------------- Iteration      1(  16)  ---------------------------------------


    POTLOK:  cpu time    0.1196: real time    0.1203
    SETDIJ:  cpu time    0.0094: real time    0.0095
    EDDIAG:  cpu time    1.1307: real time    1.1382
  RMM-DIIS:  cpu time    4.0346: real time    4.0632
    ORTHCH:  cpu time    0.1980: real time    0.1990
       DOS:  cpu time    0.0011: real time    0.0011
    CHARGE:  cpu time    0.3382: real time    0.3403
    MIXING:  cpu time    0.0052: real time    0.0052
    --------------------------------------------
      LOOP:  cpu time    5.8368: real time    5.8768

 eigenvalue-minimisations  :  1826
 total energy-change (2. order) : 0.5154215E-02  (-0.6375632E-03)
 number of electron     376.0000067 magnetization 
 augmentation part      112.9527558 magnetization 

 Broyden mixing:
  rms(total) = 0.22836E-01    rms(broyden)= 0.22832E-01
  rms(prec ) = 0.28499E-01
  weight for this iteration     100.00

 eigenvalues of (default mixing * dielectric matrix)
  average eigenvalue GAMMA=   0.6972
  2.4863  1.2422  0.8715  0.8715  0.5083  0.5083  0.1120  0.3267  0.2625  0.2537
  0.2257

 Free energy of the ion-electron system (eV)
  ---------------------------------------------------
  alpha Z        PSCENC =       975.10247152
  Ewald energy   TEWEN  =     91568.11985288
  -Hartree energ DENC   =   -120274.92083317
  -exchange      EXHF   =         0.00000000
  -V(xc)+E(xc)   XCENC  =       178.10262070
  PAW double counting   =     30103.59799421   -29189.65825540
  entropy T*S    EENTRO =        -0.02461379
  eigenvalues    EBANDS =      -850.17695764
  atomic energy  EATOM  =     27259.89416086
  Solvation  Ediel_sol  =         0.00000000
  ---------------------------------------------------
  free energy    TOTEN  =      -229.96355982 eV

  energy without entropy =     -229.93894603  energy(sigma->0) =     -229.95535523


--------------------------------------------------------------------------------------------------------




--------------------------------------- Iteration      1(  17)  ---------------------------------------


    POTLOK:  cpu time    0.1130: real time    0.1137
    SETDIJ:  cpu time    0.0093: real time    0.0093
    EDDIAG:  cpu time    1.1355: real time    1.1428
  RMM-DIIS:  cpu time    4.2053: real time    4.2378
    ORTHCH:  cpu time    0.2090: real time    0.2101
       DOS:  cpu time    0.0011: real time    0.0011
    CHARGE:  cpu time    0.3851: real time    0.3877
    MIXING:  cpu time    0.0051: real time    0.0051
    --------------------------------------------
      LOOP:  cpu time    6.0634: real time    6.1077

 eigenvalue-minimisations  :  1819
 total energy-change (2. order) : 0.3707744E-03  (-0.1717118E-03)
 number of electron     376.0000067 magnetization 
 augmentation part      112.9543513 magnetization 

 Broyden mixing:
  rms(total) = 0.15982E-01    rms(broyden)= 0.15975E-01
  rms(prec ) = 0.19435E-01
  weight for this iteration     100.00

 eigenvalues of (default mixing * dielectric matrix)
  average eigenvalue GAMMA=   0.7333
  2.4846  1.2811  1.2811  1.0451  0.7261  0.4880  0.1120  0.3492  0.2984  0.2545
  0.2545  0.2247

 Free energy of the ion-electron system (eV)
  ---------------------------------------------------
  alpha Z        PSCENC =       975.10247152
  Ewald energy   TEWEN  =     91568.11985288
  -Hartree energ DENC   =   -120275.67249349
  -exchange      EXHF   =         0.00000000
  -V(xc)+E(xc)   XCENC  =       178.10880345
  PAW double counting   =     30104.49345396   -29190.53121260
  entropy T*S    EENTRO =        -0.02516087
  eigenvalues    EBANDS =      -849.45306476
  atomic energy  EATOM  =     27259.89416086
  Solvation  Ediel_sol  =         0.00000000
  ---------------------------------------------------
  free energy    TOTEN  =      -229.96318905 eV

  energy without entropy =     -229.93802817  energy(sigma->0) =     -229.95480209


--------------------------------------------------------------------------------------------------------




--------------------------------------- Iteration      1(  18)  ---------------------------------------


    POTLOK:  cpu time    0.1183: real time    0.1191
    SETDIJ:  cpu time    0.0092: real time    0.0092
    EDDIAG:  cpu time    1.2465: real time    1.2562
  RMM-DIIS:  cpu time    4.4156: real time    4.4502
    ORTHCH:  cpu time    0.2116: real time    0.2131
       DOS:  cpu time    0.0010: real time    0.0010
    CHARGE:  cpu time    0.3653: real time    0.3678
    MIXING:  cpu time    0.0058: real time    0.0059
    --------------------------------------------
      LOOP:  cpu time    6.3733: real time    6.4225

 eigenvalue-minimisations  :  1777
 total energy-change (2. order) :-0.2144403E-03  (-0.8445095E-04)
 number of electron     376.0000067 magnetization 
 augmentation part      112.9520718 magnetization 

 Broyden mixing:
  rms(total) = 0.13595E-01    rms(broyden)= 0.13595E-01
  rms(prec ) = 0.16754E-01
  weight for this iteration     100.00

 eigenvalues of (default mixing * dielectric matrix)
  average eigenvalue GAMMA=   0.7314
  2.4841  1.6291  1.3336  0.9750  0.7725  0.4797  0.1120  0.3941  0.3338  0.2756
  0.2476  0.2476  0.2233

 Free energy of the ion-electron system (eV)
  ---------------------------------------------------
  alpha Z        PSCENC =       975.10247152
  Ewald energy   TEWEN  =     91568.11985288
  -Hartree energ DENC   =   -120277.01453502
  -exchange      EXHF   =         0.00000000
  -V(xc)+E(xc)   XCENC  =       178.11610449
  PAW double counting   =     30103.17306237   -29189.13611223
  entropy T*S    EENTRO =        -0.02527924
  eigenvalues    EBANDS =      -848.19312912
  atomic energy  EATOM  =     27259.89416086
  Solvation  Ediel_sol  =         0.00000000
  ---------------------------------------------------
  free energy    TOTEN  =      -229.96340349 eV

  energy without entropy =     -229.93812425  energy(sigma->0) =     -229.95497707


--------------------------------------------------------------------------------------------------------




--------------------------------------- Iteration      1(  19)  ---------------------------------------


    POTLOK:  cpu time    0.1198: real time    0.1206
    SETDIJ:  cpu time    0.0091: real time    0.0092
    EDDIAG:  cpu time    1.4333: real time    1.4431
  RMM-DIIS:  cpu time    2.9495: real time    2.9699
    ORTHCH:  cpu time    0.2084: real time    0.2097
       DOS:  cpu time    0.0011: real time    0.0011
    CHARGE:  cpu time    0.3762: real time    0.3786
    MIXING:  cpu time    0.0061: real time    0.0061
    --------------------------------------------
      LOOP:  cpu time    5.1036: real time    5.1382

 eigenvalue-minimisations  :  1299
 total energy-change (2. order) : 0.1122014E-03  (-0.3827269E-04)
 number of electron     376.0000067 magnetization 
 augmentation part      112.9512908 magnetization 

 Broyden mixing:
  rms(total) = 0.48663E-02    rms(broyden)= 0.48652E-02
  rms(prec ) = 0.63309E-02
  weight for this iteration     100.00

 eigenvalues of (default mixing * dielectric matrix)
  average eigenvalue GAMMA=   0.7560
  2.5167  2.0053  1.2718  0.9350  0.9350  0.6383  0.5062  0.1120  0.3652  0.3199
  0.2644  0.2521  0.2231  0.2384

 Free energy of the ion-electron system (eV)
  ---------------------------------------------------
  alpha Z        PSCENC =       975.10247152
  Ewald energy   TEWEN  =     91568.11985288
  -Hartree energ DENC   =   -120277.81275052
  -exchange      EXHF   =         0.00000000
  -V(xc)+E(xc)   XCENC  =       178.12042458
  PAW double counting   =     30102.44118717   -29188.36425415
  entropy T*S    EENTRO =        -0.02560910
  eigenvalues    EBANDS =      -847.43877454
  atomic energy  EATOM  =     27259.89416086
  Solvation  Ediel_sol  =         0.00000000
  ---------------------------------------------------
  free energy    TOTEN  =      -229.96329129 eV

  energy without entropy =     -229.93768219  energy(sigma->0) =     -229.95475492


--------------------------------------------------------------------------------------------------------




--------------------------------------- Iteration      1(  20)  ---------------------------------------


    POTLOK:  cpu time    0.1270: real time    0.1278
    SETDIJ:  cpu time    0.0094: real time    0.0094
    EDDIAG:  cpu time    1.1926: real time    1.2011
  RMM-DIIS:  cpu time    2.5946: real time    2.6146
    ORTHCH:  cpu time    0.2142: real time    0.2158
       DOS:  cpu time    0.0010: real time    0.0010
    CHARGE:  cpu time    0.3742: real time    0.3768
    MIXING:  cpu time    0.0067: real time    0.0068
    --------------------------------------------
      LOOP:  cpu time    4.5198: real time    4.5533

 eigenvalue-minimisations  :  1007
 total energy-change (2. order) :-0.1635046E-03  (-0.1312396E-04)
 number of electron     376.0000067 magnetization 
 augmentation part      112.9514674 magnetization 

 Broyden mixing:
  rms(total) = 0.44043E-02    rms(broyden)= 0.44038E-02
  rms(prec ) = 0.57686E-02
  weight for this iteration     100.00

 eigenvalues of (default mixing * dielectric matrix)
  average eigenvalue GAMMA=   0.7582
  2.5833  2.1998  1.2344  1.0339  1.0339  0.6764  0.5037  0.1120  0.3776  0.3468
  0.2992  0.2611  0.2536  0.2227  0.2350

 Free energy of the ion-electron system (eV)
  ---------------------------------------------------
  alpha Z        PSCENC =       975.10247152
  Ewald energy   TEWEN  =     91568.11985288
  -Hartree energ DENC   =   -120278.58891571
  -exchange      EXHF   =         0.00000000
  -V(xc)+E(xc)   XCENC  =       178.12562755
  PAW double counting   =     30102.41325106   -29188.31413168
  entropy T*S    EENTRO =        -0.02568606
  eigenvalues    EBANDS =      -846.69008522
  atomic energy  EATOM  =     27259.89416086
  Solvation  Ediel_sol  =         0.00000000
  ---------------------------------------------------
  free energy    TOTEN  =      -229.96345479 eV

  energy without entropy =     -229.93776873  energy(sigma->0) =     -229.95489277


--------------------------------------------------------------------------------------------------------




--------------------------------------- Iteration      1(  21)  ---------------------------------------


    POTLOK:  cpu time    0.1278: real time    0.1287
    SETDIJ:  cpu time    0.0097: real time    0.0098
    EDDIAG:  cpu time    1.2909: real time    1.3005
  RMM-DIIS:  cpu time    3.3680: real time    3.3907
    ORTHCH:  cpu time    0.2149: real time    0.2163
       DOS:  cpu time    0.0011: real time    0.0011
    --------------------------------------------
      LOOP:  cpu time    5.0124: real time    5.0471

 eigenvalue-minimisations  :   982
 total energy-change (2. order) :-0.9703698E-04  (-0.5272645E-05)
 number of electron     376.0000067 magnetization 
 augmentation part      112.9514674 magnetization 

 Free energy of the ion-electron system (eV)
  ---------------------------------------------------
  alpha Z        PSCENC =       975.10247152
  Ewald energy   TEWEN  =     91568.11985288
  -Hartree energ DENC   =   -120279.19137629
  -exchange      EXHF   =         0.00000000
  -V(xc)+E(xc)   XCENC  =       178.12896264
  PAW double counting   =     30102.29106686   -29188.17843972
  entropy T*S    EENTRO =        -0.02549843
  eigenvalues    EBANDS =      -846.10475217
  atomic energy  EATOM  =     27259.89416086
  Solvation  Ediel_sol  =         0.00000000
  ---------------------------------------------------
  free energy    TOTEN  =      -229.96355183 eV

  energy without entropy =     -229.93805340  energy(sigma->0) =     -229.95505235


--------------------------------------------------------------------------------------------------------




 average (electrostatic) potential at core
  the test charge radii are     0.6991  0.7215  1.2059
  (the norm of the test charge is              1.0000)
       1 -56.3336       2 -74.5769       3 -76.4031       4 -72.3310       5 -72.3206
       6 -72.2970       7 -72.3012       8 -72.3297       9 -72.3129      10 -72.2874
      11 -72.3243      12 -72.3018      13 -72.8886      14 -72.9792      15 -72.9525
      16 -72.9601      17 -73.0237      18 -73.0069      19 -73.0070      20 -73.0412
      21 -73.0052      22 -72.9505      23 -73.0367      24 -72.9557      25 -72.9834
      26 -73.0113      27 -73.0193      28 -72.9751      29 -72.9433      30 -72.8681
      31 -72.3871      32 -72.4036      33 -72.4502      34 -72.3676      35 -72.4007
      36 -73.1593      37 -72.4008      38 -73.1039      39 -72.2408
 
 
 
 E-fermi :   1.1132     XC(G=0):  -6.6249     alpha+bet : -6.8913


 k-point     1 :       0.0000    0.0000    0.0000
  band No.  band energies     occupation 
      1     -22.2295      2.00000
      2     -16.6262      2.00000
      3      -8.3855      2.00000
      4      -8.1150      2.00000
      5      -6.7893      2.00000
      6      -5.9586      2.00000
      7      -5.8383      2.00000
      8      -5.7442      2.00000
      9      -5.7255      2.00000
     10      -5.7036      2.00000
     11      -5.6768      2.00000
     12      -5.6535      2.00000
     13      -5.5857      2.00000
     14      -5.5404      2.00000
     15      -5.3749      2.00000
     16      -5.2206      2.00000
     17      -5.1186      2.00000
     18      -5.0967      2.00000
     19      -5.0534      2.00000
     20      -5.0341      2.00000
     21      -5.0187      2.00000
     22      -4.9906      2.00000
     23      -4.6642      2.00000
     24      -4.6110      2.00000
     25      -4.5799      2.00000
     26      -4.5592      2.00000
     27      -4.5307      2.00000
     28      -4.5075      2.00000
     29      -4.4267      2.00000
     30      -4.3668      2.00000
     31      -4.3485      2.00000
     32      -4.3319      2.00000
     33      -4.3045      2.00000
     34      -4.2231      2.00000
     35      -4.1683      2.00000
     36      -4.1560      2.00000
     37      -4.1484      2.00000
     38      -4.1437      2.00000
     39      -4.0876      2.00000
     40      -4.0830      2.00000
     41      -4.0700      2.00000
     42      -4.0425      2.00000
     43      -4.0331      2.00000
     44      -4.0180      2.00000
     45      -3.9917      2.00000
     46      -3.9226      2.00000
     47      -3.5585      2.00000
     48      -3.4910      2.00000
     49      -3.4370      2.00000
     50      -3.4246      2.00000
     51      -3.4093      2.00000
     52      -3.3896      2.00000
     53      -3.3652      2.00000
     54      -3.3229      2.00000
     55      -3.2872      2.00000
     56      -3.2762      2.00000
     57      -3.2380      2.00000
     58      -3.2196      2.00000
     59      -3.1507      2.00000
     60      -3.1036      2.00000
     61      -2.9223      2.00000
     62      -2.8695      2.00000
     63      -2.7450      2.00000
     64      -2.6105      2.00000
     65      -2.5767      2.00000
     66      -2.5600      2.00000
     67      -2.5459      2.00000
     68      -2.4914      2.00000
     69      -2.4771      2.00000
     70      -2.4512      2.00000
     71      -2.4302      2.00000
     72      -2.4152      2.00000
     73      -2.4055      2.00000
     74      -2.3934      2.00000
     75      -2.3767      2.00000
     76      -2.3674      2.00000
     77      -2.3584      2.00000
     78      -2.3444      2.00000
     79      -2.3215      2.00000
     80      -2.3072      2.00000
     81      -2.2968      2.00000
     82      -2.2802      2.00000
     83      -2.2647      2.00000
     84      -2.2595      2.00000
     85      -2.2011      2.00000
     86      -2.1404      2.00000
     87      -2.1211      2.00000
     88      -2.1058      2.00000
     89      -2.0858      2.00000
     90      -2.0619      2.00000
     91      -2.0555      2.00000
     92      -2.0124      2.00000
     93      -1.9912      2.00000
     94      -1.9840      2.00000
     95      -1.9600      2.00000
     96      -1.9259      2.00000
     97      -1.8715      2.00000
     98      -1.8018      2.00000
     99      -1.7727      2.00000
    100      -1.7668      2.00000
    101      -1.6668      2.00000
    102      -1.6202      2.00000
    103      -1.6174      2.00000
    104      -1.5734      2.00000
    105      -1.5517      2.00000
    106      -1.5488      2.00000
    107      -1.5371      2.00000
    108      -1.5238      2.00000
    109      -1.4862      2.00000
    110      -1.4822      2.00000
    111      -1.4791      2.00000
    112      -1.4608      2.00000
    113      -1.4247      2.00000
    114      -1.3068      2.00000
    115      -1.2639      2.00000
    116      -1.1548      2.00000
    117      -1.0625      2.00000
    118      -1.0201      2.00000
    119      -0.9579      2.00000
    120      -0.9288      2.00000
    121      -0.9162      2.00000
    122      -0.8865      2.00000
    123      -0.8478      2.00000
    124      -0.8399      2.00000
    125      -0.8282      2.00000
    126      -0.7881      2.00000
    127      -0.7512      2.00000
    128      -0.7294      2.00000
    129      -0.6903      2.00000
    130      -0.6710      2.00000
    131      -0.6427      2.00000
    132      -0.6402      2.00000
    133      -0.5969      2.00000
    134      -0.5646      2.00000
    135      -0.4966      2.00000
    136      -0.4441      2.00000
    137      -0.4080      2.00000
    138      -0.4024      2.00000
    139      -0.3669      2.00000
    140      -0.3607      2.00000
    141      -0.2425      2.00000
    142      -0.2298      2.00000
    143      -0.1994      2.00000
    144      -0.1855      2.00000
    145      -0.1307      2.00000
    146      -0.1212      2.00000
    147      -0.0507      2.00000
    148       0.0021      2.00000
    149       0.0078      2.00000
    150       0.0432      2.00000
    151       0.0699      2.00000
    152       0.0924      2.00000
    153       0.1033      2.00000
    154       0.1202      2.00000
    155       0.1584      2.00000
    156       0.1798      2.00000
    157       0.2309      2.00000
    158       0.2719      2.00000
    159       0.2828      2.00000
    160       0.3072      2.00000
    161       0.3193      2.00000
    162       0.3243      2.00000
    163       0.3370      2.00000
    164       0.3476      2.00000
    165       0.3775      2.00000
    166       0.3849      2.00000
    167       0.4339      2.00002
    168       0.4369      2.00002
    169       0.4841      2.00008
    170       0.4950      2.00011
    171       0.5014      2.00013
    172       0.5416      2.00040
    173       0.5702      2.00084
    174       0.6265      2.00310
    175       0.6433      2.00441
    176       0.6523      2.00530
    177       0.6764      2.00844
    178       0.6941      2.01160
    179       0.7389      2.02368
    180       0.7461      2.02622
[...]
     87      -2.1664      2.00000
     88      -2.1564      2.00000
     89      -2.1491      2.00000
     90      -2.1340      2.00000
     91      -2.1095      2.00000
     92      -2.0762      2.00000
     93      -2.0434      2.00000
     94      -1.9928      2.00000
     95      -1.9533      2.00000
     96      -1.9355      2.00000
     97      -1.8869      2.00000
     98      -1.8681      2.00000
     99      -1.8581      2.00000
    100      -1.8221      2.00000
    101      -1.7644      2.00000
    102      -1.7355      2.00000
    103      -1.7117      2.00000
    104      -1.7030      2.00000
    105      -1.6856      2.00000
    106      -1.6600      2.00000
    107      -1.6452      2.00000
    108      -1.6216      2.00000
    109      -1.5861      2.00000
    110      -1.5347      2.00000
    111      -1.5192      2.00000
    112      -1.4566      2.00000
    113      -1.4195      2.00000
    114      -1.3625      2.00000
    115      -1.2934      2.00000
    116      -1.2633      2.00000
    117      -1.1931      2.00000
    118      -1.1778      2.00000
    119      -1.1232      2.00000
    120      -1.0779      2.00000
    121      -1.0592      2.00000
    122      -1.0314      2.00000
    123      -1.0116      2.00000
    124      -0.9988      2.00000
    125      -0.9579      2.00000
    126      -0.9486      2.00000
    127      -0.9259      2.00000
    128      -0.9226      2.00000
    129      -0.8956      2.00000
    130      -0.8903      2.00000
    131      -0.8357      2.00000
    132      -0.7987      2.00000
    133      -0.7524      2.00000
    134      -0.7274      2.00000
    135      -0.7020      2.00000
    136      -0.6789      2.00000
    137      -0.6631      2.00000
    138      -0.6357      2.00000
    139      -0.5838      2.00000
    140      -0.5457      2.00000
    141      -0.4786      2.00000
    142      -0.4474      2.00000
    143      -0.3820      2.00000
    144      -0.2914      2.00000
    145      -0.2466      2.00000
    146      -0.1676      2.00000
    147      -0.1635      2.00000
    148      -0.0981      2.00000
    149      -0.0853      2.00000
    150      -0.0536      2.00000
    151      -0.0251      2.00000
    152       0.0662      2.00000
    153       0.0674      2.00000
    154       0.0972      2.00000
    155       0.1151      2.00000
    156       0.1264      2.00000
    157       0.1455      2.00000
    158       0.1820      2.00000
    159       0.2163      2.00000
    160       0.2264      2.00000
    161       0.2620      2.00000
    162       0.3242      2.00000
    163       0.3421      2.00000
    164       0.3721      2.00000
    165       0.3871      2.00000
    166       0.4230      2.00001
    167       0.5254      2.00020
    168       0.6057      2.00158
    169       0.6143      2.00193
    170       0.6300      2.00274
    171       0.6532      2.00448
    172       0.6991      2.01078
    173       0.7346      2.01938
    174       0.8046      2.04719
    175       0.8130      2.05104
    176       0.8289      2.05816
    177       0.8677      2.07024
    178       0.9008      2.06600
    179       0.9351      2.03442
    180       0.9562      1.99494
    181       0.9619      1.98135
    182       1.0401      1.63536
    183       1.0737      1.39838
    184       1.1164      1.05081
    185       1.1192      1.02653
    186       1.1233      0.99167
    187       1.1559      0.72053
    188       1.1689      0.61757
    189       1.1851      0.49721
    190       1.2008      0.38944
    191       1.3204     -0.04815
    192       1.3545     -0.06954
    193       1.3865     -0.06844
    194       1.4118     -0.05987
    195       1.4397     -0.04736
    196       1.5071     -0.02029
    197       1.6051     -0.00337
    198       1.7523     -0.00008
    199       1.8439     -0.00000
    200       2.0045     -0.00000
    201       2.2718     -0.00000
    202       2.3466     -0.00000
    203       2.8152     -0.00000
    204       2.9473     -0.00000
    205       2.9776     -0.00000
    206       3.0090     -0.00000
    207       3.0247     -0.00000
    208       3.2230     -0.00000
    209       3.3871     -0.00000
    210       3.5345     -0.00000
    211       3.5878     -0.00000
    212       3.6190     -0.00000
    213       3.7532     -0.00000
    214       3.8475     -0.00000
    215       3.9716     -0.00000
    216       4.1808     -0.00000
    217       4.2514     -0.00000
    218       4.4120     -0.00000
    219       4.4423     -0.00000
    220       4.6327     -0.00000
    221       4.6570     -0.00000
    222       4.8193     -0.00000
    223       5.1266     -0.00000
    224       5.5196     -0.00000
    225       5.8076     -0.00000
    226       6.5614     -0.00000
    227       6.5700     -0.00000
    228       6.6256      0.00000


--------------------------------------------------------------------------------------------------------


 soft charge-density along one line, spin component           1
         0         1         2         3         4         5         6         7         8         9
 total charge-density along one line
 
 pseudopotential strength for first ion, spin component:           1
 10.101   0.016   0.004   0.010   0.001  -0.003  -0.009  -0.000
  0.016  -0.002  -0.000  -0.000  -0.000  -0.000  -0.000   0.000
  0.004  -0.000  -4.250  -0.006   0.001  -0.010  -0.002   0.000
  0.010  -0.000  -0.006  -4.266   0.002  -0.002  -0.016   0.000
  0.001  -0.000   0.001   0.002  -4.248   0.000   0.000  -0.009
 -0.003  -0.000  -0.010  -0.002   0.000  -0.770  -0.000   0.000
 -0.009  -0.000  -0.002  -0.016   0.000  -0.000  -0.770   0.000
 -0.000   0.000   0.000   0.000  -0.009   0.000   0.000  -0.770
 total augmentation occupancy for first ion, spin component:           1
  1.643  -0.859   0.002  -0.001  -0.047   0.031   0.083  -0.018
 -0.859   1.199  -0.203  -0.545   0.065  -0.081  -0.227   0.022
  0.002  -0.203   0.848   0.193   0.013   0.113   0.054  -0.002
 -0.001  -0.545   0.193   1.324   0.002   0.054   0.248  -0.005
 -0.047   0.065   0.013   0.002   0.781  -0.003  -0.006   0.096
  0.031  -0.081   0.113   0.054  -0.003   0.019   0.021  -0.002
  0.083  -0.227   0.054   0.248  -0.006   0.021   0.071  -0.004
 -0.018   0.022  -0.002  -0.005   0.096  -0.002  -0.004   0.013


------------------------ aborting loop because EDIFF is reached ----------------------------------------


    CHARGE:  cpu time    0.3792: real time    0.3819
    FORLOC:  cpu time    0.0430: real time    0.0432
    FORNL :  cpu time    2.1497: real time    2.1656
    STRESS:  cpu time    6.6419: real time    6.6926
    FORCOR:  cpu time    0.1576: real time    0.1586
    FORHAR:  cpu time    0.0739: real time    0.0744
    MIXING:  cpu time    0.0051: real time    0.0052
    OFIELD:  cpu time    0.0000: real time    0.0000

  FORCE on cell =-STRESS in cart. coord.  units (eV):
  Direction    XX          YY          ZZ          XY          YZ          ZX
  --------------------------------------------------------------------------------------
  Alpha Z   975.10247   975.10247   975.10247
  Ewald  111321.11085111343.90437************  -191.68765   245.91605   -86.08150
  Hartree118086.05357118074.52687************  -127.37885   102.98414   -51.73259
  E(xc)   -1666.11482 -1665.82950 -1673.37351    -0.42748     0.68520    -0.19317
  Local  ************************240099.05661   308.70472  -325.28316   132.45607
  n-local   124.65172   123.89976    91.89722    -1.32348     1.32788    -0.44410
  augment  1895.57587  1893.59138  1931.95878     2.73814    -4.32253     1.07492
  Kinetic  5525.06842  5515.74313  5598.01068     9.62186   -21.40568     5.58780
  Fock        0.00000     0.00000     0.00000     0.00000     0.00000     0.00000
  -------------------------------------------------------------------------------------
  Total     -34.96734   -37.47382    -3.34603     0.24726    -0.09811     0.66743
  in kB     -41.64668   -44.63194    -3.98518     0.29449    -0.11685     0.79492
  external pressure =      -30.09 kB  Pullay stress =        0.00 kB


 VOLUME and BASIS-vectors are now :
 -----------------------------------------------------------------------------
  energy-cutoff  :      450.00
  volume of cell :     1345.22
      direct lattice vectors                 reciprocal lattice vectors
     7.296955120 -4.212899000  0.000000000     0.137043463  0.000000000  0.000000000
     0.000000000  8.425798000  0.000000000     0.068521732  0.118683121  0.000000000
     0.000000000  0.000000000 21.879635000     0.000000000  0.000000000  0.045704602

  length of vectors
     8.425798004  8.425798000 21.879635000     0.137043463  0.137043463  0.045704602


 FORCES acting on ions
    electron-ion (+dipol)            ewald-force                    non-local-force                 convergence-correction
 -----------------------------------------------------------------------------------------------
   0.198E+02 0.144E+02 -.884E+03   -.210E+02 -.188E+02 0.873E+03   0.658E+00 0.395E+01 0.113E+02   -.748E-02 0.861E-02 0.194E-01
   -.743E+02 0.491E+02 -.160E+04   0.740E+02 -.449E+02 0.162E+04   0.948E+00 -.388E+01 -.240E+02   0.538E-02 -.131E-01 0.105E-01
   0.489E+02 -.102E+03 -.155E+04   -.542E+02 0.122E+03 0.160E+04   0.555E+01 -.205E+02 -.581E+02   -.699E-02 0.243E-02 0.132E-01
   -.156E+00 0.408E+00 0.234E+04   0.128E+00 -.484E+00 -.234E+04   0.140E-01 -.403E-01 -.120E+01   0.313E-01 0.622E-01 0.259E-01
   0.576E+00 0.122E+00 0.234E+04   -.612E+00 -.141E+00 -.234E+04   -.186E-01 -.300E-01 -.111E+01   0.973E-02 0.799E-02 0.182E-01
   -.199E-01 0.270E+00 0.234E+04   -.273E-01 -.245E+00 -.234E+04   0.255E-01 -.124E-01 -.114E+01   -.909E-02 -.149E-01 0.138E-01
   -.112E+00 0.272E+00 0.234E+04   0.537E-01 -.179E+00 -.234E+04   0.142E-01 0.153E-01 -.119E+01   0.504E-01 -.594E-01 0.175E-01
   0.320E+00 0.271E+00 0.234E+04   -.278E+00 -.278E+00 -.234E+04   0.198E-02 0.186E-01 -.129E+01   -.466E-01 0.180E-01 0.310E-01
   0.142E+00 0.788E-01 0.234E+04   -.848E-01 -.815E-01 -.234E+04   0.134E-01 0.230E-01 -.121E+01   -.483E-01 -.358E-01 0.274E-02
   0.101E+00 -.551E+00 0.234E+04   -.212E-01 0.421E+00 -.234E+04   -.769E-01 0.109E+00 -.110E+01   0.165E-01 -.257E-01 0.155E-01
   -.327E+00 -.331E+00 0.234E+04   0.397E+00 0.332E+00 -.234E+04   -.552E-02 -.224E-01 -.127E+01   -.602E-01 0.507E-01 0.887E-02
   -.448E+00 -.646E+00 0.234E+04   0.444E+00 0.657E+00 -.234E+04   -.129E-01 0.623E-02 -.106E+01   0.564E-01 -.297E-02 -.520E-03
   0.167E+01 -.584E+01 0.856E+03   -.183E+01 0.585E+01 -.856E+03   0.525E-01 0.541E-01 -.418E+00   0.475E-01 0.627E-02 -.607E-02
   -.150E+01 0.195E+00 0.863E+03   0.139E+01 -.184E+00 -.862E+03   0.115E+00 0.199E-01 -.285E+00   -.209E-01 0.101E-01 -.281E-01
   -.408E+01 -.352E+01 0.858E+03   0.420E+01 0.336E+01 -.858E+03   -.266E-02 0.129E+00 -.313E+00   0.186E-01 0.617E-01 0.245E-01
   0.274E+01 0.508E+01 0.859E+03   -.278E+01 -.519E+01 -.859E+03   -.307E-01 -.640E-02 -.296E+00   -.603E-03 0.351E-01 -.725E-02
   0.119E+01 0.140E+01 0.863E+03   -.125E+01 -.137E+01 -.863E+03   0.103E+00 0.761E-03 -.381E+00   -.310E-01 -.174E-01 -.437E-02
   0.258E+00 0.265E+01 0.863E+03   -.291E+00 -.269E+01 -.862E+03   -.243E-01 0.644E-01 -.337E+00   0.338E-01 -.137E-01 -.212E-01
   -.770E+00 0.144E+01 0.864E+03   0.791E+00 -.127E+01 -.864E+03   -.372E-01 -.124E+00 -.421E+00   0.130E-01 -.413E-01 -.443E-01
   0.127E+01 -.116E+01 0.866E+03   -.119E+01 0.118E+01 -.865E+03   -.148E-02 0.149E-01 -.502E+00   -.780E-01 0.718E-02 0.297E-02
   -.701E+00 -.239E+00 0.865E+03   0.760E+00 0.456E+00 -.865E+03   -.163E-01 -.871E-01 -.457E+00   0.176E-01 -.481E-01 0.153E-01
   -.103E+01 0.329E+01 -.637E+03   0.894E+00 -.332E+01 0.637E+03   0.135E+00 0.555E-01 0.579E+00   0.113E-01 -.407E-01 -.800E-01
   0.932E+00 -.118E+01 -.638E+03   -.922E+00 0.126E+01 0.638E+03   -.275E-01 -.374E-01 0.201E+00   -.528E-02 -.114E-01 -.748E-01
   -.418E+01 0.270E+01 -.652E+03   0.384E+01 -.223E+01 0.652E+03   0.365E+00 -.541E+00 0.273E+00   0.292E-01 -.707E-02 -.594E-01
   -.377E+01 0.995E+01 -.653E+03   0.326E+01 -.921E+01 0.654E+03   0.502E+00 -.662E+00 -.853E+00   0.295E-01 0.241E-01 -.296E-01
   0.901E+01 0.173E+01 -.630E+03   -.838E+01 -.183E+01 0.630E+03   -.571E+00 -.218E-01 0.247E+00   -.278E-01 0.365E-01 -.420E-01
   -.406E+01 -.125E+02 -.627E+03   0.395E+01 0.123E+02 0.626E+03   0.379E-01 0.262E+00 0.588E+00   -.308E-02 0.129E-01 -.297E-01
   -.508E+01 -.212E+01 -.627E+03   0.509E+01 0.216E+01 0.626E+03   0.595E-01 -.879E-01 0.668E+00   -.717E-04 -.132E-01 0.178E-01
   0.349E+01 0.421E+00 -.630E+03   -.344E+01 -.423E+00 0.629E+03   -.565E-01 -.168E-01 0.463E+00   -.251E-01 -.217E-01 -.152E-01
   0.212E+01 0.193E+01 -.641E+03   -.210E+01 -.213E+01 0.641E+03   -.772E-01 0.997E-01 0.418E+00   -.983E-02 0.219E-01 -.240E-01
   -.256E+02 -.102E+02 -.216E+04   0.260E+02 0.105E+02 0.216E+04   -.312E+00 -.262E+00 0.143E+01   0.193E-01 -.655E-01 -.199E-01
   0.230E+02 0.269E+02 -.214E+04   -.233E+02 -.275E+02 0.214E+04   0.210E+00 0.719E+00 0.154E+01   0.348E-01 -.345E-01 -.259E-02
   0.360E+02 -.464E+01 -.213E+04   -.363E+02 0.467E+01 0.213E+04   0.283E-01 -.385E-01 0.127E+01   0.924E-02 0.239E-01 -.215E-01
   -.114E+02 -.324E+01 -.217E+04   0.112E+02 0.280E+01 0.217E+04   0.325E+00 0.548E+00 0.102E+01   -.134E-01 0.131E-01 -.234E-01
   0.939E+01 0.125E+02 -.216E+04   -.958E+01 -.129E+02 0.216E+04   0.271E+00 0.324E+00 0.105E+01   -.706E-02 0.417E-01 -.509E-02
   0.710E+02 0.655E+02 -.198E+04   -.740E+02 -.637E+02 0.199E+04   0.280E+01 -.162E+01 -.315E+01   0.472E-02 0.375E-01 0.448E-01
   -.547E+02 -.464E+02 -.209E+04   0.562E+02 0.489E+02 0.208E+04   -.149E+01 -.261E+01 0.207E+01   -.354E-01 0.949E-02 -.947E-02
   -.639E+02 0.877E+02 -.204E+04   0.644E+02 -.884E+02 0.204E+04   -.526E+00 0.670E+00 -.967E+00   0.105E-01 -.117E-01 -.299E-02
   0.156E+02 -.692E+02 -.212E+04   -.154E+02 0.704E+02 0.212E+04   -.138E+00 -.101E+01 0.110E+01   -.178E-01 -.623E-02 -.135E-01
 -----------------------------------------------------------------------------------------------
   -.875E+01 0.247E+02 0.771E+02   0.133E-12 0.142E-13 0.136E-11   0.881E+01 -.245E+02 -.768E+02   -.499E-02 0.714E-02 -.283E+00
 
 
 POSITION                                       TOTAL-FORCE (eV/Angst)
 -----------------------------------------------------------------------------------
      5.03755      0.68351     10.38487        -0.521049     -0.484550     -0.154591
      6.63303     -0.57893     10.14333         0.613604      0.214890      0.055137
      4.94139      1.07025     11.47475         0.229787      0.027838      0.012773
      7.20031     -1.38846      1.62732         0.015697     -0.057669      0.147891
      2.33567      1.42014      1.62732        -0.046494     -0.045184      0.158447
      4.76799      0.01584      1.62732        -0.032112     -0.006628      0.140903
      7.20031      1.42015      1.62732         0.005411      0.045018      0.122867
      2.33567      4.22875      1.62732        -0.003427      0.025781      0.143869
      4.76799      2.82445      1.62732         0.020563     -0.019323      0.148292
      2.33567      7.03734      1.62732         0.018444     -0.050493      0.047268
      4.76799      5.63304      1.62732         0.002772      0.025494      0.118690
      7.20031      4.22874      1.62732         0.037286      0.010927      0.043691
      1.52490      0.01584      3.92052        -0.064882      0.067221     -0.101667
      3.95722     -1.38846      3.92052        -0.009401      0.037189     -0.127593
      6.38953     -2.79276      3.92052         0.131292      0.028410     -0.112716
      1.52490      2.82445      3.92052        -0.070064     -0.087455     -0.081401
      3.95722      1.42015      3.92052         0.015313      0.006182     -0.122371
      6.38953      0.01585      3.92052        -0.024570      0.013498     -0.016671
      1.52490      5.63305      3.92052        -0.004636     -0.000758     -0.222065
      3.95722      4.22874      3.92052        -0.004110      0.038831     -0.212616
      6.38953      2.82445      3.92052         0.059666      0.077911     -0.297990
      0.70650      4.21139      6.18919         0.011762     -0.015907      0.094400
      3.14869      5.63224      6.18776        -0.023988      0.018234     -0.164098
      5.56281     -1.35702      6.21108         0.054784     -0.082542      0.200215
      0.68521      1.43505      6.23629         0.018886      0.104758     -0.188573
      3.15876      0.01770      6.18432         0.022427     -0.090374      0.127009
      0.71695      7.01826      6.17075        -0.074219      0.072952      0.146392
      5.57628      4.23275      6.16572         0.069686     -0.071737      0.152595
      3.15432      2.82331      6.17682        -0.028533     -0.044855      0.093945
      5.58900      1.42404      6.19916        -0.067237     -0.083919      0.074878
      2.36008      4.21908      8.44910         0.093864     -0.005027      0.022317
      4.77970      5.60017      8.43887        -0.113383      0.063118      0.055077
      2.36082      1.39374      8.44909        -0.235370      0.006394      0.003442
      7.19890      4.17049      8.48791         0.084647      0.116219      0.013195
      2.33040      7.01305      8.46630         0.073456     -0.025237      0.053271
      4.69115      0.04021      8.62939        -0.218345      0.181293     -0.064725
      7.26362      1.44204      8.49052        -0.050658     -0.111446     -0.179236
      7.27552     -1.50519      8.57946        -0.004230     -0.078011      0.154463
      4.78673      2.83750      8.50051         0.017364      0.178961     -0.284713
 -----------------------------------------------------------------------------------
    total drift:                                0.050988      0.146959      0.012813
  FORCES: max atom, RMS     0.728134    0.205833
  Number: max atom                 1
  FORCE total and by dimension    1.285426    0.613604


--------------------------------------------------------------------------------------------------------



  FREE ENERGIE OF THE ION-ELECTRON SYSTEM (eV)
  ---------------------------------------------------
  free  energy   TOTEN  =      -230.63920993 eV

  energy  without entropy=     -230.61262148  energy(sigma->0) =     -230.63034711
 
 d Force = 0.2545539E-01[ 0.508E-02, 0.458E-01]  d Energy = 0.2526356E-01 0.192E-03
 d Force =-0.1646490E+02[-0.167E+02,-0.162E+02]  d Ewald  =-0.1646574E+02 0.838E-03


--------------------------------------------------------------------------------------------------------


    POTLOK:  cpu time    0.1489: real time    0.2106


--------------------------------------------------------------------------------------------------------


 stress matrix after NEB project (eV)
    -34.96734      0.24726      0.66743
      0.24726    -37.47382     -0.09811
      0.66743     -0.09811     -3.34603
  FORCES: max atom, RMS     0.728134    0.205833
  FORCE total and by dimension    1.285426    0.613604
  Stress total and by dimension   51.373441   37.473819
 Quasi-Newton relaxation of ions (Broydens 2nd method)
  g(Force)  = 0.319E-01   g(Stress)= 0.000E+00

 retain information from N=  4 steps
 eigenvalues of (default step * inverse Hessian matrix)
  average eigenvalue of G=   4.7818
 eigenvalue spectrum of G is  6.7620  6.7620  1.2232  4.3803
  RESET_HESSIAN           0


--------------------------------------------------------------------------------------------------------


    WAVPRE:  cpu time    0.0663: real time    0.2229
    FEWALD:  cpu time    0.0024: real time    0.0024

 real space projection operators:
  total allocation   :      13550.56 KBytes
  max/ min on nodes  :       6779.42       6771.14

    ORTHCH:  cpu time    0.9882: real time    0.9957
     LOOP+:  cpu time   66.4095: real time   67.4194


--------------------------------------- Iteration      6(   1)  ---------------------------------------


