 running on    8 total cores
 distrk:  each k-point on    8 cores,    1 groups
 distr:  one band on    2 cores,    4 groups
 using from now: INCAR     
 vasp.5.4.4 16052018 (build Apr 24 2014 20:13:14) complex standard
 Contain Constrained Minimization Technique (TS), Periodic NBO, VASPsol, libbeef, VASP2WANNIER90, Constrained Cell Relaxation
 POSCAR found type information on POSCAR  C  O  Pt
 POSCAR found :  3 types and      39 ions
 scaLAPACK will be used
 LDA part: xc-table for Pade appr. of Perdew
 POSCAR found type information on POSCAR  C  O  Pt
 POSCAR found :  3 types and      39 ions
 POSCAR, INCAR and KPOINTS ok, starting setup
 FFT: planning ...
 WAVECAR not read
 entering main loop
       N       E                     dE             d eps       ncg     rms          rms(c)
DAV:   1     0.241986799454E+04    0.24199E+04   -0.15951E+05  1824   0.129E+03
DAV:   2    -0.637962824732E+02   -0.24837E+04   -0.23073E+04  2120   0.286E+02
DAV:   3    -0.240489870106E+03   -0.17669E+03   -0.16026E+03  2168   0.689E+01
DAV:   4    -0.248104967371E+03   -0.76151E+01   -0.73323E+01  2344   0.136E+01
DAV:   5    -0.248319697488E+03   -0.21473E+00   -0.21289E+00  2344   0.236E+00    0.274E+01
RMM:   6    -0.247202453641E+03    0.11172E+01   -0.54482E+01  1831   0.148E+01    0.295E+01
RMM:   7    -0.238355140972E+03    0.88473E+01   -0.32896E+01  1830   0.900E+00    0.178E+01
RMM:   8    -0.243268164824E+03   -0.49130E+01   -0.79241E+00  1832   0.461E+00    0.248E+01
RMM:   9    -0.231488951755E+03    0.11779E+02   -0.35344E+00  1831   0.298E+00    0.863E+00
RMM:  10    -0.230527479546E+03    0.96147E+00   -0.11669E+00  1831   0.169E+00    0.474E+00
RMM:  11    -0.230122395668E+03    0.40508E+00   -0.34306E-01  1831   0.944E-01    0.267E+00
RMM:  12    -0.230057117651E+03    0.65278E-01   -0.17636E-01  1833   0.658E-01    0.276E+00
RMM:  13    -0.230020838353E+03    0.36279E-01   -0.16406E-01  1830   0.677E-01    0.194E+00
RMM:  14    -0.229978101842E+03    0.42737E-01   -0.91375E-02  1830   0.523E-01    0.980E-01
RMM:  15    -0.229968714037E+03    0.93878E-02   -0.29174E-02  1831   0.282E-01    0.581E-01
RMM:  16    -0.229963559822E+03    0.51542E-02   -0.63756E-03  1826   0.138E-01    0.228E-01
RMM:  17    -0.229963189048E+03    0.37077E-03   -0.17171E-03  1819   0.708E-02    0.160E-01
RMM:  18    -0.229963403488E+03   -0.21444E-03   -0.84451E-04  1777   0.494E-02    0.136E-01
RMM:  19    -0.229963291286E+03    0.11220E-03   -0.38273E-04  1299   0.348E-02    0.487E-02
RMM:  20    -0.229963454791E+03   -0.16350E-03   -0.13124E-04  1007   0.206E-02    0.440E-02
RMM:  21    -0.229963551828E+03   -0.97037E-04   -0.52726E-05   982   0.137E-02
   1 F= -.22996355E+03 E0= -.22995505E+03  d E =-.229964E+03
 BRION: g(F)=  0.358E+00 g(S)=  0.000E+00
 bond charge predicted
       N       E                     dE             d eps       ncg     rms          rms(c)
DAV:   1    -0.230198913654E+03   -0.23546E+00   -0.32972E+01  1852   0.104E+01    0.852E-01
RMM:   2    -0.230297498700E+03   -0.98585E-01   -0.60789E-01  1835   0.164E+00    0.191E+00
RMM:   3    -0.230260929263E+03    0.36569E-01   -0.45979E-02  1868   0.368E-01    0.103E+00
RMM:   4    -0.230248771835E+03    0.12157E-01   -0.15423E-02  1841   0.209E-01    0.655E-01
RMM:   5    -0.230244498702E+03    0.42731E-02   -0.68806E-03  1832   0.137E-01    0.425E-01
RMM:   6    -0.230243799291E+03    0.69941E-03   -0.82689E-03  1830   0.156E-01    0.279E-01
RMM:   7    -0.230243052834E+03    0.74646E-03   -0.36862E-03  1832   0.103E-01    0.186E-01
RMM:   8    -0.230242607117E+03    0.44572E-03   -0.10912E-03  1820   0.569E-02    0.969E-02
RMM:   9    -0.230242528997E+03    0.78120E-04   -0.24759E-04  1049   0.286E-02
   2 F= -.23024253E+03 E0= -.23023399E+03  d E =-.278977E+00
 BRION: g(F)=  0.311E+00 g(S)=  0.000E+00 retain N=  1 mean eig= 0.93
 eig:   0.928
 bond charge predicted
       N       E                     dE             d eps       ncg     rms          rms(c)
DAV:   1    -0.230319110938E+03   -0.76504E-01   -0.10952E+01  1840   0.616E+00    0.572E-01
RMM:   2    -0.230364007586E+03   -0.44897E-01   -0.40889E-01  1846   0.101E+00    0.878E-01
RMM:   3    -0.230356166819E+03    0.78408E-02   -0.15545E-02  1840   0.204E-01    0.659E-01
RMM:   4    -0.230350772705E+03    0.53941E-02   -0.48185E-03  1839   0.115E-01    0.396E-01
RMM:   5    -0.230350445040E+03    0.32767E-03   -0.50107E-03  1833   0.113E-01    0.448E-01
RMM:   6    -0.230348385434E+03    0.20596E-02   -0.53088E-03  1830   0.115E-01    0.257E-01
RMM:   7    -0.230347530850E+03    0.85458E-03   -0.19736E-03  1824   0.739E-02    0.114E-01
RMM:   8    -0.230347351181E+03    0.17967E-03   -0.36762E-04  1228   0.345E-02    0.586E-02
RMM:   9    -0.230347317827E+03    0.33354E-04   -0.11268E-04   984   0.211E-02
   3 F= -.23034732E+03 E0= -.23033884E+03  d E =-.104789E+00
 BRION: g(F)=  0.288E+00 g(S)=  0.000E+00 retain N=  2 mean eig= 0.43
 eig:   0.429  0.429
 bond charge predicted
       N       E                     dE             d eps       ncg     rms          rms(c)
DAV:   1    -0.230445120031E+03   -0.97769E-01   -0.12453E+02  1824   0.204E+01    0.168E+00
RMM:   2    -0.230905543699E+03   -0.46042E+00   -0.22895E+00  1832   0.317E+00    0.428E+00
RMM:   3    -0.230675132209E+03    0.23041E+00   -0.18673E-01  1855   0.741E-01    0.184E+00
RMM:   4    -0.230634840229E+03    0.40292E-01   -0.63247E-02  1839   0.428E-01    0.125E+00
RMM:   5    -0.230621356179E+03    0.13484E-01   -0.23897E-02  1835   0.256E-01    0.833E-01
RMM:   6    -0.230618284537E+03    0.30716E-02   -0.25020E-02  1831   0.265E-01    0.514E-01
RMM:   7    -0.230617216936E+03    0.10676E-02   -0.13867E-02  1832   0.199E-01    0.420E-01
RMM:   8    -0.230614607067E+03    0.26099E-02   -0.43212E-03  1826   0.114E-01    0.188E-01
RMM:   9    -0.230614134105E+03    0.47296E-03   -0.10315E-03  1810   0.548E-02    0.105E-01
RMM:  10    -0.230613966984E+03    0.16712E-03   -0.28754E-04  1053   0.311E-02    0.563E-02
RMM:  11    -0.230613946375E+03    0.20609E-04   -0.16031E-04   975   0.240E-02
   4 F= -.23061395E+03 E0= -.23060484E+03  d E =-.266629E+00
 BRION: g(F)=  0.883E-01 g(S)=  0.000E+00 retain N=  3 mean eig= 5.27
 eig:   7.304  7.304  1.217
 bond charge predicted
       N       E                     dE             d eps       ncg     rms          rms(c)
DAV:   1    -0.230630975408E+03   -0.17008E-01   -0.51769E+00  1824   0.407E+00    0.394E-01
RMM:   2    -0.230646958036E+03   -0.15983E-01   -0.11701E-01  1836   0.664E-01    0.766E-01
RMM:   3    -0.230643592393E+03    0.33656E-02   -0.88530E-03  1868   0.158E-01    0.524E-01
RMM:   4    -0.230640738183E+03    0.28542E-02   -0.32263E-03  1841   0.958E-02    0.320E-01
RMM:   5    -0.230639552805E+03    0.11854E-02   -0.13991E-03  1810   0.616E-02    0.190E-01
RMM:   6    -0.230639408337E+03    0.14447E-03   -0.12483E-03  1799   0.607E-02    0.111E-01
RMM:   7    -0.230639353849E+03    0.54488E-04   -0.65747E-04  1688   0.442E-02    0.928E-02
RMM:   8    -0.230639225492E+03    0.12836E-03   -0.20722E-04  1027   0.266E-02    0.417E-02
RMM:   9    -0.230639209931E+03    0.15561E-04   -0.59178E-05   953   0.148E-02
   5 F= -.23063921E+03 E0= -.23063035E+03  d E =-.252636E-01
 BRION: g(F)=  0.319E-01 g(S)=  0.000E+00 retain N=  4 mean eig= 4.78
 eig:   6.762  6.762  1.223  4.380
 bond charge predicted
       N       E                     dE             d eps       ncg     rms          rms(c)
[mpiexec@node06] Sending Ctrl-C to processes as requested
[mpiexec@node06] Press Ctrl-C again to force abort
