metal                                   
           1
     7.296955   -4.212899    0.000000
     0.000000    8.425798    0.000000
     0.000000    0.000000   21.879635
   C    O    Pt
   1   2  36
Direct configuration=     1
   0.69980449  0.43808560  0.47706685
   0.90186492  0.38000911  0.46411798
   0.67166795  0.46494148  0.52695538
   0.98675500  0.32859100  0.07437600
   0.32008800  0.32859100  0.07437600
   0.65342200  0.32859100  0.07437600
   0.98675500  0.66192500  0.07437600
   0.32008800  0.66192500  0.07437600
   0.65342200  0.66192500  0.07437600
   0.32008800  0.99525800  0.07437600
   0.65342200  0.99525800  0.07437600
   0.98675500  0.99525800  0.07437600
   0.20897700  0.10636900  0.17918600
   0.54231100  0.10636900  0.17918600
   0.87564400  0.10636900  0.17918600
   0.20897700  0.43970300  0.17918600
   0.54231100  0.43970300  0.17918600
   0.87564400  0.43970300  0.17918600
   0.20897700  0.77303600  0.17918600
   0.54231100  0.77303600  0.17918600
   0.87564400  0.77303600  0.17918600
   0.09629890  0.54964462  0.28171554
   0.43329968  0.88226868  0.28536816
   0.76005589  0.22138566  0.28276513
   0.09244608  0.21462720  0.28736937
   0.43481678  0.22118959  0.28111526
   0.10249667  0.88089965  0.27941549
   0.75972667  0.88722417  0.27905651
   0.43326611  0.55429167  0.28026999
   0.76643847  0.54937677  0.28154528
   0.32119438  0.66479366  0.38576899
   0.65566010  0.99358246  0.38519890
   0.32589808  0.32838733  0.38670848
   0.98580204  0.98886472  0.38856682
   0.31820861  0.98878565  0.38665614
   0.64327849  0.31876523  0.39105346
   0.99944168  0.67176832  0.38970621
   0.99901159  0.31828875  0.38977839
   0.65448608  0.66222908  0.39081452
Direct configuration=     2
   0.69795404  0.43496484  0.47564220
   0.90320083  0.38105956  0.46374694
   0.67274752  0.46523988  0.52674850
   0.98675500  0.32859100  0.07437600
   0.32008800  0.32859100  0.07437600
   0.65342200  0.32859100  0.07437600
   0.98675500  0.66192500  0.07437600
   0.32008800  0.66192500  0.07437600
   0.65342200  0.66192500  0.07437600
   0.32008800  0.99525800  0.07437600
   0.65342200  0.99525800  0.07437600
   0.98675500  0.99525800  0.07437600
   0.20897700  0.10636900  0.17918600
   0.54231100  0.10636900  0.17918600
   0.87564400  0.10636900  0.17918600
   0.20897700  0.43970300  0.17918600
   0.54231100  0.43970300  0.17918600
   0.87564400  0.43970300  0.17918600
   0.20897700  0.77303600  0.17918600
   0.54231100  0.77303600  0.17918600
   0.87564400  0.77303600  0.17918600
   0.09647466  0.54914347  0.28202393
   0.43265814  0.88298121  0.28455907
   0.76077975  0.22099834  0.28296377
   0.09298075  0.21524730  0.28663560
   0.43390568  0.22033850  0.28153181
   0.10122342  0.88130981  0.28024517
   0.76126078  0.88636261  0.27990123
   0.43295456  0.55326062  0.28092522
   0.76643547  0.55062350  0.28211296
   0.32173356  0.66375837  0.38591217
   0.65578501  0.99311437  0.38536085
   0.32564886  0.32826048  0.38651533
   0.98584880  0.98820265  0.38834660
   0.31833190  0.98984886  0.38672768
   0.64380621  0.32146873  0.39233152
   0.99805194  0.67095561  0.38928461
   0.99808273  0.31919799  0.39065877
   0.65498093  0.66268120  0.39021210
Direct configuration=     3
   0.69643856  0.43399868  0.47614755
   0.90397956  0.38174118  0.46368298
   0.67386976  0.46476721  0.52550527
   0.98675500  0.32859100  0.07437600
   0.32008800  0.32859100  0.07437600
   0.65342200  0.32859100  0.07437600
   0.98675500  0.66192500  0.07437600
   0.32008800  0.66192500  0.07437600
   0.65342200  0.66192500  0.07437600
   0.32008800  0.99525800  0.07437600
   0.65342200  0.99525800  0.07437600
   0.98675500  0.99525800  0.07437600
   0.20897700  0.10636900  0.17918600
   0.54231100  0.10636900  0.17918600
   0.87564400  0.10636900  0.17918600
   0.20897700  0.43970300  0.17918600
   0.54231100  0.43970300  0.17918600
   0.87564400  0.43970300  0.17918600
   0.20897700  0.77303600  0.17918600
   0.54231100  0.77303600  0.17918600
   0.87564400  0.77303600  0.17918600
   0.09654267  0.54895155  0.28217629
   0.43242628  0.88325159  0.28421744
   0.76108616  0.22083575  0.28309899
   0.09317479  0.21559243  0.28633147
   0.43362903  0.21998457  0.28173413
   0.10063947  0.88145554  0.28059602
   0.76185211  0.88596733  0.28027489
   0.43282794  0.55285431  0.28120116
   0.76639406  0.55103153  0.28235625
   0.32202272  0.66342376  0.38596183
   0.65572781  0.99291218  0.38542239
   0.32538681  0.32812513  0.38644056
   0.98592821  0.98806946  0.38825144
   0.31846687  0.99028398  0.38676149
   0.64381066  0.32254175  0.39284908
   0.99750287  0.67058904  0.38907344
   0.99778812  0.31943865  0.39096978
   0.65519220  0.66297558  0.38992341
Direct configuration=     4
   0.69071482  0.42631253  0.47397963
   0.90810947  0.38504527  0.46335775
   0.67714532  0.46541946  0.52427213
   0.98675500  0.32859100  0.07437600
   0.32008800  0.32859100  0.07437600
   0.65342200  0.32859100  0.07437600
   0.98675500  0.66192500  0.07437600
   0.32008800  0.66192500  0.07437600
   0.65342200  0.66192500  0.07437600
   0.32008800  0.99525800  0.07437600
   0.65342200  0.99525800  0.07437600
   0.98675500  0.99525800  0.07437600
   0.20897700  0.10636900  0.17918600
   0.54231100  0.10636900  0.17918600
   0.87564400  0.10636900  0.17918600
   0.20897700  0.43970300  0.17918600
   0.54231100  0.43970300  0.17918600
   0.87564400  0.43970300  0.17918600
   0.20897700  0.77303600  0.17918600
   0.54231100  0.77303600  0.17918600
   0.87564400  0.77303600  0.17918600
   0.09684843  0.54809948  0.28289043
   0.43138298  0.88441944  0.28267173
   0.76246131  0.22009823  0.28377142
   0.09402917  0.21723504  0.28494749
   0.43250603  0.21841098  0.28267448
   0.09797489  0.88212148  0.28218834
   0.76450431  0.88418982  0.28196832
   0.43224817  0.55102052  0.28244728
   0.76612872  0.55269884  0.28345298
   0.32339056  0.66202382  0.38618221
   0.65534168  0.99201902  0.38570346
   0.32401533  0.32742240  0.38610041
   0.98635817  0.98763695  0.38783428
   0.31917991  0.99224741  0.38692809
   0.64383489  0.32752361  0.39527132
   0.99506682  0.66886179  0.38806484
   0.99660529  0.32041313  0.39237249
   0.65612239  0.66448595  0.38852781
Direct configuration=     5
   0.69036307  0.42630226  0.47463636
   0.90901301  0.38579776  0.46359705
   0.67718536  0.46561306  0.52444889
   0.98675500  0.32859100  0.07437600
   0.32008800  0.32859100  0.07437600
   0.65342200  0.32859100  0.07437600
   0.98675500  0.66192500  0.07437600
   0.32008800  0.66192500  0.07437600
   0.65342200  0.66192500  0.07437600
   0.32008800  0.99525800  0.07437600
   0.65342200  0.99525800  0.07437600
   0.98675500  0.99525800  0.07437600
   0.20897700  0.10636900  0.17918600
   0.54231100  0.10636900  0.17918600
   0.87564400  0.10636900  0.17918600
   0.20897700  0.43970300  0.17918600
   0.54231100  0.43970300  0.17918600
   0.87564400  0.43970300  0.17918600
   0.20897700  0.77303600  0.17918600
   0.54231100  0.77303600  0.17918600
   0.87564400  0.77303600  0.17918600
   0.09682074  0.54823109  0.28287425
   0.43150735  0.88420514  0.28280893
   0.76234619  0.22011731  0.28387482
   0.09390313  0.21726798  0.28502732
   0.43288712  0.21854389  0.28265197
   0.09825327  0.88207570  0.28203148
   0.76419220  0.88445151  0.28180183
   0.43227929  0.55121909  0.28230920
   0.76593590  0.55197801  0.28332995
   0.32343344  0.66245048  0.38616283
   0.65502657  0.99215914  0.38569507
   0.32353523  0.32718146  0.38616237
   0.98656234  0.98824758  0.38793664
   0.31936633  0.99201393  0.38694885
   0.64289127  0.32621812  0.39440296
   0.99543230  0.66886210  0.38805598
   0.99706208  0.31989020  0.39212087
   0.65598965  0.66475854  0.38851249
