 vasp.5.4.4 16052018 (build Apr 24 2014 20:13:14) complex standard
 Contain Constrained Minimization Technique (TS), Periodic NBO, VASPsol, libbeef, VASP2WANNIER90, Constrained Cell Relaxation
 executed on Center for Computational Chemistry by phu@node09 date 2025.11.24 21:36:40
 running on    8 total cores
 distrk:  each k-point on    8 cores,    1 groups
 distr:  one band on NCORES_PER_BAND=   2 cores,    4 groups


--------------------------------------------------------------------------------------------------------


 INCAR:
 POTCAR:   PAW_PBE C 08Apr2002                    
 POTCAR:   PAW_PBE O 08Apr2002                    
 POTCAR:    PAW_PBE Pt 04Feb2005                  
 POTCAR:   PAW_PBE C 08Apr2002                    
   VRHFIN =C: s2p2                                                              
   LEXCH  = PE                                                                  
   EATOM  =   147.1560 eV,   10.8157 Ry                                         
                                                                                
   TITEL  = PAW_PBE C 08Apr2002                                                 
   LULTRA =        F    use ultrasoft PP ?                                      
   IUNSCR =        0    unscreen: 0-lin 1-nonlin 2-no                           
   RPACOR =     .000    partial core radius                                     
   POMASS =   12.011; ZVAL   =    4.000    mass and valenz                      
   RCORE  =    1.500    outmost cutoff radius                                   
   RWIGS  =    1.630; RWIGS  =     .863    wigner-seitz radius (au A)           
   ENMAX  =  400.000; ENMIN  =  300.000 eV                                      
   ICORE  =        2    local potential                                         
   LCOR   =        T    correct aug charges                                     
   LPAW   =        T    paw PP                                                  
   EAUG   =  644.873                                                            
   DEXC   =     .000                                                            
   RMAX   =    2.266    core radius for proj-oper                               
   RAUG   =    1.300    factor for augmentation sphere                          
   RDEP   =    1.501    radius for radial grids                                 
   RDEPT  =    1.300    core radius for aug-charge                              
   QCUT   =   -5.516; QGAM   =   11.032    optimization parameters              
                                                                                
   Description                                                                  
     l     E      TYP  RCUT    TYP  RCUT                                        
     0   .000     23  1.200                                                     
     0   .000     23  1.200                                                     
     1   .000     23  1.500                                                     
     1  2.500     23  1.500                                                     
     2   .000      7  1.500                                                     
  local pseudopotential read in
  atomic valenz-charges read in
  non local Contribution for L=           0  read in
    real space projection operators read in
  non local Contribution for L=           0  read in
    real space projection operators read in
  non local Contribution for L=           1  read in
    real space projection operators read in
  non local Contribution for L=           1  read in
    real space projection operators read in
    PAW grid and wavefunctions read in
 
   number of l-projection  operators is LMAX  =           4
   number of lm-projection operators is LMMAX =           8
 
 POTCAR:   PAW_PBE O 08Apr2002                    
   VRHFIN =O: s2p4                                                              
   LEXCH  = PE                                                                  
   EATOM  =   432.3788 eV,   31.7789 Ry                                         
                                                                                
   TITEL  = PAW_PBE O 08Apr2002                                                 
   LULTRA =        F    use ultrasoft PP ?                                      
   IUNSCR =        0    unscreen: 0-lin 1-nonlin 2-no                           
   RPACOR =     .000    partial core radius                                     
   POMASS =   16.000; ZVAL   =    6.000    mass and valenz                      
   RCORE  =    1.520    outmost cutoff radius                                   
   RWIGS  =    1.550; RWIGS  =     .820    wigner-seitz radius (au A)           
   ENMAX  =  400.000; ENMIN  =  300.000 eV                                      
   ICORE  =        2    local potential                                         
   LCOR   =        T    correct aug charges                                     
   LPAW   =        T    paw PP                                                  
   EAUG   =  605.392                                                            
   DEXC   =     .000                                                            
   RMAX   =    2.264    core radius for proj-oper                               
   RAUG   =    1.300    factor for augmentation sphere                          
   RDEP   =    1.550    radius for radial grids                                 
   QCUT   =   -5.520; QGAM   =   11.041    optimization parameters              
                                                                                
   Description                                                                  
     l     E      TYP  RCUT    TYP  RCUT                                        
     0   .000     23  1.200                                                     
     0  -.700     23  1.200                                                     
     1   .000     23  1.520                                                     
     1   .600     23  1.520                                                     
     2   .000      7  1.500                                                     
  local pseudopotential read in
  atomic valenz-charges read in
  non local Contribution for L=           0  read in
    real space projection operators read in
  non local Contribution for L=           0  read in
    real space projection operators read in
  non local Contribution for L=           1  read in
    real space projection operators read in
  non local Contribution for L=           1  read in
    real space projection operators read in
    PAW grid and wavefunctions read in
 
   number of l-projection  operators is LMAX  =           4
   number of lm-projection operators is LMMAX =           8
 
 POTCAR:    PAW_PBE Pt 04Feb2005                  
   VRHFIN =Pt: s1d9                                                             
   LEXCH  = PE                                                                  
   EATOM  =   729.1182 eV,   53.5887 Ry                                         
                                                                                
   TITEL  = PAW_PBE Pt 04Feb2005                                                
   LULTRA =        F    use ultrasoft PP ?                                      
   IUNSCR =        1    unscreen: 0-lin 1-nonlin 2-no                           
   RPACOR =    2.330    partial core radius                                     
   POMASS =  195.080; ZVAL   =   10.000    mass and valenz                      
   RCORE  =    2.600    outmost cutoff radius                                   
   RWIGS  =    2.750; RWIGS  =    1.455    wigner-seitz radius (au A)           
   ENMAX  =  230.283; ENMIN  =  172.712 eV                                      
   ICORE  =        3    local potential                                         
   LCOR   =        T    correct aug charges                                     
   LPAW   =        T    paw PP                                                  
   EAUG   =  358.966                                                            
   DEXC   =     .000                                                            
   RMAX   =    3.038    core radius for proj-oper                               
   RAUG   =    1.300    factor for augmentation sphere                          
   RDEP   =    2.761    radius for radial grids                                 
   QCUT   =   -4.114; QGAM   =    8.228    optimization parameters              
                                                                                
   Description                                                                  
     l     E      TYP  RCUT    TYP  RCUT                                        
     2   .000     23  2.500                                                     
     2   .000     23  2.500                                                     
     0   .000     23  2.500                                                     
     0   .000     23  2.500                                                     
     1  -.200     23  2.600                                                     
     1  1.500     23  2.600                                                     
     3   .000     23  2.500                                                     
  local pseudopotential read in
  partial core-charges read in
  atomic valenz-charges read in
  non local Contribution for L=           2  read in
    real space projection operators read in
  non local Contribution for L=           2  read in
    real space projection operators read in
  non local Contribution for L=           0  read in
    real space projection operators read in
  non local Contribution for L=           0  read in
    real space projection operators read in
  non local Contribution for L=           1  read in
    real space projection operators read in
  non local Contribution for L=           1  read in
    real space projection operators read in
    PAW grid and wavefunctions read in
 
   number of l-projection  operators is LMAX  =           6
   number of lm-projection operators is LMMAX =          18
 
 Optimization of the real space projectors (new method)

 maximal supplied QI-value         = 25.13
 optimisation between [QCUT,QGAM] = [ 10.81, 21.61] = [ 32.71,130.83] Ry 
 Optimized for a Real-space Cutoff    1.23 Angstroem

   l    n(q)    QCUT    max X(q) W(low)/X(q) W(high)/X(q)  e(spline) 
   0      8    10.807     5.582    0.53E-04    0.84E-04    0.44E-07
   0      8    10.807    69.432    0.35E-03    0.71E-03    0.24E-06
   1      7    10.807     2.780    0.44E-04    0.88E-04    0.89E-07
   1      7    10.807     4.549    0.14E-03    0.28E-03    0.13E-06
 Optimization of the real space projectors (new method)

 maximal supplied QI-value         = 24.76
 optimisation between [QCUT,QGAM] = [ 10.64, 21.54] = [ 31.73,129.89] Ry 
 Optimized for a Real-space Cutoff    1.23 Angstroem

   l    n(q)    QCUT    max X(q) W(low)/X(q) W(high)/X(q)  e(spline) 
   0      8    10.645     4.192    0.69E-04    0.93E-04    0.58E-07
   0      8    10.645     8.473    0.40E-03    0.65E-03    0.17E-06
   1      7    10.645     2.474    0.80E-04    0.12E-03    0.30E-07
   1      7    10.645     3.912    0.24E-03    0.53E-03    0.16E-06
 Optimization of the real space projectors (new method)

 maximal supplied QI-value         = 14.36
 optimisation between [QCUT,QGAM] = [ 10.77, 21.69] = [ 32.49,131.70] Ry 
 Optimized for a Real-space Cutoff    1.46 Angstroem

   l    n(q)    QCUT    max X(q) W(low)/X(q) W(high)/X(q)  e(spline) 
   2      9    10.771     3.903    0.38E-04    0.12E-03    0.82E-07
   2      9    10.771    18.372    0.13E-03    0.32E-03    0.28E-06
   0     10    10.771    13.697    0.11E-04    0.86E-05    0.85E-08
   0     10    10.771    65.529    0.40E-04    0.12E-03    0.14E-06
   1      9    10.771     7.604    0.48E-04    0.31E-04    0.38E-07
   1      9    10.771    12.136    0.35E-03    0.16E-03    0.23E-06
 PAW_PBE C 08Apr2002                    :
 energy of atom  1       EATOM= -147.1560
 kinetic energy error for atom=    0.0116 (will be added to EATOM!!)
 PAW_PBE O 08Apr2002                    :
 energy of atom  2       EATOM= -432.3788
 kinetic energy error for atom=    0.0389 (will be added to EATOM!!)
  PAW_PBE Pt 04Feb2005                  :
 energy of atom  3       EATOM= -729.1182
 kinetic energy error for atom=    0.0051 (will be added to EATOM!!)
 
 
 POSCAR: C    O    Pt                            
  positions in direct lattice
  No initial velocities read in
 exchange correlation table for  LEXCH =        8
   RHO(1)=    0.500       N(1)  =     2000
   RHO(2)=  100.500       N(2)  =     4000

 VTST: version 3.2, (02/03/18)

 CHAIN: initializing optimizer
 
 OPT: Using VASP QUASI-newton optimizer
 CHAIN: Read ICHAIN            0
 
 POSCAR: C    O    Pt                            
  positions in direct lattice
  No initial velocities read in
 


--------------------------------------------------------------------------------------------------------


 ion  position               nearest neighbor table
   1  0.702  0.433  0.480-   3 1.16   2 1.98  36 2.15
   2  0.905  0.383  0.466-  38 1.94   1 1.98  36 2.62  37 2.69
   3  0.674  0.460  0.530-   1 1.16
   4  0.987  0.329  0.074-  15 2.81  16 2.81  12 2.81   5 2.81  11 2.81   6 2.81  18 2.81   8 2.81
                             7 2.81
   5  0.320  0.329  0.074-  13 2.81  10 2.81   4 2.81  12 2.81  16 2.81  17 2.81   8 2.81   9 2.81
                             6 2.81
   6  0.653  0.329  0.074-  14 2.81  18 2.81  11 2.81   4 2.81  17 2.81   7 2.81  10 2.81   9 2.81
                             5 2.81
   7  0.987  0.662  0.074-  18 2.81  21 2.81  19 2.81  12 2.81   8 2.81  10 2.81   9 2.81   6 2.81
                             4 2.81
   8  0.320  0.662  0.074-  16 2.81  19 2.81  10 2.81   7 2.81  20 2.81   4 2.81  11 2.81   5 2.81
                             9 2.81
   9  0.653  0.662  0.074-  17 2.81  20 2.81  21 2.81  11 2.81  12 2.81   7 2.81   6 2.81   5 2.81
                             8 2.81
  10  0.320  0.995  0.074-  13 2.81  19 2.81   5 2.81   8 2.81  12 2.81   7 2.81  14 2.81   6 2.81
                            11 2.81
  11  0.653  0.995  0.074-  14 2.81  20 2.81  15 2.81   9 2.81   6 2.81  12 2.81   4 2.81   8 2.81
                            10 2.81
  12  0.987  0.995  0.074-  15 2.81  21 2.81  13 2.81   7 2.81   4 2.81  10 2.81   5 2.81  11 2.81
                             9 2.81
  13  0.209  0.106  0.179-   5 2.81  10 2.81  12 2.81  19 2.81  15 2.81  21 2.81  16 2.81  14 2.81
                            17 2.81  25 2.84  26 2.86  27 2.87
  14  0.542  0.106  0.179-  23 2.70  24 2.74   6 2.81  11 2.81  20 2.81  15 2.81  10 2.81  18 2.81
                            19 2.81  17 2.81  13 2.81  26 2.87
  15  0.876  0.106  0.179-  24 2.76  25 2.79  28 2.79  12 2.81   4 2.81  11 2.81  21 2.81  13 2.81
                            14 2.81  20 2.81  16 2.81  18 2.81
  16  0.209  0.440  0.179-  22 2.77  25 2.80   8 2.81   4 2.81  19 2.81  18 2.81   5 2.81  15 2.81
                            20 2.81  13 2.81  17 2.81  29 2.85
  17  0.542  0.440  0.179-   9 2.81  20 2.81  21 2.81  18 2.81   6 2.81   5 2.81  14 2.81  16 2.81
                            13 2.81  30 2.81  29 2.81  26 2.87
  18  0.876  0.440  0.179-  24 2.74  22 2.76  30 2.79   7 2.81   6 2.81  21 2.81  16 2.81  19 2.81
                            17 2.81   4 2.81  14 2.81  15 2.81
  19  0.209  0.773  0.179-  23 2.70  22 2.79   8 2.81  10 2.81   7 2.81  16 2.81  13 2.81  18 2.81
                            21 2.81  14 2.81  20 2.81  27 2.84
  20  0.542  0.773  0.179-  23 2.70  28 2.79   9 2.81  11 2.81  17 2.81  14 2.81  15 2.81  21 2.81
                             8 2.81  16 2.81  19 2.81  29 2.83
  21  0.876  0.773  0.179-  30 2.80  12 2.81   7 2.81   9 2.81  18 2.81  15 2.81  19 2.81  13 2.81
                            17 2.81  20 2.81  28 2.81  27 2.85
  22  0.095  0.547  0.282-  25 2.75  18 2.76  16 2.77  30 2.78  24 2.78  19 2.79  27 2.80  23 2.83
                            29 2.86  37 2.86  31 2.87  38 2.91
  23  0.430  0.884  0.278-  19 2.70  14 2.70  20 2.70  27 2.80  28 2.80  24 2.82  26 2.82  29 2.83
                            22 2.83  35 2.83  32 2.92  31 2.94
  24  0.764  0.219  0.280-  18 2.74  14 2.74  15 2.76  25 2.78  30 2.78  22 2.78  26 2.81  28 2.81
                            23 2.82  36 2.86  32 2.88  38 2.94
  25  0.093  0.220  0.284-  22 2.75  24 2.78  15 2.79  16 2.80  38 2.80  28 2.81  13 2.84  29 2.84
                            26 2.85  34 2.88  27 2.88  33 2.89
  26  0.430  0.218  0.287-  35 2.69  36 2.71  33 2.74  29 2.79  24 2.81  23 2.82  30 2.82  27 2.82
                            25 2.85  13 2.86  17 2.87  14 2.87
  27  0.097  0.880  0.287-  35 2.67  37 2.75  30 2.78  23 2.80  22 2.80  34 2.81  26 2.82  19 2.84
                            28 2.84  21 2.85  13 2.87  25 2.88
  28  0.762  0.885  0.283-  39 2.77  29 2.78  20 2.79  32 2.79  15 2.79  23 2.80  25 2.81  21 2.81
                            24 2.81  30 2.84  27 2.84  34 2.90
  29  0.436  0.552  0.285-  39 2.74  28 2.78  26 2.79  30 2.79  31 2.81  17 2.81  23 2.83  20 2.83
                            25 2.84  33 2.85  16 2.85  22 2.86
  30  0.767  0.550  0.284-  39 2.73  22 2.78  24 2.78  27 2.78  18 2.79  29 2.79  21 2.80  36 2.81
                            17 2.81  26 2.82  37 2.84  28 2.84
  31  0.320  0.661  0.390-  37 2.80  35 2.80  29 2.81  38 2.82  32 2.82  33 2.86  22 2.87  39 2.88
                            23 2.94
  32  0.655  0.994  0.388-  28 2.79  38 2.79  31 2.82  36 2.83  34 2.83  39 2.84  35 2.84  24 2.88
                            23 2.92
  33  0.326  0.324  0.391-  36 2.70  26 2.74  35 2.77  34 2.80  39 2.83  38 2.83  29 2.85  31 2.86
                            25 2.89
  34  0.991  0.995  0.392-  35 2.76  38 2.77  37 2.78  33 2.80  39 2.80  27 2.81  32 2.83  25 2.88
                            28 2.90
  35  0.317  0.992  0.384-  27 2.67  26 2.69  37 2.76  34 2.76  33 2.77  31 2.80  36 2.81  23 2.83
                            32 2.84
  36  0.648  0.326  0.388-   1 2.15   2 2.62  33 2.70  26 2.71  39 2.76  35 2.81  30 2.81  32 2.83
                            24 2.86  37 2.87  38 2.90
  37  0.990  0.665  0.390-   2 2.69  27 2.75  39 2.76  35 2.76  34 2.78  31 2.80  30 2.84  22 2.86
                            36 2.87  38 2.88
  38  0.989  0.323  0.392-   2 1.94  34 2.77  32 2.79  25 2.80  31 2.82  33 2.83  37 2.88  36 2.90
                            22 2.91  24 2.94
  39  0.661  0.660  0.386-  30 2.73  29 2.74  37 2.76  36 2.76  28 2.77  34 2.80  33 2.83  32 2.84
                            31 2.88
 

IMPORTANT INFORMATION: All symmetrisations will be switched off!
NOSYMM: (Re-)initialisation of all symmetry stuff for point group C_1.

 
 
 KPOINTS: mesh auto                               

Automatic generation of k-mesh.
Space group operators:
 irot       det(A)        alpha          n_x          n_y          n_z        tau_x        tau_y        tau_z
    1     1.000000     0.000000     1.000000     0.000000     0.000000     0.000000     0.000000     0.000000
 
 Subroutine IBZKPT returns following result:
 ===========================================
 
 Found      4 irreducible k-points:
 
 Following reciprocal coordinates:
            Coordinates               Weight
  0.000000  0.000000  0.000000      1.000000
  0.500000  0.000000  0.000000      1.000000
 -0.000000  0.500000  0.000000      1.000000
  0.500000  0.500000  0.000000      1.000000
 
 Following cartesian coordinates:
            Coordinates               Weight
  0.000000  0.000000  0.000000      1.000000
  0.068522  0.000000  0.000000      1.000000
  0.034261  0.059342  0.000000      1.000000
  0.102783  0.059342  0.000000      1.000000
 


--------------------------------------------------------------------------------------------------------




 Dimension of arrays:
   k-points           NKPTS =      4   k-points in BZ     NKDIM =      4   number of bands    NBANDS=    228
   number of dos      NEDOS =    301   number of ions     NIONS =     39
   non local maximal  LDIM  =      6   non local SUM 2l+1 LMDIM =     18
   total plane-waves  NPLWV = 276480
   max r-space proj   IRMAX =   2756   max aug-charges    IRDMAX=  12646
   dimension x,y,z NGX =    48 NGY =   48 NGZ =  120
   dimension x,y,z NGXF=    96 NGYF=   96 NGZF=  240
   support grid    NGXF=    96 NGYF=   96 NGZF=  240
   ions per type =               1   2  36
   NGX,Y,Z   is equivalent  to a cutoff of   9.47,  9.47,  9.12 a.u.
   NGXF,Y,Z  is equivalent  to a cutoff of  18.94, 18.94, 18.24 a.u.

 SYSTEM =  metal                                   
 POSCAR =  C    O    Pt                            

 Startparameter for this run:
   NWRITE =      2    write-flag & timer
   PREC   = normal    normal or accurate (medium, high low for compatibility)
   ISTART =      0    job   : 0-new  1-cont  2-samecut
   ICHARG =      2    charge: 1-file 2-atom 10-const
   ISPIN  =      1    spin polarized calculation?
   LNONCOLLINEAR =      F non collinear calculations
   LSORBIT =      F    spin-orbit coupling
   INIWAV =      1    electr: 0-lowe 1-rand  2-diag
   LASPH  =      F    aspherical Exc in radial PAW
   METAGGA=      F    non-selfconsistent MetaGGA calc.

 Electronic Relaxation 1
   ENCUT  =  450.0 eV  33.07 Ry    5.75 a.u.  14.57 14.57 37.84*2*pi/ulx,y,z
   ENINI  =  450.0     initial cutoff
   ENAUG  =  644.9 eV  augmentation charge cutoff
   NELM   =     60;   NELMIN=  8; NELMDL= -5     # of ELM steps 
   EDIFF  = 0.1E-03   stopping-criterion for ELM
   LREAL  =      T    real-space projection
   NLSPLINE    = F    spline interpolate recip. space projectors
   LCOMPAT=      F    compatible to vasp.4.4
   GGA_COMPAT  = T    GGA compatible to vasp.4.4-vasp.4.6
   LMAXPAW     = -100 max onsite density
   LMAXMIX     =    2 max onsite mixed and CHGCAR
   VOSKOWN=      0    Vosko Wilk Nusair interpolation
   ROPT   =   -0.00050  -0.00050  -0.00050
 Ionic relaxation
   EDIFFG = -.5E-01   stopping-criterion for IOM
   NSW    =   5000    number of steps for IOM
   NBLOCK =      1;   KBLOCK =   5000    inner block; outer block 
   IBRION =      1    ionic relax: 0-MD 1-quasi-New 2-CG
   NFREE  =      0    steps in history (QN), initial steepest desc. (CG)
   ISIF   =      2    stress and relaxation
   IWAVPR =     11    prediction:  0-non 1-charg 2-wave 3-comb
   ISYM   =      0    0-nonsym 1-usesym 2-fastsym
   LCORR  =      T    Harris-Foulkes like correction to forces

   POTIM  = 0.2000    time-step for ionic-motion
   TEIN   =    0.0    initial temperature
   TEBEG  =    0.0;   TEEND  =   0.0 temperature during run
   SMASS  =  -3.00    Nose mass-parameter (am)
   estimated Nose-frequenzy (Omega)   =  0.10E-29 period in steps =****** mass=  -0.162E-26a.u.
   SCALEE = 1.0000    scale energy and forces
   NPACO  =    256;   APACO  = 16.0  distance and # of slots for P.C.
   PSTRESS=    0.0 pullay stress

  Mass of Ions in am
   POMASS =  12.01 16.00195.08
  Ionic Valenz
   ZVAL   =   4.00  6.00 10.00
  Atomic Wigner-Seitz radii
   RWIGS  =  -1.00 -1.00 -1.00
  virtual crystal weights 
   VCA    =   1.00  1.00  1.00
   NELECT =     376.0000    total number of electrons
   NUPDOWN=      -1.0000    fix difference up-down

 DOS related values:
   EMIN   =  10.00;   EMAX   =-10.00  energy-range for DOS
   EFERMI =   0.00
   ISMEAR =     1;   SIGMA  =   0.20  broadening in eV -4-tet -1-fermi 0-gaus

 Electronic relaxation 2 (details)
   IALGO  =     68    algorithm
   LDIAG  =      T    sub-space diagonalisation (order eigenvalues)
   LSUBROT=      F    optimize rotation matrix (better conditioning)
   TURBO    =      0    0=normal 1=particle mesh
   IRESTART =      0    0=no restart 2=restart with 2 vectors
   NREBOOT  =      0    no. of reboots
   NMIN     =      0    reboot dimension
   EREF     =   0.00    reference energy to select bands
   IMIX   =      4    mixing-type and parameters
     AMIX     =   0.40;   BMIX     =  1.00
     AMIX_MAG =   1.60;   BMIX_MAG =  1.00
     AMIN     =   0.10
     WC   =   100.;   INIMIX=   1;  MIXPRE=   1;  MAXMIX= -45

 Intra band minimization:
   WEIMIN = 0.0010     energy-eigenvalue tresh-hold
   EBREAK =  0.11E-06  absolut break condition
   DEPER  =   0.30     relativ break condition  

   TIME   =   0.40     timestep for ELM

  volume/ion in A,a.u.               =      34.49       232.77
  Fermi-wavevector in a.u.,A,eV,Ry     =   1.070385  2.022734 15.588510  1.145723
  Thomas-Fermi vector in A             =   2.206093
 
 Write flags
   LWAVE        =      F    write WAVECAR
   LDOWNSAMPLE  =      F    k-point downsampling of WAVECAR
   LCHARG       =      F    write CHGCAR
   LVTOT        =      F    write LOCPOT, total local potential
   LVHAR        =      F    write LOCPOT, Hartree potential only
   LELF         =      F    write electronic localiz. function (ELF)
   LORBIT       =      0    0 simple, 1 ext, 2 COOP (PROOUT), +10 PAW based schemes


 Dipole corrections
   LMONO  =      F    monopole corrections only (constant potential shift)
   LDIPOL =      F    correct potential (dipole corrections)
   IDIPOL =      0    1-x, 2-y, 3-z, 4-all directions 
   EPSILON=  1.0000000 bulk dielectric constant

 Exchange correlation treatment:
   GGA     =    --    GGA type
   LEXCH   =     8    internal setting for exchange type
   VOSKOWN=      0    Vosko Wilk Nusair interpolation
   LHFCALC =     F    Hartree Fock is set to
   LHFONE  =     F    Hartree Fock one center treatment
   AEXX    =    0.0000 exact exchange contribution

 Linear response parameters
   LEPSILON=     F    determine dielectric tensor
   LRPA    =     F    only Hartree local field effects (RPA)
   LNABLA  =     F    use nabla operator in PAW spheres
   LVEL    =     F    velocity operator in full k-point grid
   LINTERFAST=   F  fast interpolation
   KINTER  =     0    interpolate to denser k-point grid
   CSHIFT  =0.1000    complex shift for real part using Kramers Kronig
   OMEGAMAX=  -1.0    maximum frequency
   DEG_THRESHOLD= 0.2000000E-02 threshold for treating states as degnerate
   RTIME   =   -0.100 relaxation time in fs
  (WPLASMAI=    0.000 imaginary part of plasma frequency in eV, 0.658/RTIME)
   DFIELD  = 0.0000000 0.0000000 0.0000000 field for delta impulse in time
 
 Orbital magnetization related:
   ORBITALMAG=     F  switch on orbital magnetization
   LCHIMAG   =     F  perturbation theory with respect to B field
   DQ        =  0.001000  dq finite difference perturbation B field
   LLRAUG    =     F  two centre corrections for induced B field



--------------------------------------------------------------------------------------------------------


 quasi-Newton-method for relaxation of ions
   using selective dynamics as specified on POSCAR
 charge density and potential will be updated during run
 non-spin polarized calculation
 RMM-DIIS sequential band-by-band and
  variant of blocked Davidson during initial phase
 perform sub-space diagonalisation
    before iterative eigenvector-optimisation
 modified Broyden-mixing scheme, WC =      100.0
 initial mixing is a Kerker type mixing with AMIX =  0.4000 and BMIX =      1.0000
 Hartree-type preconditioning will be used
 using additional bands           40
 real space projection scheme for non local part
 use partial core corrections
 calculate Harris-corrections to forces 
   (improved forces if not selfconsistent)
 use gradient corrections 
 use of overlap-Matrix (Vanderbilt PP)
 Methfessel and Paxton  Order N= 1 SIGMA  =   0.20


--------------------------------------------------------------------------------------------------------


  energy-cutoff  :      450.00
  volume of cell :     1345.22
      direct lattice vectors                 reciprocal lattice vectors
     7.296955120 -4.212899000  0.000000000     0.137043463  0.000000000  0.000000000
     0.000000000  8.425798000  0.000000000     0.068521732  0.118683121  0.000000000
     0.000000000  0.000000000 21.879635000     0.000000000  0.000000000  0.045704602

  length of vectors
     8.425798004  8.425798000 21.879635000     0.137043463  0.137043463  0.045704602


 
 k-points in units of 2pi/SCALE and weight: mesh auto                               
   0.00000000  0.00000000  0.00000000       0.250
   0.06852173  0.00000000  0.00000000       0.250
   0.03426087  0.05934156  0.00000000       0.250
   0.10278260  0.05934156  0.00000000       0.250
 
 k-points in reciprocal lattice and weights: mesh auto                               
   0.00000000  0.00000000  0.00000000       0.250
   0.50000000  0.00000000  0.00000000       0.250
  -0.00000000  0.50000000  0.00000000       0.250
   0.50000000  0.50000000  0.00000000       0.250
 
 position of ions in fractional coordinates (direct lattice) 
   0.70222615  0.43325374  0.47962876
   0.90531156  0.38345312  0.46635697
   0.67408960  0.46010962  0.52951729
   0.98675500  0.32859100  0.07437600
   0.32008800  0.32859100  0.07437600
   0.65342200  0.32859100  0.07437600
   0.98675500  0.66192500  0.07437600
   0.32008800  0.66192500  0.07437600
   0.65342200  0.66192500  0.07437600
   0.32008800  0.99525800  0.07437600
   0.65342200  0.99525800  0.07437600
   0.98675500  0.99525800  0.07437600
   0.20897700  0.10636900  0.17918600
   0.54231100  0.10636900  0.17918600
   0.87564400  0.10636900  0.17918600
   0.20897700  0.43970300  0.17918600
   0.54231100  0.43970300  0.17918600
   0.87564400  0.43970300  0.17918600
   0.20897700  0.77303600  0.17918600
   0.54231100  0.77303600  0.17918600
   0.87564400  0.77303600  0.17918600
   0.09486034  0.54692372  0.28204187
   0.43020960  0.88375236  0.27786647
   0.76355643  0.21899961  0.28040426
   0.09347255  0.22005541  0.28407421
   0.43025842  0.21765863  0.28734222
   0.09749902  0.88028750  0.28651130
   0.76243239  0.88479682  0.28337464
   0.43609079  0.55168473  0.28525877
   0.76697074  0.55023064  0.28363528
   0.31981536  0.66068964  0.38959274
   0.65495221  0.99416992  0.38846920
   0.32606182  0.32447242  0.39098800
   0.99140769  0.99469120  0.39193770
   0.31682636  0.99163866  0.38434849
   0.64759083  0.32648876  0.38793276
   0.98986824  0.66455866  0.38976273
   0.98930374  0.32283144  0.39184570
   0.66095088  0.66032295  0.38558547
 
 position of ions in cartesian coordinates  (Angst):
   5.12411269  0.69210066 10.49410219
   6.60601780 -0.58308764 10.20372022
   4.91880158  1.03691932 11.58564506
   7.20030695 -1.38845776  1.62731973
   2.33566777  1.42014298  1.62731973
   4.76799101  0.01584050  1.62731973
   7.20030695  1.42014719  1.62731973
   2.33566777  4.22874793  1.62731973
   4.76799101  2.82444545  1.62731973
   2.33566777  7.03734445  1.62731973
   4.76799101  5.63304198  1.62731973
   7.20030695  4.22874371  1.62731973
   1.52489579  0.01584471  3.92052428
   3.95721903 -1.38845776  3.92052428
   6.38953497 -2.79275602  3.92052428
   1.52489579  2.82444966  3.92052428
   3.95721903  1.42014719  3.92052428
   6.38953497  0.01584893  3.92052428
   1.52489579  5.63304619  3.92052428
   3.95721903  4.22874371  3.92052428
   6.38953497  2.82444545  3.92052428
   0.69219166  4.20863177  6.17097312
   3.13922014  5.63388927  6.07961688
   5.57163702 -1.37153967  6.13514284
   0.68206498  1.46035201  6.21543996
   3.13957638  0.02131236  6.28694279
   0.71144600  7.00637108  6.26876260
   5.56343495  4.24306857  6.20013369
   3.18213493  2.81117765  6.24135780
   5.59655109  1.40496195  6.20583638
   2.33367831  4.21948763  8.52414689
   4.77915685  5.61742742  8.49956425
   2.37925846  1.36027352  8.55467472
   7.23425744  4.20436664  8.57545371
   2.31186775  7.02058961  8.40940462
   4.72544120  0.02269360  8.48782721
   7.22302415  1.42922208  8.52786619
   7.21890496 -1.44772423  8.57344088
   4.82292888  2.77922854  8.43646937
 


--------------------------------------------------------------------------------------------------------


 k-point  1 :   0.0000 0.0000 0.0000  plane waves:   29241
 k-point  2 :   0.5000 0.0000 0.0000  plane waves:   29108
 k-point  3 :  -0.0000 0.5000 0.0000  plane waves:   29108
 k-point  4 :   0.5000 0.5000 0.0000  plane waves:   29108

 maximum and minimum number of plane-waves per node :     14624    14548

 maximum number of plane-waves:     29241
 maximum index in each direction: 
   IXMAX=   14   IYMAX=   14   IZMAX=   37
   IXMIN=  -15   IYMIN=  -15   IZMIN=  -37


 real space projection operators:
  total allocation   :      13550.56 KBytes
  max/ min on nodes  :       6780.81       6769.75


 parallel 3D FFT for wavefunctions:
    minimum data exchange during FFTs selected (reduces bandwidth)
 parallel 3D FFT for charge:
    minimum data exchange during FFTs selected (reduces bandwidth)


 total amount of memory used by VASP MPI-rank0   131947. kBytes
=======================================================================

   base      :      30000. kBytes
   nonlr-proj:      10139. kBytes
   fftplans  :      13556. kBytes
   grid      :      23353. kBytes
   one-center:        311. kBytes
   wavefun   :      54588. kBytes
 
     INWAV:  cpu time    0.0000: real time    0.0000
 Broyden mixing: mesh for mixing (old mesh)
   NGX = 29   NGY = 29   NGZ = 75
  (NGX  = 96   NGY  = 96   NGZ  =240)
  gives a total of  63075 points

 initial charge density was supplied:
 charge density of overlapping atoms calculated
 number of electron     376.0000000 magnetization 
 keeping initial charge density in first step


--------------------------------------------------------------------------------------------------------


 Maximum index for non-local projection operator         1319
 Maximum index for augmentation-charges         1558 (set IRDMAX)


--------------------------------------------------------------------------------------------------------


 First call to EWALD:  gamma=   0.161
 Maximum number of real-space cells 4x 4x 2
 Maximum number of reciprocal cells 2x 2x 5

    FEWALD:  cpu time    0.0023: real time    0.0023


--------------------------------------- Iteration      1(   1)  ---------------------------------------


    POTLOK:  cpu time    0.2117: real time    0.3978
    SETDIJ:  cpu time    0.0154: real time    0.0393
     EDDAV:  cpu time   12.6786: real time   13.1533
       DOS:  cpu time    0.0009: real time    0.0009
    --------------------------------------------
      LOOP:  cpu time   12.9067: real time   13.5912

 eigenvalue-minimisations  :  1824
 total energy-change (2. order) : 0.2417113E+04  (-0.1594528E+05)
 number of electron     376.0000000 magnetization 
 augmentation part      376.0000000 magnetization 

 Free energy of the ion-electron system (eV)
  ---------------------------------------------------
  alpha Z        PSCENC =       975.10247152
  Ewald energy   TEWEN  =     90912.25108464
  -Hartree energ DENC   =   -120006.82348975
  -exchange      EXHF   =         0.00000000
  -V(xc)+E(xc)   XCENC  =       189.20708935
  PAW double counting   =     24789.08602224   -23775.73976456
  entropy T*S    EENTRO =        -0.00142279
  eigenvalues    EBANDS =      2074.13653786
  atomic energy  EATOM  =     27259.89416086
  Solvation  Ediel_sol  =         0.00000000
  ---------------------------------------------------
  free energy    TOTEN  =      2417.11268937 eV

  energy without entropy =     2417.11411216  energy(sigma->0) =     2417.11316363


--------------------------------------------------------------------------------------------------------




--------------------------------------- Iteration      1(   2)  ---------------------------------------


     EDDAV:  cpu time   14.3870: real time   14.4736
       DOS:  cpu time    0.0011: real time    0.0011
    --------------------------------------------
      LOOP:  cpu time   14.3881: real time   14.4747

 eigenvalue-minimisations  :  2120
 total energy-change (2. order) :-0.2481278E+04  (-0.2305387E+04)
 number of electron     376.0000000 magnetization 
 augmentation part      376.0000000 magnetization 

 Free energy of the ion-electron system (eV)
  ---------------------------------------------------
  alpha Z        PSCENC =       975.10247152
  Ewald energy   TEWEN  =     90912.25108464
  -Hartree energ DENC   =   -120006.82348975
  -exchange      EXHF   =         0.00000000
  -V(xc)+E(xc)   XCENC  =       189.20708935
  PAW double counting   =     24789.08602224   -23775.73976456
  entropy T*S    EENTRO =         0.00451314
  eigenvalues    EBANDS =      -407.14787141
  atomic energy  EATOM  =     27259.89416086
  Solvation  Ediel_sol  =         0.00000000
  ---------------------------------------------------
  free energy    TOTEN  =       -64.16578397 eV

  energy without entropy =      -64.17029711  energy(sigma->0) =      -64.16728835


--------------------------------------------------------------------------------------------------------




--------------------------------------- Iteration      1(   3)  ---------------------------------------


     EDDAV:  cpu time   15.0767: real time   15.3633
       DOS:  cpu time    0.0009: real time    0.0009
    --------------------------------------------
      LOOP:  cpu time   15.0777: real time   15.3642

 eigenvalue-minimisations  :  2168
 total energy-change (2. order) :-0.1759500E+03  (-0.1597495E+03)
 number of electron     376.0000000 magnetization 
 augmentation part      376.0000000 magnetization 

 Free energy of the ion-electron system (eV)
  ---------------------------------------------------
  alpha Z        PSCENC =       975.10247152
  Ewald energy   TEWEN  =     90912.25108464
  -Hartree energ DENC   =   -120006.82348975
  -exchange      EXHF   =         0.00000000
  -V(xc)+E(xc)   XCENC  =       189.20708935
  PAW double counting   =     24789.08602224   -23775.73976456
  entropy T*S    EENTRO =        -0.00389042
  eigenvalues    EBANDS =      -583.08947949
  atomic energy  EATOM  =     27259.89416086
  Solvation  Ediel_sol  =         0.00000000
  ---------------------------------------------------
  free energy    TOTEN  =      -240.11579561 eV

  energy without entropy =     -240.11190520  energy(sigma->0) =     -240.11449881


--------------------------------------------------------------------------------------------------------




--------------------------------------- Iteration      1(   4)  ---------------------------------------


     EDDAV:  cpu time   12.9984: real time   14.7493
       DOS:  cpu time    0.0010: real time    0.0010
    --------------------------------------------
      LOOP:  cpu time   12.9994: real time   14.7503

 eigenvalue-minimisations  :  2336
 total energy-change (2. order) :-0.7713384E+01  (-0.7444806E+01)
 number of electron     376.0000000 magnetization 
 augmentation part      376.0000000 magnetization 

 Free energy of the ion-electron system (eV)
  ---------------------------------------------------
  alpha Z        PSCENC =       975.10247152
  Ewald energy   TEWEN  =     90912.25108464
  -Hartree energ DENC   =   -120006.82348975
  -exchange      EXHF   =         0.00000000
  -V(xc)+E(xc)   XCENC  =       189.20708935
  PAW double counting   =     24789.08602224   -23775.73976456
  entropy T*S    EENTRO =        -0.00623989
  eigenvalues    EBANDS =      -590.80051395
  atomic energy  EATOM  =     27259.89416086
  Solvation  Ediel_sol  =         0.00000000
  ---------------------------------------------------
  free energy    TOTEN  =      -247.82917954 eV

  energy without entropy =     -247.82293965  energy(sigma->0) =     -247.82709958


--------------------------------------------------------------------------------------------------------




--------------------------------------- Iteration      1(   5)  ---------------------------------------


     EDDAV:  cpu time   16.2511: real time   17.0246
       DOS:  cpu time    0.0077: real time    0.0077
    CHARGE:  cpu time    0.4650: real time    0.4685
    MIXING:  cpu time    0.0186: real time    0.0187
    --------------------------------------------
      LOOP:  cpu time   16.7423: real time   17.5195

 eigenvalue-minimisations  :  2420
 total energy-change (2. order) :-0.2230729E+00  (-0.2207857E+00)
 number of electron     376.0000029 magnetization 
 augmentation part      105.8723067 magnetization 

 Broyden mixing:
  rms(total) = 0.27094E+01    rms(broyden)= 0.27090E+01
  rms(prec ) = 0.30182E+01
  weight for this iteration     100.00

 Free energy of the ion-electron system (eV)
  ---------------------------------------------------
  alpha Z        PSCENC =       975.10247152
  Ewald energy   TEWEN  =     90912.25108464
  -Hartree energ DENC   =   -120006.82348975
  -exchange      EXHF   =         0.00000000
  -V(xc)+E(xc)   XCENC  =       189.20708935
  PAW double counting   =     24789.08602224   -23775.73976456
  entropy T*S    EENTRO =        -0.00642106
  eigenvalues    EBANDS =      -591.02340571
  atomic energy  EATOM  =     27259.89416086
  Solvation  Ediel_sol  =         0.00000000
  ---------------------------------------------------
  free energy    TOTEN  =      -248.05225247 eV

  energy without entropy =     -248.04583141  energy(sigma->0) =     -248.05011212


--------------------------------------------------------------------------------------------------------




--------------------------------------- Iteration      1(   6)  ---------------------------------------


    POTLOK:  cpu time    0.1517: real time    0.1530
    SETDIJ:  cpu time    0.0094: real time    0.0095
    EDDIAG:  cpu time    1.4438: real time    1.4530
  RMM-DIIS:  cpu time    4.8359: real time    4.9984
    ORTHCH:  cpu time    0.2956: real time    0.2982
       DOS:  cpu time    0.0017: real time    0.0017
    CHARGE:  cpu time    0.6905: real time    0.6961
    MIXING:  cpu time    0.0133: real time    0.0134
    --------------------------------------------
      LOOP:  cpu time    7.4419: real time    7.6231

 eigenvalue-minimisations  :  1832
 total energy-change (2. order) : 0.2912175E+01  (-0.5389061E+01)
 number of electron     376.0000035 magnetization 
 augmentation part      112.8859411 magnetization 

 Broyden mixing:
  rms(total) = 0.28294E+01    rms(broyden)= 0.28284E+01
  rms(prec ) = 0.37335E+01
  weight for this iteration     100.00

 eigenvalues of (default mixing * dielectric matrix)
  average eigenvalue GAMMA=   0.5000
  0.5000

 Free energy of the ion-electron system (eV)
  ---------------------------------------------------
  alpha Z        PSCENC =       975.10247152
  Ewald energy   TEWEN  =     90912.25108464
  -Hartree energ DENC   =   -119545.76633843
  -exchange      EXHF   =         0.00000000
  -V(xc)+E(xc)   XCENC  =       182.00012166
  PAW double counting   =     26698.12838803   -25738.01810131
  entropy T*S    EENTRO =        -0.20895794
  eigenvalues    EBANDS =      -988.52290619
  atomic energy  EATOM  =     27259.89416086
  Solvation  Ediel_sol  =         0.00000000
  ---------------------------------------------------
  free energy    TOTEN  =      -245.14007715 eV

  energy without entropy =     -244.93111921  energy(sigma->0) =     -245.07042451


--------------------------------------------------------------------------------------------------------




--------------------------------------- Iteration      1(   7)  ---------------------------------------


    POTLOK:  cpu time    0.1874: real time    0.1891
    SETDIJ:  cpu time    0.0197: real time    0.0199
    EDDIAG:  cpu time    1.7816: real time    1.7986
  RMM-DIIS:  cpu time    5.2117: real time    5.2560
    ORTHCH:  cpu time    0.3731: real time    0.3755
       DOS:  cpu time    0.0010: real time    0.0010
    CHARGE:  cpu time    0.4825: real time    0.4860
    MIXING:  cpu time    0.0088: real time    0.0088
    --------------------------------------------
      LOOP:  cpu time    8.0657: real time    8.1349

 eigenvalue-minimisations  :  1830
 total energy-change (2. order) : 0.7856645E+01  (-0.3131219E+01)
 number of electron     376.0000036 magnetization 
 augmentation part      111.4403012 magnetization 

 Broyden mixing:
  rms(total) = 0.17684E+01    rms(broyden)= 0.17674E+01
  rms(prec ) = 0.23724E+01
  weight for this iteration     100.00

 eigenvalues of (default mixing * dielectric matrix)
  average eigenvalue GAMMA=   0.6805
  1.0914  0.2697

 Free energy of the ion-electron system (eV)
  ---------------------------------------------------
  alpha Z        PSCENC =       975.10247152
  Ewald energy   TEWEN  =     90912.25108464
  -Hartree energ DENC   =   -119743.49282689
  -exchange      EXHF   =         0.00000000
  -V(xc)+E(xc)   XCENC  =       179.61954665
  PAW double counting   =     27359.87589565   -26407.40225938
  entropy T*S    EENTRO =        -0.20009168
  eigenvalues    EBANDS =      -772.93141367
  atomic energy  EATOM  =     27259.89416086
  Solvation  Ediel_sol  =         0.00000000
  ---------------------------------------------------
  free energy    TOTEN  =      -237.28343230 eV

  energy without entropy =     -237.08334062  energy(sigma->0) =     -237.21673507


--------------------------------------------------------------------------------------------------------




--------------------------------------- Iteration      1(   8)  ---------------------------------------


    POTLOK:  cpu time    0.1424: real time    0.1434
    SETDIJ:  cpu time    0.0142: real time    0.0143
    EDDIAG:  cpu time    1.4872: real time    1.4976
  RMM-DIIS:  cpu time    5.0241: real time    5.0848
    ORTHCH:  cpu time    0.3929: real time    0.3954
       DOS:  cpu time    0.0011: real time    0.0011
    CHARGE:  cpu time    0.3605: real time    0.3632
    MIXING:  cpu time    0.0035: real time    0.0036
    --------------------------------------------
      LOOP:  cpu time    7.4258: real time    7.5033

 eigenvalue-minimisations  :  1830
 total energy-change (2. order) : 0.5180962E+01  (-0.7198038E+00)
 number of electron     376.0000034 magnetization 
 augmentation part      112.5856175 magnetization 

 Broyden mixing:
  rms(total) = 0.10123E+01    rms(broyden)= 0.10121E+01
  rms(prec ) = 0.12546E+01
  weight for this iteration     100.00

 eigenvalues of (default mixing * dielectric matrix)
  average eigenvalue GAMMA=   0.6440
  1.2971  0.3562  0.2787

 Free energy of the ion-electron system (eV)
  ---------------------------------------------------
  alpha Z        PSCENC =       975.10247152
  Ewald energy   TEWEN  =     90912.25108464
  -Hartree energ DENC   =   -119621.35968266
  -exchange      EXHF   =         0.00000000
  -V(xc)+E(xc)   XCENC  =       178.20946944
  PAW double counting   =     28401.48688708   -27465.51988029
  entropy T*S    EENTRO =        -0.00508484
  eigenvalues    EBANDS =      -872.16189643
  atomic energy  EATOM  =     27259.89416086
  Solvation  Ediel_sol  =         0.00000000
  ---------------------------------------------------
  free energy    TOTEN  =      -232.10247068 eV

  energy without entropy =     -232.09738584  energy(sigma->0) =     -232.10077573


--------------------------------------------------------------------------------------------------------




--------------------------------------- Iteration      1(   9)  ---------------------------------------


    POTLOK:  cpu time    0.1769: real time    0.1780
    SETDIJ:  cpu time    0.0241: real time    0.0243
    EDDIAG:  cpu time    1.7563: real time    1.7681
  RMM-DIIS:  cpu time    3.9881: real time    4.6271
    ORTHCH:  cpu time    0.2370: real time    0.2394
       DOS:  cpu time    0.0011: real time    0.0011
    CHARGE:  cpu time    0.5227: real time    0.6271
    MIXING:  cpu time    0.0048: real time    0.0060
    --------------------------------------------
      LOOP:  cpu time    6.7110: real time    7.4711

 eigenvalue-minimisations  :  1831
 total energy-change (2. order) : 0.4280176E+00  (-0.1972333E+00)
 number of electron     376.0000039 magnetization 
 augmentation part      112.8578696 magnetization 

 Broyden mixing:
  rms(total) = 0.97408E+00    rms(broyden)= 0.97387E+00
  rms(prec ) = 0.17819E+01
  weight for this iteration     100.00

 eigenvalues of (default mixing * dielectric matrix)
  average eigenvalue GAMMA=   0.5301
  1.3234  0.3525  0.2935  0.1511

 Free energy of the ion-electron system (eV)
  ---------------------------------------------------
  alpha Z        PSCENC =       975.10247152
  Ewald energy   TEWEN  =     90912.25108464
  -Hartree energ DENC   =   -119637.58921280
  -exchange      EXHF   =         0.00000000
  -V(xc)+E(xc)   XCENC  =       178.01909338
  PAW double counting   =     28846.65117500   -27917.24651449
  entropy T*S    EENTRO =        -0.08179736
  eigenvalues    EBANDS =      -848.67491385
  atomic energy  EATOM  =     27259.89416086
  Solvation  Ediel_sol  =         0.00000000
  ---------------------------------------------------
  free energy    TOTEN  =      -231.67445310 eV

  energy without entropy =     -231.59265574  energy(sigma->0) =     -231.64718731


--------------------------------------------------------------------------------------------------------




--------------------------------------- Iteration      1(  10)  ---------------------------------------


    POTLOK:  cpu time    0.1022: real time    0.1405
    SETDIJ:  cpu time    0.0088: real time    0.0141
    EDDIAG:  cpu time    1.4831: real time    1.5297
  RMM-DIIS:  cpu time    4.9263: real time    5.1590
    ORTHCH:  cpu time    0.3360: real time    0.3383
       DOS:  cpu time    0.0010: real time    0.0010
    CHARGE:  cpu time    0.4809: real time    0.4843
    MIXING:  cpu time    0.0044: real time    0.0044
    --------------------------------------------
      LOOP:  cpu time    7.3428: real time    7.6712

 eigenvalue-minimisations  :  1831
 total energy-change (2. order) : 0.1473746E+01  (-0.4796334E-01)
 number of electron     376.0000037 magnetization 
 augmentation part      112.8349860 magnetization 

 Broyden mixing:
  rms(total) = 0.40049E+00    rms(broyden)= 0.40043E+00
  rms(prec ) = 0.53126E+00
  weight for this iteration     100.00

 eigenvalues of (default mixing * dielectric matrix)
  average eigenvalue GAMMA=   0.5604
  1.4197  0.5420  0.4873  0.2468  0.1064

 Free energy of the ion-electron system (eV)
  ---------------------------------------------------
  alpha Z        PSCENC =       975.10247152
  Ewald energy   TEWEN  =     90912.25108464
  -Hartree energ DENC   =   -119636.17052442
  -exchange      EXHF   =         0.00000000
  -V(xc)+E(xc)   XCENC  =       177.97409393
  PAW double counting   =     28962.62439575   -28034.78886465
  entropy T*S    EENTRO =        -0.00695571
  eigenvalues    EBANDS =      -847.08056873
  atomic energy  EATOM  =     27259.89416086
  Solvation  Ediel_sol  =         0.00000000
  ---------------------------------------------------
  free energy    TOTEN  =      -230.20070682 eV

  energy without entropy =     -230.19375110  energy(sigma->0) =     -230.19838825


--------------------------------------------------------------------------------------------------------




--------------------------------------- Iteration      1(  11)  ---------------------------------------


    POTLOK:  cpu time    0.1509: real time    0.1520
    SETDIJ:  cpu time    0.0189: real time    0.0190
    EDDIAG:  cpu time    1.7348: real time    1.7466
  RMM-DIIS:  cpu time    4.7685: real time    5.6898
    ORTHCH:  cpu time    0.3186: real time    0.4068
       DOS:  cpu time    0.0011: real time    0.0011
    CHARGE:  cpu time    0.4060: real time    0.4084
    MIXING:  cpu time    0.0042: real time    0.0042
    --------------------------------------------
      LOOP:  cpu time    7.4029: real time    8.4278

 eigenvalue-minimisations  :  1830
 total energy-change (2. order) : 0.2168638E+00  (-0.3739703E-01)
 number of electron     376.0000036 magnetization 
 augmentation part      112.9583957 magnetization 

 Broyden mixing:
  rms(total) = 0.29891E+00    rms(broyden)= 0.29876E+00
  rms(prec ) = 0.36859E+00
  weight for this iteration     100.00

 eigenvalues of (default mixing * dielectric matrix)
  average eigenvalue GAMMA=   0.5575
  1.4969  0.7593  0.3682  0.3682  0.2492  0.1033

 Free energy of the ion-electron system (eV)
  ---------------------------------------------------
  alpha Z        PSCENC =       975.10247152
  Ewald energy   TEWEN  =     90912.25108464
  -Hartree energ DENC   =   -119626.67737106
  -exchange      EXHF   =         0.00000000
  -V(xc)+E(xc)   XCENC  =       177.94215117
  PAW double counting   =     29283.42029969   -28359.76907046
  entropy T*S    EENTRO =        -0.00428798
  eigenvalues    EBANDS =      -852.14328142
  atomic energy  EATOM  =     27259.89416086
  Solvation  Ediel_sol  =         0.00000000
  ---------------------------------------------------
  free energy    TOTEN  =      -229.98384304 eV

  energy without entropy =     -229.97955507  energy(sigma->0) =     -229.98241372


--------------------------------------------------------------------------------------------------------




--------------------------------------- Iteration      1(  12)  ---------------------------------------


    POTLOK:  cpu time    0.2253: real time    0.2266
    SETDIJ:  cpu time    0.0135: real time    0.0135
    EDDIAG:  cpu time    1.3914: real time    1.3998
  RMM-DIIS:  cpu time    5.0678: real time    5.1003
    ORTHCH:  cpu time    0.4075: real time    0.4098
       DOS:  cpu time    0.0011: real time    0.0011
    CHARGE:  cpu time    0.5331: real time    0.5365
    MIXING:  cpu time    0.0042: real time    0.0042
    --------------------------------------------
      LOOP:  cpu time    7.6438: real time    7.6919

 eigenvalue-minimisations  :  1830
 total energy-change (2. order) : 0.1187662E+00  (-0.1466329E-01)
 number of electron     376.0000036 magnetization 
 augmentation part      113.0020316 magnetization 

 Broyden mixing:
  rms(total) = 0.17687E+00    rms(broyden)= 0.17685E+00
  rms(prec ) = 0.19541E+00
  weight for this iteration     100.00

 eigenvalues of (default mixing * dielectric matrix)
  average eigenvalue GAMMA=   0.6795
  1.8712  1.1244  0.6400  0.5227  0.2472  0.2472  0.1037

 Free energy of the ion-electron system (eV)
  ---------------------------------------------------
  alpha Z        PSCENC =       975.10247152
  Ewald energy   TEWEN  =     90912.25108464
  -Hartree energ DENC   =   -119622.25744007
  -exchange      EXHF   =         0.00000000
  -V(xc)+E(xc)   XCENC  =       177.90243783
  PAW double counting   =     29473.11991041   -28551.82745803
  entropy T*S    EENTRO =        -0.02097424
  eigenvalues    EBANDS =      -854.02926972
  atomic energy  EATOM  =     27259.89416086
  Solvation  Ediel_sol  =         0.00000000
  ---------------------------------------------------
  free energy    TOTEN  =      -229.86507680 eV

  energy without entropy =     -229.84410255  energy(sigma->0) =     -229.85808538


--------------------------------------------------------------------------------------------------------




--------------------------------------- Iteration      1(  13)  ---------------------------------------


    POTLOK:  cpu time    0.1530: real time    0.1540
    SETDIJ:  cpu time    0.0121: real time    0.0121
    EDDIAG:  cpu time    2.2723: real time    2.2860
  RMM-DIIS:  cpu time    5.6337: real time    5.6694
    ORTHCH:  cpu time    0.3376: real time    0.3396
       DOS:  cpu time    0.0011: real time    0.0011
    CHARGE:  cpu time    0.4542: real time    0.4570
    MIXING:  cpu time    0.0045: real time    0.0046
    --------------------------------------------
      LOOP:  cpu time    8.8684: real time    8.9238

 eigenvalue-minimisations  :  1830
 total energy-change (2. order) :-0.2265194E-02  (-0.1183640E-01)
 number of electron     376.0000036 magnetization 
 augmentation part      113.0098086 magnetization 

 Broyden mixing:
  rms(total) = 0.17985E+00    rms(broyden)= 0.17984E+00
  rms(prec ) = 0.21786E+00
  weight for this iteration     100.00

 eigenvalues of (default mixing * dielectric matrix)
  average eigenvalue GAMMA=   0.7147
  2.2956  1.2430  0.7384  0.4907  0.3589  0.1037  0.2548  0.2322

 Free energy of the ion-electron system (eV)
  ---------------------------------------------------
  alpha Z        PSCENC =       975.10247152
  Ewald energy   TEWEN  =     90912.25108464
  -Hartree energ DENC   =   -119622.40439778
  -exchange      EXHF   =         0.00000000
  -V(xc)+E(xc)   XCENC  =       177.78918056
  PAW double counting   =     29799.04427009   -28881.63377426
  entropy T*S    EENTRO =        -0.01369509
  eigenvalues    EBANDS =      -849.89664253
  atomic energy  EATOM  =     27259.89416086
  Solvation  Ediel_sol  =         0.00000000
  ---------------------------------------------------
  free energy    TOTEN  =      -229.86734199 eV

  energy without entropy =     -229.85364690  energy(sigma->0) =     -229.86277696


--------------------------------------------------------------------------------------------------------




--------------------------------------- Iteration      1(  14)  ---------------------------------------


    POTLOK:  cpu time    0.1291: real time    0.1300
    SETDIJ:  cpu time    0.0159: real time    0.0160
    EDDIAG:  cpu time    1.6820: real time    1.6922
  RMM-DIIS:  cpu time    5.2656: real time    5.2988
    ORTHCH:  cpu time    0.3559: real time    0.3579
       DOS:  cpu time    0.0078: real time    0.0079
    CHARGE:  cpu time    0.6609: real time    0.6646
    MIXING:  cpu time    0.0049: real time    0.0049
    --------------------------------------------
      LOOP:  cpu time    8.1221: real time    8.1723

 eigenvalue-minimisations  :  1830
 total energy-change (2. order) : 0.4253431E-01  (-0.8396022E-02)
 number of electron     376.0000036 magnetization 
 augmentation part      112.9964506 magnetization 

 Broyden mixing:
  rms(total) = 0.77148E-01    rms(broyden)= 0.77117E-01
  rms(prec ) = 0.96407E-01
  weight for this iteration     100.00

 eigenvalues of (default mixing * dielectric matrix)
  average eigenvalue GAMMA=   0.7199
  2.4311  1.2452  0.7604  0.6634  0.5014  0.1037  0.2953  0.2277  0.2505

 Free energy of the ion-electron system (eV)
  ---------------------------------------------------
  alpha Z        PSCENC =       975.10247152
  Ewald energy   TEWEN  =     90912.25108464
  -Hartree energ DENC   =   -119624.05919567
  -exchange      EXHF   =         0.00000000
  -V(xc)+E(xc)   XCENC  =       177.71835060
  PAW double counting   =     29981.22321628   -29065.92531018
  entropy T*S    EENTRO =        -0.01689132
  eigenvalues    EBANDS =      -846.01269441
  atomic energy  EATOM  =     27259.89416086
  Solvation  Ediel_sol  =         0.00000000
  ---------------------------------------------------
  free energy    TOTEN  =      -229.82480768 eV

  energy without entropy =     -229.80791636  energy(sigma->0) =     -229.81917724


--------------------------------------------------------------------------------------------------------




--------------------------------------- Iteration      1(  15)  ---------------------------------------


    POTLOK:  cpu time    0.1603: real time    0.1614
    SETDIJ:  cpu time    0.0099: real time    0.0100
    EDDIAG:  cpu time    1.6011: real time    1.6109
  RMM-DIIS:  cpu time    5.1300: real time    5.1632
    ORTHCH:  cpu time    0.4074: real time    0.4096
       DOS:  cpu time    0.0011: real time    0.0011
    CHARGE:  cpu time    0.6447: real time    0.6485
    MIXING:  cpu time    0.0154: real time    0.0155
    --------------------------------------------
      LOOP:  cpu time    7.9699: real time    8.0203

 eigenvalue-minimisations  :  1831
 total energy-change (2. order) : 0.5042745E-02  (-0.2127350E-02)
 number of electron     376.0000036 magnetization 
 augmentation part      112.9893172 magnetization 

 Broyden mixing:
  rms(total) = 0.57765E-01    rms(broyden)= 0.57756E-01
  rms(prec ) = 0.70676E-01
  weight for this iteration     100.00

 eigenvalues of (default mixing * dielectric matrix)
  average eigenvalue GAMMA=   0.6956
  2.4560  1.2328  0.7889  0.7889  0.4870  0.1037  0.3535  0.2604  0.2604  0.2243

 Free energy of the ion-electron system (eV)
  ---------------------------------------------------
  alpha Z        PSCENC =       975.10247152
  Ewald energy   TEWEN  =     90912.25108464
  -Hartree energ DENC   =   -119625.60072930
  -exchange      EXHF   =         0.00000000
  -V(xc)+E(xc)   XCENC  =       177.71070228
  PAW double counting   =     30027.58402187   -29112.77695526
  entropy T*S    EENTRO =        -0.01426076
  eigenvalues    EBANDS =      -843.97026078
  atomic energy  EATOM  =     27259.89416086
  Solvation  Ediel_sol  =         0.00000000
  ---------------------------------------------------
  free energy    TOTEN  =      -229.81976493 eV

  energy without entropy =     -229.80550417  energy(sigma->0) =     -229.81501134


--------------------------------------------------------------------------------------------------------




--------------------------------------- Iteration      1(  16)  ---------------------------------------


    POTLOK:  cpu time    0.2484: real time    0.2499
    SETDIJ:  cpu time    0.0145: real time    0.0145
    EDDIAG:  cpu time    1.8047: real time    1.8193
  RMM-DIIS:  cpu time    4.8198: real time    4.8514
    ORTHCH:  cpu time    0.2732: real time    0.2748
       DOS:  cpu time    0.0010: real time    0.0010
    CHARGE:  cpu time    0.5236: real time    0.5267
    MIXING:  cpu time    0.0185: real time    0.0481
    --------------------------------------------
      LOOP:  cpu time    7.7036: real time    7.7857

 eigenvalue-minimisations  :  1830
 total energy-change (2. order) : 0.4863884E-02  (-0.5909037E-03)
 number of electron     376.0000036 magnetization 
 augmentation part      112.9947310 magnetization 

 Broyden mixing:
  rms(total) = 0.25057E-01    rms(broyden)= 0.25047E-01
  rms(prec ) = 0.30625E-01
  weight for this iteration     100.00

 eigenvalues of (default mixing * dielectric matrix)
  average eigenvalue GAMMA=   0.6870
  2.4673  1.2313  0.8496  0.8496  0.5131  0.5131  0.1037  0.3016  0.2618  0.2420
  0.2234

 Free energy of the ion-electron system (eV)
  ---------------------------------------------------
  alpha Z        PSCENC =       975.10247152
  Ewald energy   TEWEN  =     90912.25108464
  -Hartree energ DENC   =   -119626.27761464
  -exchange      EXHF   =         0.00000000
  -V(xc)+E(xc)   XCENC  =       177.71902901
  PAW double counting   =     30036.38074999   -29121.64789999
  entropy T*S    EENTRO =        -0.01614817
  eigenvalues    EBANDS =      -843.22073426
  atomic energy  EATOM  =     27259.89416086
  Solvation  Ediel_sol  =         0.00000000
  ---------------------------------------------------
  free energy    TOTEN  =      -229.81490105 eV

  energy without entropy =     -229.79875287  energy(sigma->0) =     -229.80951832


--------------------------------------------------------------------------------------------------------




--------------------------------------- Iteration      1(  17)  ---------------------------------------


    POTLOK:  cpu time    0.1991: real time    0.2032
    SETDIJ:  cpu time    0.0193: real time    0.0194
    EDDIAG:  cpu time    1.8114: real time    2.2153
  RMM-DIIS:  cpu time    5.3625: real time    5.7609
    ORTHCH:  cpu time    0.3739: real time    0.3761
       DOS:  cpu time    0.0011: real time    0.0011
    CHARGE:  cpu time    0.6972: real time    0.7012
    MIXING:  cpu time    0.0147: real time    0.0148
    --------------------------------------------
      LOOP:  cpu time    8.4791: real time    9.2919

 eigenvalue-minimisations  :  1812
 total energy-change (2. order) : 0.4446910E-03  (-0.1653062E-03)
 number of electron     376.0000036 magnetization 
 augmentation part      112.9928957 magnetization 

 Broyden mixing:
  rms(total) = 0.15824E-01    rms(broyden)= 0.15823E-01
  rms(prec ) = 0.19038E-01
  weight for this iteration     100.00

 eigenvalues of (default mixing * dielectric matrix)
  average eigenvalue GAMMA=   0.7422
  2.5133  1.2498  1.2498  1.2306  0.6690  0.5259  0.1037  0.3647  0.2902  0.2534
  0.2358  0.2198

 Free energy of the ion-electron system (eV)
  ---------------------------------------------------
  alpha Z        PSCENC =       975.10247152
  Ewald energy   TEWEN  =     90912.25108464
  -Hartree energ DENC   =   -119626.95385874
  -exchange      EXHF   =         0.00000000
  -V(xc)+E(xc)   XCENC  =       177.72147559
  PAW double counting   =     30039.36312128   -29124.63081090
  entropy T*S    EENTRO =        -0.01639964
  eigenvalues    EBANDS =      -842.54570097
  atomic energy  EATOM  =     27259.89416086
  Solvation  Ediel_sol  =         0.00000000
  ---------------------------------------------------
  free energy    TOTEN  =      -229.81445636 eV

  energy without entropy =     -229.79805671  energy(sigma->0) =     -229.80898981


--------------------------------------------------------------------------------------------------------




--------------------------------------- Iteration      1(  18)  ---------------------------------------


    POTLOK:  cpu time    0.2619: real time    0.2633
    SETDIJ:  cpu time    0.0271: real time    0.0273
    EDDIAG:  cpu time    2.0851: real time    2.0970
  RMM-DIIS:  cpu time    5.2704: real time    5.3076
    ORTHCH:  cpu time    0.5052: real time    0.5080
       DOS:  cpu time    0.0010: real time    0.0010
    CHARGE:  cpu time    0.7466: real time    0.7508
    MIXING:  cpu time    0.0094: real time    0.0094
    --------------------------------------------
      LOOP:  cpu time    8.9066: real time    8.9644

 eigenvalue-minimisations  :  1723
 total energy-change (2. order) :-0.1723164E-03  (-0.7377811E-04)
 number of electron     376.0000036 magnetization 
 augmentation part      112.9899531 magnetization 

 Broyden mixing:
  rms(total) = 0.96038E-02    rms(broyden)= 0.96024E-02
  rms(prec ) = 0.11803E-01
  weight for this iteration     100.00

 eigenvalues of (default mixing * dielectric matrix)
  average eigenvalue GAMMA=   0.7351
  2.5341  1.6337  1.1961  1.1127  0.6982  0.5054  0.4379  0.1037  0.3410  0.2867
  0.2520  0.2353  0.2198

 Free energy of the ion-electron system (eV)
  ---------------------------------------------------
  alpha Z        PSCENC =       975.10247152
  Ewald energy   TEWEN  =     90912.25108464
  -Hartree energ DENC   =   -119628.63003487
  -exchange      EXHF   =         0.00000000
  -V(xc)+E(xc)   XCENC  =       177.72686361
  PAW double counting   =     30043.63330996   -29128.86895033
  entropy T*S    EENTRO =        -0.01620428
  eigenvalues    EBANDS =      -840.90732978
  atomic energy  EATOM  =     27259.89416086
  Solvation  Ediel_sol  =         0.00000000
  ---------------------------------------------------
  free energy    TOTEN  =      -229.81462867 eV

  energy without entropy =     -229.79842439  energy(sigma->0) =     -229.80922724


--------------------------------------------------------------------------------------------------------




--------------------------------------- Iteration      1(  19)  ---------------------------------------


    POTLOK:  cpu time    0.1388: real time    0.1396
    SETDIJ:  cpu time    0.0135: real time    0.0136
    EDDIAG:  cpu time    1.6673: real time    1.6771
  RMM-DIIS:  cpu time    3.6261: real time    3.6487
    ORTHCH:  cpu time    0.2641: real time    0.2658
       DOS:  cpu time    0.0011: real time    0.0011
    --------------------------------------------
      LOOP:  cpu time    5.7108: real time    5.7458

 eigenvalue-minimisations  :  1120
 total energy-change (2. order) :-0.1087667E-04  (-0.2713248E-04)
 number of electron     376.0000036 magnetization 
 augmentation part      112.9899531 magnetization 

 Free energy of the ion-electron system (eV)
  ---------------------------------------------------
  alpha Z        PSCENC =       975.10247152
  Ewald energy   TEWEN  =     90912.25108464
  -Hartree energ DENC   =   -119629.23558519
  -exchange      EXHF   =         0.00000000
  -V(xc)+E(xc)   XCENC  =       177.73033140
  PAW double counting   =     30044.12623168   -29129.34366123
  entropy T*S    EENTRO =        -0.01616858
  eigenvalues    EBANDS =      -840.32350465
  atomic energy  EATOM  =     27259.89416086
  Solvation  Ediel_sol  =         0.00000000
  ---------------------------------------------------
  free energy    TOTEN  =      -229.81463955 eV

  energy without entropy =     -229.79847097  energy(sigma->0) =     -229.80925002


--------------------------------------------------------------------------------------------------------




 average (electrostatic) potential at core
  the test charge radii are     0.6991  0.7215  1.2059
  (the norm of the test charge is              1.0000)
       1 -56.2570       2 -74.6289       3 -76.3991       4 -72.3065       5 -72.3137
       6 -72.3064       7 -72.3188       8 -72.3206       9 -72.3049      10 -72.3073
      11 -72.3135      12 -72.3071      13 -72.8244      14 -73.0221      15 -72.9881
      16 -72.9611      17 -72.9499      18 -73.0338      19 -73.0148      20 -73.0012
      21 -72.9552      22 -72.9434      23 -72.9733      24 -72.9764      25 -72.9224
      26 -73.0149      27 -73.0155      28 -72.9453      29 -72.9099      30 -72.9719
      31 -72.1825      32 -72.2016      33 -72.3357      34 -72.2760      35 -72.5018
      36 -73.1359      37 -72.4936      38 -73.1449      39 -72.4458
 
 
 
 E-fermi :   1.1070     XC(G=0):  -6.6370     alpha+bet : -6.8913


 k-point     1 :       0.0000    0.0000    0.0000
  band No.  band energies     occupation 
      1     -22.2168      2.00000
      2     -16.8069      2.00000
      3      -8.2524      2.00000
      4      -8.0277      2.00000
      5      -6.7928      2.00000
      6      -5.9179      2.00000
      7      -5.7599      2.00000
      8      -5.7245      2.00000
      9      -5.6865      2.00000
     10      -5.6481      2.00000
     11      -5.6196      2.00000
     12      -5.5868      2.00000
     13      -5.5629      2.00000
     14      -5.5252      2.00000
     15      -5.3471      2.00000
     16      -5.1732      2.00000
     17      -5.1044      2.00000
     18      -5.0630      2.00000
     19      -5.0291      2.00000
     20      -5.0151      2.00000
     21      -4.9870      2.00000
     22      -4.9515      2.00000
     23      -4.6166      2.00000
     24      -4.5901      2.00000
     25      -4.5451      2.00000
     26      -4.5397      2.00000
     27      -4.5000      2.00000
     28      -4.4833      2.00000
     29      -4.3808      2.00000
     30      -4.3639      2.00000
     31      -4.3316      2.00000
     32      -4.2983      2.00000
     33      -4.2770      2.00000
     34      -4.2287      2.00000
     35      -4.1431      2.00000
     36      -4.1243      2.00000
     37      -4.1007      2.00000
     38      -4.0795      2.00000
     39      -4.0711      2.00000
     40      -4.0477      2.00000
     41      -4.0418      2.00000
     42      -4.0206      2.00000
     43      -4.0085      2.00000
     44      -3.9713      2.00000
     45      -3.9606      2.00000
     46      -3.9361      2.00000
     47      -3.5986      2.00000
     48      -3.5027      2.00000
     49      -3.4339      2.00000
     50      -3.4205      2.00000
     51      -3.4069      2.00000
     52      -3.3968      2.00000
     53      -3.3755      2.00000
     54      -3.3569      2.00000
     55      -3.3115      2.00000
     56      -3.2939      2.00000
     57      -3.2479      2.00000
     58      -3.1923      2.00000
     59      -3.1651      2.00000
     60      -3.0690      2.00000
     61      -2.9909      2.00000
     62      -2.8900      2.00000
     63      -2.8196      2.00000
     64      -2.6226      2.00000
     65      -2.5836      2.00000
     66      -2.5628      2.00000
     67      -2.5311      2.00000
     68      -2.4913      2.00000
     69      -2.4598      2.00000
     70      -2.4250      2.00000
     71      -2.4089      2.00000
     72      -2.3886      2.00000
     73      -2.3831      2.00000
     74      -2.3789      2.00000
     75      -2.3627      2.00000
     76      -2.3564      2.00000
     77      -2.3325      2.00000
     78      -2.3140      2.00000
     79      -2.3055      2.00000
     80      -2.3048      2.00000
     81      -2.2942      2.00000
     82      -2.2621      2.00000
     83      -2.2251      2.00000
     84      -2.2190      2.00000
     85      -2.1984      2.00000
     86      -2.1215      2.00000
     87      -2.1079      2.00000
     88      -2.0871      2.00000
     89      -2.0537      2.00000
     90      -2.0269      2.00000
     91      -1.9925      2.00000
     92      -1.9747      2.00000
     93      -1.9518      2.00000
     94      -1.9418      2.00000
     95      -1.9027      2.00000
     96      -1.8603      2.00000
     97      -1.8405      2.00000
     98      -1.7976      2.00000
     99      -1.7619      2.00000
    100      -1.7025      2.00000
    101      -1.6630      2.00000
    102      -1.6108      2.00000
    103      -1.6091      2.00000
    104      -1.5547      2.00000
    105      -1.5321      2.00000
    106      -1.5253      2.00000
    107      -1.5030      2.00000
    108      -1.4860      2.00000
    109      -1.4839      2.00000
    110      -1.4799      2.00000
    111      -1.4622      2.00000
    112      -1.4425      2.00000
    113      -1.3891      2.00000
    114      -1.2300      2.00000
    115      -1.1990      2.00000
    116      -1.1248      2.00000
    117      -1.0706      2.00000
    118      -0.9876      2.00000
    119      -0.9705      2.00000
    120      -0.9310      2.00000
    121      -0.9039      2.00000
    122      -0.8611      2.00000
    123      -0.8602      2.00000
    124      -0.8241      2.00000
    125      -0.8030      2.00000
    126      -0.7904      2.00000
    127      -0.7747      2.00000
    128      -0.7461      2.00000
    129      -0.6812      2.00000
    130      -0.6552      2.00000
    131      -0.6439      2.00000
    132      -0.6306      2.00000
    133      -0.5783      2.00000
    134      -0.5574      2.00000
    135      -0.4480      2.00000
    136      -0.4421      2.00000
    137      -0.3966      2.00000
    138      -0.3812      2.00000
    139      -0.3580      2.00000
    140      -0.3565      2.00000
    141      -0.2308      2.00000
    142      -0.2096      2.00000
    143      -0.1710      2.00000
    144      -0.1571      2.00000
    145      -0.1226      2.00000
    146      -0.0930      2.00000
    147      -0.0751      2.00000
    148      -0.0256      2.00000
    149       0.0463      2.00000
    150       0.0600      2.00000
    151       0.1141      2.00000
    152       0.1300      2.00000
    153       0.1359      2.00000
    154       0.1635      2.00000
    155       0.2059      2.00000
    156       0.2354      2.00000
    157       0.2459      2.00000
    158       0.2734      2.00000
    159       0.2957      2.00000
    160       0.3134      2.00000
    161       0.3265      2.00000
    162       0.3489      2.00000
    163       0.3548      2.00000
    164       0.3660      2.00000
    165       0.3794      2.00000
    166       0.4056      2.00001
    167       0.4493      2.00003
    168       0.4642      2.00005
    169       0.4700      2.00006
    170       0.5102      2.00020
    171       0.5278      2.00033
    172       0.5603      2.00077
    173       0.6104      2.00250
    174       0.6384      2.00454
    175       0.6660      2.00782
    176       0.6738      2.00903
    177       0.6909      2.01223
    178       0.6960      2.01335
    179       0.7159      2.01842
    180       0.7295      2.02262
    181       0.7644      2.03597
    182       0.7679      2.03751
    183       0.8071      2.05538
    184       0.8143      2.05851
    185       0.8254      2.06295
    186       0.8318      2.06523
    187       0.8355      2.06642
    188       0.8441      2.06873
    189       0.8494      2.06979
    190       0.8597      2.07088
    191       0.8634      2.07090
    192       0.8686      2.07056
    193       0.8796      2.06824
    194       0.9268      2.02314
    195       0.9666      1.92084
    196       1.0965      1.08824
    197       1.1065      1.00407
    198       1.1922      0.34586
    199       1.2078      0.25543
    200       1.2234      0.17636
    201       1.2459      0.08401
    202       1.2563      0.04963
    203       1.2650      0.02492
    204       1.3387     -0.06945
    205       1.4415     -0.03951
    206       1.9571     -0.00000
    207       2.0133     -0.00000
    208       2.0569     -0.00000
    209       2.0799     -0.00000
    210       2.1856     -0.00000
    211       2.4739     -0.00000
    212       3.4807     -0.00000
    213       3.9712     -0.00000
    214       4.3301     -0.00000
    215       4.3697     -0.00000
    216       4.3973     -0.00000
    217       4.5784     -0.00000
    218       4.7891     -0.00000
    219       5.2788     -0.00000
    220       5.6754     -0.00000
    221       5.8700     -0.00000
    222       5.9071     -0.00000
    223       5.9193     -0.00000
    224       5.9471     -0.00000
    225       5.9711     -0.00000
    226       6.0949     -0.00000
    227       6.5422     -0.00000
    228       6.7686      0.00000

 k-point     2 :       0.5000    0.0000    0.0000
  band No.  band energies     occupation 
      1     -22.2166      2.00000
      2     -16.8066      2.00000
      3      -8.1643      2.00000
      4      -7.2614      2.00000
      5      -7.2109      2.00000
      6      -6.1000      2.00000
      7      -5.9648      2.00000
      8      -5.8421      2.00000
      9      -5.7814      2.00000
     10      -5.6511      2.00000
     11      -5.4226      2.00000
     12      -5.4098      2.00000
     13      -5.2451      2.00000
     14      -5.2072      2.00000
     15      -4.8986      2.00000
     16      -4.8932      2.00000
     17      -4.8799      2.00000
     18      -4.8703      2.00000
     19      -4.8419      2.00000
     20      -4.8253      2.00000
     21      -4.7954      2.00000
     22      -4.7708      2.00000
     23      -4.7587      2.00000
     24      -4.7404      2.00000
     25      -4.7324      2.00000
     26      -4.7105      2.00000
     27      -4.6672      2.00000
     28      -4.6330      2.00000
     29      -4.6214      2.00000
     30      -4.4877      2.00000
     31      -4.3732      2.00000
     32      -4.3303      2.00000
     33      -4.3098      2.00000
     34      -4.3015      2.00000
     35      -4.2428      2.00000
     36      -4.0867      2.00000
     37      -4.0538      2.00000
     38      -3.9888      2.00000
     39      -3.9780      2.00000
     40      -3.9476      2.00000
     41      -3.9109      2.00000
     42      -3.8982      2.00000
     43      -3.8623      2.00000
     44      -3.7929      2.00000
     45      -3.7410      2.00000
     46      -3.6733      2.00000
     47      -3.6447      2.00000
     48      -3.6092      2.00000
     49      -3.5669      2.00000
     50      -3.5403      2.00000
     51      -3.4399      2.00000
     52      -3.4049      2.00000
     53      -3.3769      2.00000
     54      -3.3426      2.00000
     55      -3.3190      2.00000
     56      -3.2882      2.00000
     57      -3.2188      2.00000
     58      -3.1890      2.00000
     59      -3.1557      2.00000
     60      -3.1159      2.00000
     61      -3.0941      2.00000
     62      -3.0416      2.00000
     63      -3.0040      2.00000
     64      -2.9799      2.00000
     65      -2.9498      2.00000
     66      -2.9059      2.00000
     67      -2.8647      2.00000
     68      -2.8535      2.00000
     69      -2.7866      2.00000
     70      -2.7766      2.00000
[...]
     80      -2.4160      2.00000
     81      -2.3506      2.00000
     82      -2.3206      2.00000
     83      -2.2740      2.00000
     84      -2.2453      2.00000
     85      -2.2326      2.00000
     86      -2.2149      2.00000
     87      -2.1885      2.00000
     88      -2.1829      2.00000
     89      -2.1650      2.00000
     90      -2.1562      2.00000
     91      -2.1248      2.00000
     92      -2.1104      2.00000
     93      -2.0692      2.00000
     94      -2.0172      2.00000
     95      -1.9796      2.00000
     96      -1.9500      2.00000
     97      -1.9087      2.00000
     98      -1.8891      2.00000
     99      -1.8628      2.00000
    100      -1.8265      2.00000
    101      -1.7817      2.00000
    102      -1.7597      2.00000
    103      -1.7426      2.00000
    104      -1.7323      2.00000
    105      -1.7126      2.00000
    106      -1.6850      2.00000
    107      -1.6772      2.00000
    108      -1.6556      2.00000
    109      -1.6123      2.00000
    110      -1.5781      2.00000
    111      -1.5261      2.00000
    112      -1.4628      2.00000
    113      -1.4586      2.00000
    114      -1.3625      2.00000
    115      -1.3104      2.00000
    116      -1.2792      2.00000
    117      -1.2434      2.00000
    118      -1.1873      2.00000
    119      -1.1302      2.00000
    120      -1.1022      2.00000
    121      -1.0774      2.00000
    122      -1.0524      2.00000
    123      -1.0370      2.00000
    124      -1.0181      2.00000
    125      -0.9991      2.00000
    126      -0.9818      2.00000
    127      -0.9559      2.00000
    128      -0.9485      2.00000
    129      -0.9231      2.00000
    130      -0.9020      2.00000
    131      -0.8652      2.00000
    132      -0.8323      2.00000
    133      -0.7733      2.00000
    134      -0.7599      2.00000
    135      -0.7395      2.00000
    136      -0.7108      2.00000
    137      -0.7051      2.00000
    138      -0.6650      2.00000
    139      -0.5985      2.00000
    140      -0.5682      2.00000
    141      -0.5126      2.00000
    142      -0.4691      2.00000
    143      -0.4252      2.00000
    144      -0.3136      2.00000
    145      -0.2825      2.00000
    146      -0.2068      2.00000
    147      -0.1849      2.00000
    148      -0.1648      2.00000
    149      -0.1182      2.00000
    150      -0.0836      2.00000
    151      -0.0544      2.00000
    152       0.0122      2.00000
    153       0.0279      2.00000
    154       0.0607      2.00000
    155       0.0725      2.00000
    156       0.0906      2.00000
    157       0.0970      2.00000
    158       0.1511      2.00000
    159       0.1876      2.00000
    160       0.2095      2.00000
    161       0.2405      2.00000
    162       0.2717      2.00000
    163       0.3029      2.00000
    164       0.3403      2.00000
    165       0.3485      2.00000
    166       0.3731      2.00001
    167       0.5136      2.00053
    168       0.5741      2.00230
    169       0.5796      2.00259
    170       0.6094      2.00487
    171       0.6375      2.00841
    172       0.6616      2.01291
    173       0.6886      2.01994
    174       0.7679      2.05230
    175       0.7716      2.05403
    176       0.7979      2.06476
    177       0.8257      2.07081
    178       0.8463      2.06849
    179       0.8989      2.01485
    180       0.9039      2.00471
    181       0.9149      1.97905
    182       0.9859      1.67439
    183       1.0227      1.42240
    184       1.0716      1.02418
    185       1.0806      0.94818
    186       1.0939      0.83614
    187       1.1188      0.63527
    188       1.1329      0.52807
    189       1.1362      0.50424
    190       1.1559      0.37009
    191       1.2981     -0.06686
    192       1.3191     -0.07092
    193       1.3462     -0.06634
    194       1.3662     -0.05891
    195       1.4012     -0.04304
    196       1.5028     -0.00985
    197       1.6063     -0.00111
    198       1.6942     -0.00011
    199       1.8001     -0.00000
    200       1.9663     -0.00000
    201       2.2492     -0.00000
    202       2.3018     -0.00000
    203       2.7861     -0.00000
    204       2.9350     -0.00000
    205       2.9509     -0.00000
    206       2.9766     -0.00000
    207       2.9898     -0.00000
    208       3.2125     -0.00000
    209       3.3865     -0.00000
    210       3.5063     -0.00000
    211       3.5401     -0.00000
    212       3.5930     -0.00000
    213       3.7125     -0.00000
    214       3.7955     -0.00000
    215       3.9616     -0.00000
    216       4.1485     -0.00000
    217       4.2024     -0.00000
    218       4.3890     -0.00000
    219       4.4305     -0.00000
    220       4.5778     -0.00000
    221       4.6459     -0.00000
    222       4.8229     -0.00000
    223       5.1555     -0.00000
    224       5.4950     -0.00000
    225       6.0097     -0.00000
    226       6.5000     -0.00000
    227       6.5068     -0.00000
    228       6.5681      0.00000


--------------------------------------------------------------------------------------------------------


 soft charge-density along one line, spin component           1
         0         1         2         3         4         5         6         7         8         9
 total charge-density along one line
 
 pseudopotential strength for first ion, spin component:           1
 10.089   0.015   0.004   0.009   0.000  -0.004  -0.009   0.000
  0.015  -0.002  -0.000  -0.000  -0.000  -0.000  -0.000   0.000
  0.004  -0.000  -4.244  -0.006   0.001  -0.009  -0.002   0.000
  0.009  -0.000  -0.006  -4.257   0.004  -0.002  -0.015   0.001
  0.000  -0.000   0.001   0.004  -4.241   0.000   0.001  -0.008
 -0.004  -0.000  -0.009  -0.002   0.000  -0.770  -0.000   0.000
 -0.009  -0.000  -0.002  -0.015   0.001  -0.000  -0.770   0.000
  0.000   0.000   0.000   0.001  -0.008   0.000   0.000  -0.770
 total augmentation occupancy for first ion, spin component:           1
  1.624  -0.837   0.020   0.002  -0.062   0.037   0.080  -0.023
 -0.837   1.168  -0.221  -0.520   0.082  -0.087  -0.217   0.030
  0.020  -0.221   0.846   0.190  -0.001   0.114   0.055  -0.006
  0.002  -0.520   0.190   1.297  -0.003   0.055   0.239  -0.010
 -0.062   0.082  -0.001  -0.003   0.789  -0.007  -0.011   0.098
  0.037  -0.087   0.114   0.055  -0.007   0.020   0.022  -0.004
  0.080  -0.217   0.055   0.239  -0.011   0.022   0.067  -0.006
 -0.023   0.030  -0.006  -0.010   0.098  -0.004  -0.006   0.014


------------------------ aborting loop because EDIFF is reached ----------------------------------------


    CHARGE:  cpu time    0.6624: real time    0.7048
    FORLOC:  cpu time    0.0680: real time    0.0683
    FORNL :  cpu time    2.6974: real time    2.7146
    STRESS:  cpu time    7.7270: real time    7.7756
    FORCOR:  cpu time    0.2590: real time    0.2605
    FORHAR:  cpu time    0.1177: real time    0.1184
    MIXING:  cpu time    0.0070: real time    0.0070
    OFIELD:  cpu time    0.0000: real time    0.0000

  FORCE on cell =-STRESS in cart. coord.  units (eV):
  Direction    XX          YY          ZZ          XY          YZ          ZX
  --------------------------------------------------------------------------------------
  Alpha Z   975.10247   975.10247   975.10247
  Ewald  110713.74143110698.14898************  -198.38876   239.98325   -96.12979
  Hartree117471.02165117433.90320************  -132.80581   102.36232   -57.28723
  E(xc)   -1665.49986 -1665.29452 -1672.82792    -0.42566     0.70436    -0.25309
  Local  ************************238815.24664   322.75707  -319.78796   146.31055
  n-local   121.76498   120.81442    86.19830    -0.81927     0.55294     0.24158
  augment  1895.48537  1893.82453  1932.97279     2.01205    -3.75632     1.06410
  Kinetic  5522.68127  5513.31253  5599.33849     8.63159   -20.93066     7.71942
  Fock        0.00000     0.00000     0.00000     0.00000     0.00000     0.00000
  -------------------------------------------------------------------------------------
  Total     -38.02014   -40.38484    -6.80467     0.96121    -0.87207     1.66554
  in kB     -45.28261   -48.09901    -8.10447     1.14482    -1.03865     1.98369
  external pressure =      -33.83 kB  Pullay stress =        0.00 kB


 VOLUME and BASIS-vectors are now :
 -----------------------------------------------------------------------------
  energy-cutoff  :      450.00
  volume of cell :     1345.22
      direct lattice vectors                 reciprocal lattice vectors
     7.296955120 -4.212899000  0.000000000     0.137043463  0.000000000  0.000000000
     0.000000000  8.425798000  0.000000000     0.068521732  0.118683121  0.000000000
     0.000000000  0.000000000 21.879635000     0.000000000  0.000000000  0.045704602

  length of vectors
     8.425798004  8.425798000 21.879635000     0.137043463  0.137043463  0.045704602


 FORCES acting on ions
    electron-ion (+dipol)            ewald-force                    non-local-force                 convergence-correction
 -----------------------------------------------------------------------------------------------
   0.213E+02 0.222E+02 -.883E+03   -.222E+02 -.267E+02 0.872E+03   0.107E+01 0.348E+01 0.105E+02   -.108E-01 0.727E-02 0.193E-01
   -.881E+02 0.558E+02 -.159E+04   0.911E+02 -.534E+02 0.161E+04   -.260E+01 -.194E+01 -.228E+02   -.640E-02 -.482E-02 0.167E-01
   0.621E+02 -.110E+03 -.154E+04   -.699E+02 0.132E+03 0.159E+04   0.802E+01 -.224E+02 -.564E+02   -.692E-02 -.218E-02 -.229E-02
   -.593E+00 0.696E+00 0.234E+04   0.524E+00 -.656E+00 -.234E+04   0.298E-01 -.410E-01 -.121E+01   0.495E-01 -.347E-01 -.126E-01
   0.529E+00 0.213E+00 0.234E+04   -.529E+00 -.265E+00 -.233E+04   -.146E-01 -.400E-01 -.112E+01   -.151E-01 0.623E-01 -.531E-02
   0.407E+00 -.194E+00 0.234E+04   -.468E+00 0.119E+00 -.234E+04   0.207E-01 -.987E-03 -.114E+01   0.124E-01 0.536E-01 -.230E-01
   -.167E+00 -.305E+00 0.234E+04   0.222E+00 0.314E+00 -.234E+04   -.209E-02 0.308E-01 -.115E+01   -.293E-01 0.541E-02 -.158E-01
   0.156E+00 0.580E+00 0.234E+04   -.183E+00 -.510E+00 -.234E+04   0.870E-02 0.239E-01 -.126E+01   0.148E-01 -.825E-01 -.128E-01
   0.184E+00 0.277E-01 0.234E+04   -.173E+00 -.465E-01 -.234E+04   0.182E-01 0.101E-01 -.123E+01   -.210E-01 0.157E-01 0.115E-01
   0.581E+00 -.930E+00 0.234E+04   -.450E+00 0.773E+00 -.234E+04   -.751E-01 0.915E-01 -.113E+01   -.288E-01 0.201E-01 -.342E-01
   -.403E+00 0.203E+00 0.234E+04   0.369E+00 -.711E-01 -.234E+04   -.132E-01 -.250E-01 -.122E+01   0.433E-01 -.692E-01 -.146E-01
   -.633E+00 -.363E+00 0.234E+04   0.687E+00 0.341E+00 -.234E+04   -.130E-01 0.517E-02 -.102E+01   -.257E-01 0.293E-01 -.785E-04
   0.166E+01 -.358E+01 0.848E+03   -.172E+01 0.351E+01 -.848E+03   0.274E-01 0.869E-02 -.264E+00   -.427E-01 0.691E-01 -.891E-02
   0.177E+01 -.370E+01 0.860E+03   -.191E+01 0.373E+01 -.860E+03   0.752E-01 0.948E-01 -.247E+00   0.268E-01 -.808E-02 0.210E-01
   -.565E+01 0.114E+01 0.856E+03   0.573E+01 -.124E+01 -.856E+03   0.437E-01 0.103E+00 -.253E+00   0.210E-01 -.517E-01 -.464E-02
   -.604E+00 0.570E+01 0.855E+03   0.578E+00 -.576E+01 -.855E+03   -.983E-02 0.115E-01 -.174E+00   0.361E-01 -.331E-01 -.371E-01
   0.485E+01 -.162E+00 0.857E+03   -.496E+01 0.884E-01 -.857E+03   0.408E-01 0.998E-02 -.253E+00   -.801E-02 0.839E-01 -.387E-02
   -.158E+01 0.170E+01 0.862E+03   0.156E+01 -.172E+01 -.861E+03   0.252E-01 -.249E-02 -.332E+00   0.736E-02 0.107E-01 -.146E-01
   0.276E+01 -.212E+01 0.859E+03   -.271E+01 0.227E+01 -.859E+03   -.143E+00 -.586E-01 -.318E+00   -.149E-01 -.360E-01 -.612E-02
   -.553E+00 0.431E+01 0.860E+03   0.506E+00 -.420E+01 -.860E+03   0.520E-01 -.968E-01 -.365E+00   0.355E-01 -.758E-01 0.815E-02
   -.218E+01 -.294E+01 0.859E+03   0.234E+01 0.307E+01 -.859E+03   -.140E-01 -.460E-01 -.331E+00   -.614E-01 0.411E-01 0.442E-02
   -.285E+01 0.155E+01 -.636E+03   0.275E+01 -.165E+01 0.636E+03   0.142E-01 0.131E+00 0.534E+00   0.453E-01 -.295E-01 0.112E-01
   0.177E+01 -.145E+01 -.619E+03   -.184E+01 0.155E+01 0.618E+03   -.772E-02 0.598E-02 0.640E+00   0.592E-01 -.702E-01 0.747E-01
   -.134E+01 0.171E+01 -.638E+03   0.114E+01 -.133E+01 0.638E+03   0.239E+00 -.287E+00 0.453E+00   -.393E-02 -.714E-01 0.230E-01
   -.565E+01 0.137E+02 -.655E+03   0.523E+01 -.129E+02 0.656E+03   0.411E+00 -.757E+00 -.556E+00   -.404E-02 -.179E-01 0.123E-01
   0.118E+02 0.140E+01 -.637E+03   -.112E+02 -.148E+01 0.637E+03   -.515E+00 -.400E-01 -.493E-01   -.150E-01 0.502E-01 -.110E-01
   -.745E+01 -.140E+02 -.639E+03   0.736E+01 0.138E+02 0.639E+03   0.226E+00 0.185E+00 0.120E+00   -.595E-01 0.463E-01 -.456E-03
   -.513E+01 -.240E+01 -.633E+03   0.523E+01 0.247E+01 0.633E+03   -.438E-01 -.905E-01 0.277E+00   -.249E-01 -.126E-01 0.274E-01
   0.407E+01 0.907E+00 -.641E+03   -.414E+01 -.982E+00 0.641E+03   0.335E-02 0.346E-01 0.354E-01   0.334E-01 0.215E-01 0.115E-01
   0.259E+01 0.416E+00 -.621E+03   -.258E+01 -.723E+00 0.621E+03   -.604E-01 0.202E+00 0.442E+00   -.328E-01 0.840E-01 -.339E-01
   -.301E+02 -.742E+01 -.216E+04   0.304E+02 0.765E+01 0.215E+04   -.327E+00 -.241E+00 0.135E+01   0.760E-01 -.108E-01 -.418E-02
   0.219E+02 0.311E+02 -.213E+04   -.222E+02 -.316E+02 0.213E+04   0.308E+00 0.610E+00 0.137E+01   -.818E-02 -.642E-01 -.699E-02
   0.324E+02 -.770E+01 -.215E+04   -.327E+02 0.758E+01 0.215E+04   0.165E+00 0.162E+00 0.113E+01   -.159E-02 0.399E-01 0.240E-01
   -.614E+01 0.456E+01 -.219E+04   0.618E+01 -.478E+01 0.219E+04   -.538E-01 0.149E+00 0.999E+00   -.499E-01 0.301E-01 0.120E-02
   0.109E+02 0.961E+01 -.215E+04   -.110E+02 -.994E+01 0.214E+04   0.122E+00 0.457E+00 0.120E+01   0.280E-01 -.340E-01 0.366E-01
   0.774E+02 0.567E+02 -.197E+04   -.798E+02 -.549E+02 0.197E+04   0.209E+01 -.160E+01 -.339E+01   0.694E-03 -.448E-02 0.804E-01
   -.590E+02 -.607E+02 -.208E+04   0.603E+02 0.629E+02 0.208E+04   -.125E+01 -.215E+01 0.210E+01   -.522E-02 0.248E-01 0.360E-01
   -.651E+02 0.951E+02 -.203E+04   0.651E+02 -.955E+02 0.203E+04   -.148E+00 0.524E+00 -.885E+00   0.754E-02 -.543E-01 0.445E-02
   0.169E+02 -.669E+02 -.210E+04   -.167E+02 0.678E+02 0.210E+04   -.283E+00 -.740E+00 0.145E+01   -.225E-01 0.615E-01 0.915E-03
 -----------------------------------------------------------------------------------------------
   -.738E+01 0.243E+02 0.743E+02   0.497E-13 -.711E-13 0.455E-12   0.745E+01 -.242E+02 -.744E+02   -.152E-02 -.108E-01 0.172E+00
 
 
 POSITION                                       TOTAL-FORCE (eV/Angst)
 -----------------------------------------------------------------------------------
      5.09956      0.58410     10.42084         0.148921     -1.040737     -0.313785
      6.65959     -0.53959     10.23700         0.448079      0.459215      0.192976
      4.95238      1.01360     11.49547         0.131175     -0.026414     -0.216751
      7.20031     -1.38846      1.62732         0.009360     -0.038906      0.131143
      2.33567      1.42014      1.62732        -0.031374     -0.033193      0.159605
      4.76799      0.01584      1.62732        -0.030212     -0.024869      0.122100
      7.20031      1.42015      1.62732         0.022072      0.041866      0.141333
      2.33567      4.22875      1.62732        -0.005378      0.008832      0.118339
      4.76799      2.82445      1.62732         0.006169      0.003797      0.146047
      2.33567      7.03734      1.62732         0.024808     -0.048810      0.038174
      4.76799      5.63304      1.62732        -0.006085      0.034669      0.107577
      7.20031      4.22874      1.62732         0.013760      0.009264      0.079924
      1.52490      0.01584      3.92052        -0.077044      0.004003      0.028658
      3.95722     -1.38846      3.92052        -0.040695      0.112638     -0.119888
      6.38953     -2.79276      3.92052         0.146434     -0.054840     -0.043243
      1.52490      2.82445      3.92052        -0.001227     -0.083759      0.049792
      3.95722      1.42015      3.92052        -0.076722      0.016888      0.013253
      6.38953      0.01585      3.92052         0.014892     -0.011556     -0.006029
      1.52490      5.63305      3.92052        -0.106588      0.054716     -0.135267
      3.95722      4.22874      3.92052         0.038391     -0.067380     -0.120904
      6.38953      2.82445      3.92052         0.083433      0.123135     -0.152132
      0.71285      4.20948      6.20457        -0.048570     -0.003746      0.090530
      3.14193      5.62384      6.16396        -0.012893      0.033672      0.161132
      5.56244     -1.37825      6.19885         0.032122      0.019940      0.284324
      0.69188      1.44755      6.24514        -0.015158     -0.000219      0.038831
      3.14470      0.02052      6.21634         0.043908     -0.073361     -0.071895
      0.69375      7.02665      6.21477         0.076002      0.031522     -0.160294
      5.58538      4.23378      6.19763         0.021069     -0.041845     -0.105254
      3.14922      2.81473      6.21849        -0.034427     -0.022444     -0.175243
      5.58898      1.40853      6.18877        -0.084800     -0.024226      0.110666
      2.35656      4.21806      8.48024         0.072453     -0.024467     -0.116518
      4.75946      5.60894      8.45928        -0.034670      0.068021     -0.071594
      2.33721      1.39563      8.52312        -0.137853      0.078156     -0.233460
      7.21719      4.21074      8.54291        -0.059035     -0.043645     -0.177654
      2.33585      6.99647      8.45749         0.024797      0.092750      0.169306
      4.69324      0.06109      8.60970        -0.384327      0.181373      0.015952
      7.24851      1.43000      8.51134         0.043161      0.046246     -0.202737
      7.22016     -1.45823      8.59963        -0.107000      0.021454      0.237105
      4.80456      2.83663      8.46036        -0.106947      0.222259     -0.014119
 -----------------------------------------------------------------------------------
    total drift:                                0.064640      0.126710      0.017363
  FORCES: max atom, RMS     1.097165    0.252677
  Number: max atom                 1
  FORCE total and by dimension    1.577968    1.040737


--------------------------------------------------------------------------------------------------------



  FREE ENERGIE OF THE ION-ELECTRON SYSTEM (eV)
  ---------------------------------------------------
  free  energy   TOTEN  =      -230.73701211 eV

  energy  without entropy=     -230.72365748  energy(sigma->0) =     -230.73256057
 
 d Force = 0.3405054E-01[ 0.111E-01, 0.570E-01]  d Energy = 0.3400651E-01 0.440E-04
 d Force =-0.3369909E+02[-0.339E+02,-0.335E+02]  d Ewald  =-0.3370033E+02 0.123E-02


--------------------------------------------------------------------------------------------------------


    POTLOK:  cpu time    0.1504: real time    0.3026


--------------------------------------------------------------------------------------------------------


 stress matrix after NEB project (eV)
    -38.02014      0.96121      1.66554
      0.96121    -40.38484     -0.87207
      1.66554     -0.87207     -6.80467
  FORCES: max atom, RMS     1.097165    0.252677
  FORCE total and by dimension    1.577968    1.040737
  Stress total and by dimension   55.961473   40.384840
 Quasi-Newton relaxation of ions (Broydens 2nd method)
  g(Force)  = 0.480E-01   g(Stress)= 0.000E+00

 retain information from N=  3 steps
 eigenvalues of (default step * inverse Hessian matrix)
  average eigenvalue of G=   3.5672
 eigenvalue spectrum of G is  0.3556  2.8882  7.4580
  RESET_HESSIAN           0


--------------------------------------------------------------------------------------------------------


    WAVPRE:  cpu time    0.0798: real time    0.2701
    FEWALD:  cpu time    0.0008: real time    0.0306

 real space projection operators:
  total allocation   :      13547.78 KBytes
  max/ min on nodes  :       6779.80       6767.98

