 running on    8 total cores
 distrk:  each k-point on    8 cores,    1 groups
 distr:  one band on    2 cores,    4 groups
 using from now: INCAR     
 vasp.5.4.4 16052018 (build Apr 24 2014 20:13:14) complex standard
 Contain Constrained Minimization Technique (TS), Periodic NBO, VASPsol, libbeef, VASP2WANNIER90, Constrained Cell Relaxation
 POSCAR found type information on POSCAR  C  O  Pt
 POSCAR found :  3 types and      39 ions
 scaLAPACK will be used
 LDA part: xc-table for Pade appr. of Perdew
 POSCAR found type information on POSCAR  C  O  Pt
 POSCAR found :  3 types and      39 ions
 POSCAR, INCAR and KPOINTS ok, starting setup
 FFT: planning ...
 WAVECAR not read
 entering main loop
       N       E                     dE             d eps       ncg     rms          rms(c)
DAV:   1     0.241711268937E+04    0.24171E+04   -0.15945E+05  1824   0.129E+03
DAV:   2    -0.641657839676E+02   -0.24813E+04   -0.23054E+04  2120   0.286E+02
DAV:   3    -0.240115795611E+03   -0.17595E+03   -0.15975E+03  2168   0.688E+01
DAV:   4    -0.247829179539E+03   -0.77134E+01   -0.74448E+01  2336   0.136E+01
DAV:   5    -0.248052252472E+03   -0.22307E+00   -0.22079E+00  2420   0.240E+00    0.271E+01
RMM:   6    -0.245140077155E+03    0.29122E+01   -0.53891E+01  1832   0.148E+01    0.283E+01
RMM:   7    -0.237283432297E+03    0.78566E+01   -0.31312E+01  1830   0.881E+00    0.177E+01
RMM:   8    -0.232102470682E+03    0.51810E+01   -0.71980E+00  1830   0.472E+00    0.101E+01
RMM:   9    -0.231674453100E+03    0.42802E+00   -0.19723E+00  1831   0.228E+00    0.974E+00
RMM:  10    -0.230200706818E+03    0.14737E+01   -0.47963E-01  1831   0.107E+00    0.400E+00
RMM:  11    -0.229983843044E+03    0.21686E+00   -0.37397E-01  1830   0.957E-01    0.299E+00
RMM:  12    -0.229865076796E+03    0.11877E+00   -0.14663E-01  1830   0.621E-01    0.177E+00
RMM:  13    -0.229867341990E+03   -0.22652E-02   -0.11836E-01  1830   0.587E-01    0.180E+00
RMM:  14    -0.229824807676E+03    0.42534E-01   -0.83960E-02  1830   0.502E-01    0.771E-01
RMM:  15    -0.229819764931E+03    0.50427E-02   -0.21273E-02  1831   0.247E-01    0.578E-01
RMM:  16    -0.229814901047E+03    0.48639E-02   -0.59090E-03  1830   0.132E-01    0.251E-01
RMM:  17    -0.229814456356E+03    0.44469E-03   -0.16531E-03  1812   0.689E-02    0.158E-01
RMM:  18    -0.229814628672E+03   -0.17232E-03   -0.73778E-04  1723   0.482E-02    0.960E-02
RMM:  19    -0.229814639549E+03   -0.10877E-04   -0.27132E-04  1120   0.298E-02
   1 F= -.22981464E+03 E0= -.22980925E+03  d E =-.229815E+03
 BRION: g(F)=  0.429E+00 g(S)=  0.000E+00
 bond charge predicted
       N       E                     dE             d eps       ncg     rms          rms(c)
DAV:   1    -0.230103723935E+03   -0.28910E+00   -0.38987E+01  1856   0.114E+01    0.979E-01
RMM:   2    -0.230172279127E+03   -0.68555E-01   -0.72227E-01  1836   0.178E+00    0.103E+00
RMM:   3    -0.230190449741E+03   -0.18171E-01   -0.53602E-02  1866   0.404E-01    0.156E+00
RMM:   4    -0.230159685587E+03    0.30764E-01   -0.13928E-02  1852   0.196E-01    0.624E-01
RMM:   5    -0.230156438539E+03    0.32470E-02   -0.10002E-02  1837   0.168E-01    0.470E-01
RMM:   6    -0.230155807745E+03    0.63079E-03   -0.93027E-03  1830   0.164E-01    0.428E-01
RMM:   7    -0.230154198120E+03    0.16096E-02   -0.45951E-03  1828   0.113E-01    0.254E-01
RMM:   8    -0.230153523166E+03    0.67495E-03   -0.15149E-03  1822   0.666E-02    0.132E-01
RMM:   9    -0.230153425007E+03    0.98159E-04   -0.42855E-04  1392   0.362E-02
   2 F= -.23015343E+03 E0= -.23014844E+03  d E =-.338785E+00
 BRION: g(F)=  0.397E+00 g(S)=  0.000E+00 retain N=  1 mean eig= 0.82
 eig:   0.816
 bond charge predicted
       N       E                     dE             d eps       ncg     rms          rms(c)
DAV:   1    -0.230264284360E+03   -0.11076E+00   -0.12491E+01  1848   0.668E+00    0.597E-01
RMM:   2    -0.230306398582E+03   -0.42114E-01   -0.43434E-01  1847   0.106E+00    0.615E-01
RMM:   3    -0.230307175031E+03   -0.77645E-03   -0.18307E-02  1852   0.218E-01    0.806E-01
RMM:   4    -0.230298705989E+03    0.84690E-02   -0.51007E-03  1845   0.116E-01    0.410E-01
RMM:   5    -0.230297821082E+03    0.88491E-03   -0.61843E-03  1830   0.128E-01    0.376E-01
RMM:   6    -0.230297108828E+03    0.71225E-03   -0.49048E-03  1830   0.115E-01    0.315E-01
RMM:   7    -0.230295798006E+03    0.13108E-02   -0.20568E-03  1825   0.763E-02    0.137E-01
RMM:   8    -0.230295639976E+03    0.15803E-03   -0.40138E-04  1259   0.352E-02    0.833E-02
RMM:   9    -0.230295580661E+03    0.59315E-04   -0.14302E-04  1006   0.230E-02
   3 F= -.23029558E+03 E0= -.23029037E+03  d E =-.142156E+00
 BRION: g(F)=  0.311E+00 g(S)=  0.000E+00 retain N=  2 mean eig= 1.14
 eig:   0.218  2.064
 bond charge predicted
       N       E                     dE             d eps       ncg     rms          rms(c)
DAV:   1    -0.230430454160E+03   -0.13481E+00   -0.18741E+02  1824   0.254E+01    0.215E+00
RMM:   2    -0.230856933553E+03   -0.42648E+00   -0.36320E+00  1838   0.391E+00    0.298E+00
RMM:   3    -0.230873441549E+03   -0.16508E-01   -0.27672E-01  1872   0.891E-01    0.320E+00
RMM:   4    -0.230726851193E+03    0.14659E+00   -0.92235E-02  1843   0.518E-01    0.126E+00
RMM:   5    -0.230714555673E+03    0.12296E-01   -0.40901E-02  1836   0.341E-01    0.990E-01
RMM:   6    -0.230712699706E+03    0.18560E-02   -0.37940E-02  1834   0.325E-01    0.870E-01
RMM:   7    -0.230706748500E+03    0.59512E-02   -0.19242E-02  1833   0.233E-01    0.500E-01
RMM:   8    -0.230704016194E+03    0.27323E-02   -0.63553E-03  1833   0.135E-01    0.249E-01
RMM:   9    -0.230703264021E+03    0.75217E-03   -0.15597E-03  1827   0.682E-02    0.139E-01
RMM:  10    -0.230702989598E+03    0.27442E-03   -0.54283E-04  1631   0.402E-02    0.671E-02
RMM:  11    -0.230703005600E+03   -0.16003E-04   -0.23363E-04  1030   0.274E-02
   4 F= -.23070301E+03 E0= -.23069772E+03  d E =-.407425E+00
 BRION: g(F)=  0.105E+00 g(S)=  0.000E+00 retain N=  3 mean eig= 3.53
 eig:   4.625  4.625  1.351
 bond charge predicted
       N       E                     dE             d eps       ncg     rms          rms(c)
DAV:   1    -0.230727479075E+03   -0.24489E-01   -0.62062E+00  1824   0.441E+00    0.382E-01
RMM:   2    -0.230739416219E+03   -0.11937E-01   -0.12779E-01  1835   0.715E-01    0.402E-01
RMM:   3    -0.230738604974E+03    0.81124E-03   -0.94031E-03  1847   0.170E-01    0.358E-01
RMM:   4    -0.230738896167E+03   -0.29119E-03   -0.17661E-03  1857   0.700E-02    0.356E-01
RMM:   5    -0.230737560223E+03    0.13359E-02   -0.10652E-03  1813   0.539E-02    0.209E-01
RMM:   6    -0.230737216443E+03    0.34378E-03   -0.13974E-03  1811   0.623E-02    0.130E-01
RMM:   7    -0.230737165088E+03    0.51355E-04   -0.68149E-04  1687   0.443E-02    0.100E-01
RMM:   8    -0.230737022648E+03    0.14244E-03   -0.22515E-04  1034   0.279E-02    0.430E-02
RMM:   9    -0.230737012112E+03    0.10536E-04   -0.63630E-05   958   0.153E-02
   5 F= -.23073701E+03 E0= -.23073256E+03  d E =-.340065E-01
 BRION: g(F)=  0.480E-01 g(S)=  0.000E+00 retain N=  3 mean eig= 3.57
 eig:   0.356  2.888  7.458
 bond charge predicted
[mpiexec@node09] Sending Ctrl-C to processes as requested
[mpiexec@node09] Press Ctrl-C again to force abort
