       N       E                     dE             d eps       ncg     rms          rms(c)
DAV:   1     0.241573120765E+04    0.24157E+04   -0.15947E+05  1824   0.129E+03
DAV:   2    -0.615526777025E+02   -0.24773E+04   -0.22998E+04  2104   0.286E+02
DAV:   3    -0.240547812739E+03   -0.17900E+03   -0.16255E+03  2176   0.690E+01
DAV:   4    -0.248327622760E+03   -0.77798E+01   -0.74866E+01  2336   0.137E+01
DAV:   5    -0.248559770868E+03   -0.23215E+00   -0.22999E+00  2408   0.241E+00    0.275E+01
RMM:   6    -0.247710975217E+03    0.84880E+00   -0.55681E+01  1831   0.149E+01    0.304E+01
RMM:   7    -0.242865604940E+03    0.48454E+01   -0.34095E+01  1827   0.910E+00    0.200E+01
RMM:   8    -0.244059056618E+03   -0.11935E+01   -0.95139E+00  1831   0.472E+00    0.232E+01
RMM:   9    -0.231212947571E+03    0.12846E+02   -0.50691E+00  1831   0.374E+00    0.749E+00
RMM:  10    -0.230344043627E+03    0.86890E+00   -0.11886E+00  1831   0.176E+00    0.447E+00
RMM:  11    -0.230087516606E+03    0.25653E+00   -0.35607E-01  1832   0.935E-01    0.288E+00
RMM:  12    -0.229986797621E+03    0.10072E+00   -0.16793E-01  1846   0.642E-01    0.188E+00
RMM:  13    -0.229978906587E+03    0.78910E-02   -0.11371E-01  1831   0.594E-01    0.161E+00
RMM:  14    -0.229953232070E+03    0.25675E-01   -0.84562E-02  1832   0.506E-01    0.104E+00
RMM:  15    -0.229942484421E+03    0.10748E-01   -0.24040E-02  1831   0.257E-01    0.588E-01
RMM:  16    -0.229936869995E+03    0.56144E-02   -0.57490E-03  1828   0.131E-01    0.172E-01
RMM:  17    -0.229937211542E+03   -0.34155E-03   -0.15233E-03  1818   0.646E-02    0.179E-01
RMM:  18    -0.229937372298E+03   -0.16076E-03   -0.90082E-04  1798   0.521E-02    0.116E-01
RMM:  19    -0.229937327185E+03    0.45112E-04   -0.26743E-04  1116   0.294E-02
   1 F= -.22993733E+03 E0= -.22992973E+03  d E =-.229937E+03
       N       E                     dE             d eps       ncg     rms          rms(c)
DAV:   1    -0.230180079681E+03   -0.24271E+00   -0.35845E+01  1840   0.109E+01    0.696E-01
RMM:   2    -0.230287817866E+03   -0.10774E+00   -0.62591E-01  1833   0.171E+00    0.191E+00
RMM:   3    -0.230242348440E+03    0.45469E-01   -0.43301E-02  1870   0.366E-01    0.838E-01
RMM:   4    -0.230233381392E+03    0.89670E-02   -0.12150E-02  1839   0.189E-01    0.500E-01
RMM:   5    -0.230230660476E+03    0.27209E-02   -0.41032E-03  1832   0.107E-01    0.390E-01
RMM:   6    -0.230229979746E+03    0.68073E-03   -0.59351E-03  1829   0.129E-01    0.291E-01
RMM:   7    -0.230229274542E+03    0.70520E-03   -0.45109E-03  1829   0.116E-01    0.171E-01
RMM:   8    -0.230228889198E+03    0.38534E-03   -0.99694E-04  1812   0.550E-02    0.830E-02
RMM:   9    -0.230228856545E+03    0.32653E-04   -0.20360E-04  1012   0.262E-02
   2 F= -.23022886E+03 E0= -.23022203E+03  d E =-.291529E+00
       N       E                     dE             d eps       ncg     rms          rms(c)
DAV:   1    -0.230311473920E+03   -0.82585E-01   -0.14218E+01  1832   0.714E+00    0.589E-01
RMM:   2    -0.230372123347E+03   -0.60649E-01   -0.44568E-01  1848   0.119E+00    0.128E+00
RMM:   3    -0.230351078476E+03    0.21045E-01   -0.19859E-02  1848   0.244E-01    0.665E-01
RMM:   4    -0.230345644385E+03    0.54341E-02   -0.59352E-03  1838   0.133E-01    0.425E-01
RMM:   5    -0.230344552887E+03    0.10915E-02   -0.43853E-03  1835   0.107E-01    0.429E-01
RMM:   6    -0.230343214332E+03    0.13386E-02   -0.72453E-03  1829   0.139E-01    0.320E-01
RMM:   7    -0.230341803980E+03    0.14104E-02   -0.27393E-03  1825   0.878E-02    0.131E-01
RMM:   8    -0.230341542561E+03    0.26142E-03   -0.57509E-04  1575   0.416E-02    0.681E-02
RMM:   9    -0.230341499083E+03    0.43478E-04   -0.13851E-04   999   0.223E-02
   3 F= -.23034150E+03 E0= -.23033507E+03  d E =-.112643E+00
       N       E                     dE             d eps       ncg     rms          rms(c)
DAV:   1    -0.230484972708E+03   -0.14343E+00   -0.12115E+02  1824   0.202E+01    0.138E+00
RMM:   2    -0.231054892797E+03   -0.56992E+00   -0.21872E+00  1832   0.316E+00    0.493E+00
RMM:   3    -0.230694527126E+03    0.36037E+00   -0.17398E-01  1852   0.725E-01    0.150E+00
RMM:   4    -0.230662173789E+03    0.32353E-01   -0.46815E-02  1839   0.369E-01    0.914E-01
RMM:   5    -0.230653938582E+03    0.82352E-02   -0.14826E-02  1835   0.203E-01    0.723E-01
RMM:   6    -0.230651269000E+03    0.26696E-02   -0.18922E-02  1832   0.229E-01    0.510E-01
RMM:   7    -0.230649572861E+03    0.16961E-02   -0.15515E-02  1833   0.213E-01    0.369E-01
RMM:   8    -0.230647471121E+03    0.21017E-02   -0.36409E-03  1832   0.104E-01    0.153E-01
RMM:   9    -0.230647141507E+03    0.32961E-03   -0.73206E-04  1760   0.473E-02    0.897E-02
RMM:  10    -0.230647003822E+03    0.13769E-03   -0.31752E-04  1066   0.314E-02    0.523E-02
RMM:  11    -0.230646976725E+03    0.27097E-04   -0.15734E-04   974   0.239E-02
   4 F= -.23064698E+03 E0= -.23064126E+03  d E =-.305478E+00
       N       E                     dE             d eps       ncg     rms          rms(c)
DAV:   1    -0.230688044152E+03   -0.41040E-01   -0.51489E+00  1832   0.453E+00    0.331E-01
RMM:   2    -0.230699834118E+03   -0.11790E-01   -0.11317E-01  1841   0.652E-01    0.390E-01
RMM:   3    -0.230698598684E+03    0.12354E-02   -0.72706E-03  1854   0.150E-01    0.294E-01
RMM:   4    -0.230697873927E+03    0.72476E-03   -0.13357E-03  1833   0.631E-02    0.187E-01
RMM:   5    -0.230698130311E+03   -0.25638E-03   -0.41855E-04  1339   0.344E-02    0.236E-01
RMM:   6    -0.230697574337E+03    0.55597E-03   -0.53606E-04  1498   0.389E-02    0.113E-01
RMM:   7    -0.230697527671E+03    0.46666E-04   -0.64945E-04  1684   0.454E-02    0.782E-02
RMM:   8    -0.230697432738E+03    0.94933E-04   -0.15598E-04   984   0.235E-02
   5 F= -.23069743E+03 E0= -.23069213E+03  d E =-.504560E-01
