metal                                   
           1
     7.296955   -4.212899    0.000000
     0.000000    8.425798    0.000000
     0.000000    0.000000   21.879635
   C    O    Pt
   1   2  36
Direct configuration=     1
   0.70415165  0.43794029  0.47647636
   0.90866140  0.38812256  0.46801994
   0.67601510  0.46479617  0.52636489
   0.98675500  0.32859100  0.07437600
   0.32008800  0.32859100  0.07437600
   0.65342200  0.32859100  0.07437600
   0.98675500  0.66192500  0.07437600
   0.32008800  0.66192500  0.07437600
   0.65342200  0.66192500  0.07437600
   0.32008800  0.99525800  0.07437600
   0.65342200  0.99525800  0.07437600
   0.98675500  0.99525800  0.07437600
   0.20897700  0.10636900  0.17918600
   0.54231100  0.10636900  0.17918600
   0.87564400  0.10636900  0.17918600
   0.20897700  0.43970300  0.17918600
   0.54231100  0.43970300  0.17918600
   0.87564400  0.43970300  0.17918600
   0.20897700  0.77303600  0.17918600
   0.54231100  0.77303600  0.17918600
   0.87564400  0.77303600  0.17918600
   0.09514239  0.55036428  0.28389886
   0.43360218  0.88525670  0.27741643
   0.76215802  0.21270376  0.28634984
   0.09769395  0.21893240  0.28720008
   0.42990833  0.22208929  0.28842386
   0.09392262  0.88526337  0.28253900
   0.76600485  0.88338662  0.28011889
   0.43313480  0.55160092  0.27888073
   0.76761614  0.54493799  0.28053892
   0.32183424  0.66373841  0.38704048
   0.65384121  0.99363000  0.39055159
   0.32220656  0.32626145  0.39034043
   0.98505868  0.98872947  0.38353884
   0.32565702  0.99431082  0.39274203
   0.64278140  0.32198515  0.39684425
   0.99821192  0.66675919  0.39168124
   0.99450246  0.31921263  0.38970893
   0.65534719  0.66489706  0.39027847
Direct configuration=     2
   0.70333450  0.43481834  0.47591858
   0.91020313  0.38928599  0.46735879
   0.67687926  0.46581668  0.52646752
   0.98675500  0.32859100  0.07437600
   0.32008800  0.32859100  0.07437600
   0.65342200  0.32859100  0.07437600
   0.98675500  0.66192500  0.07437600
   0.32008800  0.66192500  0.07437600
   0.65342200  0.66192500  0.07437600
   0.32008800  0.99525800  0.07437600
   0.65342200  0.99525800  0.07437600
   0.98675500  0.99525800  0.07437600
   0.20897700  0.10636900  0.17918600
   0.54231100  0.10636900  0.17918600
   0.87564400  0.10636900  0.17918600
   0.20897700  0.43970300  0.17918600
   0.54231100  0.43970300  0.17918600
   0.87564400  0.43970300  0.17918600
   0.20897700  0.77303600  0.17918600
   0.54231100  0.77303600  0.17918600
   0.87564400  0.77303600  0.17918600
   0.09595834  0.55036226  0.28389704
   0.43278235  0.88526879  0.27883991
   0.76182854  0.21329731  0.28615525
   0.09778024  0.21993591  0.28644894
   0.43056146  0.22077021  0.28783455
   0.09552832  0.88449159  0.28273834
   0.76491901  0.88281491  0.28074779
   0.43299121  0.55167065  0.27999904
   0.76678459  0.54554463  0.28142060
   0.32303880  0.66408073  0.38666881
   0.65316081  0.99258345  0.38999062
   0.32244175  0.32694166  0.39022770
   0.98501851  0.98825400  0.38430798
   0.32476984  0.99340585  0.39221317
   0.64276028  0.32367415  0.39692810
   0.99747846  0.66692146  0.39121898
   0.99377519  0.32017082  0.39087079
   0.65523268  0.66475925  0.38963030
Direct configuration=     3
   0.70233560  0.43357001  0.47678428
   0.91132245  0.39022316  0.46710374
   0.67803607  0.46580040  0.52546869
   0.98675500  0.32859100  0.07437600
   0.32008800  0.32859100  0.07437600
   0.65342200  0.32859100  0.07437600
   0.98675500  0.66192500  0.07437600
   0.32008800  0.66192500  0.07437600
   0.65342200  0.66192500  0.07437600
   0.32008800  0.99525800  0.07437600
   0.65342200  0.99525800  0.07437600
   0.98675500  0.99525800  0.07437600
   0.20897700  0.10636900  0.17918600
   0.54231100  0.10636900  0.17918600
   0.87564400  0.10636900  0.17918600
   0.20897700  0.43970300  0.17918600
   0.54231100  0.43970300  0.17918600
   0.87564400  0.43970300  0.17918600
   0.20897700  0.77303600  0.17918600
   0.54231100  0.77303600  0.17918600
   0.87564400  0.77303600  0.17918600
   0.09628772  0.55025152  0.28389710
   0.43237312  0.88527651  0.27958807
   0.76176183  0.21372088  0.28605897
   0.09769337  0.22031768  0.28612556
   0.43089254  0.22006095  0.28748577
   0.09627670  0.88409576  0.28286043
   0.76450526  0.88263572  0.28108410
   0.43287226  0.55159914  0.28059408
   0.76639669  0.54591977  0.28190280
   0.32361868  0.66421063  0.38650046
   0.65284800  0.99211176  0.38965586
   0.32240160  0.32718067  0.39010449
   0.98514391  0.98823302  0.38472491
   0.32424720  0.99298514  0.39188907
   0.64235930  0.32429423  0.39675387
   0.99708670  0.66703198  0.39091028
   0.99343799  0.32051941  0.39143581
   0.65519642  0.66473481  0.38924598
Direct configuration=     4
   0.69988978  0.42632712  0.47614875
   0.91566496  0.39372551  0.46624559
   0.68056107  0.46806629  0.52547202
   0.98675500  0.32859100  0.07437600
   0.32008800  0.32859100  0.07437600
   0.65342200  0.32859100  0.07437600
   0.98675500  0.66192500  0.07437600
   0.32008800  0.66192500  0.07437600
   0.65342200  0.66192500  0.07437600
   0.32008800  0.99525800  0.07437600
   0.65342200  0.99525800  0.07437600
   0.98675500  0.99525800  0.07437600
   0.20897700  0.10636900  0.17918600
   0.54231100  0.10636900  0.17918600
   0.87564400  0.10636900  0.17918600
   0.20897700  0.43970300  0.17918600
   0.54231100  0.43970300  0.17918600
   0.87564400  0.43970300  0.17918600
   0.20897700  0.77303600  0.17918600
   0.54231100  0.77303600  0.17918600
   0.87564400  0.77303600  0.17918600
   0.09734587  0.54977391  0.28389619
   0.43099324  0.88527177  0.28215981
   0.76162346  0.21527553  0.28572439
   0.09726223  0.22151326  0.28505034
   0.43203116  0.21762615  0.28624688
   0.09875856  0.88275579  0.28329283
   0.76322398  0.88212911  0.28223572
   0.43243055  0.55124787  0.28262497
   0.76508997  0.54726537  0.28356056
   0.32554999  0.66460546  0.38596261
   0.65182821  0.99058737  0.38846618
   0.32211186  0.32790598  0.38962396
   0.98567815  0.98833326  0.38617787
   0.32237082  0.99155200  0.39073616
   0.64103805  0.32673794  0.39629152
   0.99572972  0.66739850  0.38979065
   0.99233433  0.32159835  0.39335733
   0.65510599  0.66472486  0.38787047
Direct configuration=     5
   0.69902819  0.42436344  0.47631609
   0.91726258  0.39559736  0.46655450
   0.68145727  0.46826077  0.52525597
   0.98675500  0.32859100  0.07437600
   0.32008800  0.32859100  0.07437600
   0.65342200  0.32859100  0.07437600
   0.98675500  0.66192500  0.07437600
   0.32008800  0.66192500  0.07437600
   0.65342200  0.66192500  0.07437600
   0.32008800  0.99525800  0.07437600
   0.65342200  0.99525800  0.07437600
   0.98675500  0.99525800  0.07437600
   0.20897700  0.10636900  0.17918600
   0.54231100  0.10636900  0.17918600
   0.87564400  0.10636900  0.17918600
   0.20897700  0.43970300  0.17918600
   0.54231100  0.43970300  0.17918600
   0.87564400  0.43970300  0.17918600
   0.20897700  0.77303600  0.17918600
   0.54231100  0.77303600  0.17918600
   0.87564400  0.77303600  0.17918600
   0.09718175  0.54938140  0.28387901
   0.43098707  0.88520837  0.28236610
   0.76194375  0.21576815  0.28567367
   0.09688133  0.22121774  0.28503277
   0.43214581  0.21742816  0.28595905
   0.09869552  0.88264290  0.28333388
   0.76351072  0.88247980  0.28233285
   0.43222991  0.55084677  0.28277637
   0.76504897  0.54753030  0.28371245
   0.32550249  0.66442965  0.38607047
   0.65192359  0.99078758  0.38826242
   0.32146463  0.32759957  0.38939711
   0.98608987  0.98895854  0.38645853
   0.32191244  0.99153896  0.39050413
   0.64013223  0.32674076  0.39591450
   0.99550115  0.66741172  0.38949584
   0.99238502  0.32108905  0.39334431
   0.65524151  0.66497522  0.38764383
