       N       E                     dE             d eps       ncg     rms          rms(c)
DAV:   1     0.241846047183E+04    0.24185E+04   -0.15949E+05  1824   0.129E+03
DAV:   2    -0.625950205421E+02   -0.24811E+04   -0.23031E+04  2104   0.286E+02
DAV:   3    -0.240896847581E+03   -0.17830E+03   -0.16192E+03  2200   0.690E+01
DAV:   4    -0.248491271349E+03   -0.75944E+01   -0.73046E+01  2360   0.136E+01
DAV:   5    -0.248713096674E+03   -0.22183E+00   -0.21971E+00  2392   0.238E+00    0.273E+01
RMM:   6    -0.245785617963E+03    0.29275E+01   -0.54603E+01  1831   0.148E+01    0.289E+01
RMM:   7    -0.238614955026E+03    0.71707E+01   -0.31987E+01  1831   0.888E+00    0.183E+01
RMM:   8    -0.242672253800E+03   -0.40573E+01   -0.81936E+00  1828   0.474E+00    0.242E+01
RMM:   9    -0.232512966789E+03    0.10159E+02   -0.31171E+00  1827   0.276E+00    0.107E+01
RMM:  10    -0.230871505371E+03    0.16415E+01   -0.15177E+00  1831   0.198E+00    0.481E+00
RMM:  11    -0.230459561346E+03    0.41194E+00   -0.39962E-01  1832   0.101E+00    0.306E+00
RMM:  12    -0.230365626132E+03    0.93935E-01   -0.19910E-01  1832   0.694E-01    0.269E+00
RMM:  13    -0.230300481316E+03    0.65145E-01   -0.13930E-01  1832   0.626E-01    0.169E+00
RMM:  14    -0.230267382475E+03    0.33099E-01   -0.94298E-02  1831   0.535E-01    0.999E-01
RMM:  15    -0.230256722692E+03    0.10660E-01   -0.24688E-02  1831   0.261E-01    0.522E-01
RMM:  16    -0.230253449729E+03    0.32730E-02   -0.71608E-03  1832   0.144E-01    0.267E-01
RMM:  17    -0.230253325260E+03    0.12447E-03   -0.28193E-03  1822   0.903E-02    0.234E-01
RMM:  18    -0.230253233452E+03    0.91808E-04   -0.14290E-03  1812   0.642E-02    0.166E-01
RMM:  19    -0.230253046372E+03    0.18708E-03   -0.49098E-04  1460   0.387E-02    0.822E-02
RMM:  20    -0.230253200498E+03   -0.15413E-03   -0.15986E-04  1030   0.224E-02    0.470E-02
RMM:  21    -0.230253353086E+03   -0.15259E-03   -0.80587E-05  1001   0.162E-02    0.291E-02
RMM:  22    -0.230253474413E+03   -0.12133E-03   -0.33504E-05   979   0.100E-02    0.236E-02
RMM:  23    -0.230253610785E+03   -0.13637E-03   -0.22041E-05   873   0.781E-03    0.174E-02
RMM:  24    -0.230253794251E+03   -0.18347E-03   -0.26517E-05   906   0.788E-03    0.145E-02
RMM:  25    -0.230253984135E+03   -0.18988E-03   -0.24343E-05   744   0.696E-03    0.965E-03
RMM:  26    -0.230254098154E+03   -0.11402E-03   -0.12453E-05   563   0.556E-03    0.914E-03
RMM:  27    -0.230254248676E+03   -0.15052E-03   -0.17653E-05   696   0.602E-03    0.688E-03
RMM:  28    -0.230254318467E+03   -0.69791E-04   -0.54633E-06   339   0.438E-03
   1 F= -.23025432E+03 E0= -.23024548E+03  d E =-.230254E+03
       N       E                     dE             d eps       ncg     rms          rms(c)
DAV:   1    -0.230373167661E+03   -0.11892E+00   -0.16285E+01  1852   0.737E+00    0.513E-01
RMM:   2    -0.230399738190E+03   -0.26571E-01   -0.27901E-01  1832   0.114E+00    0.525E-01
RMM:   3    -0.230398508705E+03    0.12295E-02   -0.18493E-02  1868   0.241E-01    0.500E-01
RMM:   4    -0.230398441953E+03    0.66751E-04   -0.32554E-03  1863   0.958E-02    0.500E-01
RMM:   5    -0.230395478720E+03    0.29632E-02   -0.22899E-03  1829   0.789E-02    0.271E-01
RMM:   6    -0.230395012608E+03    0.46611E-03   -0.37985E-03  1829   0.105E-01    0.211E-01
RMM:   7    -0.230394464994E+03    0.54761E-03   -0.17748E-03  1821   0.704E-02    0.122E-01
RMM:   8    -0.230394288046E+03    0.17695E-03   -0.42777E-04  1370   0.361E-02    0.776E-02
RMM:   9    -0.230394226946E+03    0.61100E-04   -0.11000E-04   965   0.203E-02
   2 F= -.23039423E+03 E0= -.23038522E+03  d E =-.139908E+00
       N       E                     dE             d eps       ncg     rms          rms(c)
DAV:   1    -0.230441521065E+03   -0.47233E-01   -0.40141E+00  1848   0.377E+00    0.334E-01
RMM:   2    -0.230454597091E+03   -0.13076E-01   -0.14113E-01  1836   0.628E-01    0.340E-01
RMM:   3    -0.230453163349E+03    0.14337E-02   -0.53213E-03  1865   0.121E-01    0.337E-01
RMM:   4    -0.230452648614E+03    0.51473E-03   -0.11934E-03  1778   0.557E-02    0.297E-01
RMM:   5    -0.230452157123E+03    0.49149E-03   -0.21954E-03  1825   0.766E-02    0.252E-01
RMM:   6    -0.230451188992E+03    0.96813E-03   -0.18930E-03  1823   0.731E-02    0.122E-01
RMM:   7    -0.230451000473E+03    0.18852E-03   -0.54259E-04  1518   0.394E-02    0.807E-02
RMM:   8    -0.230450911290E+03    0.89183E-04   -0.13707E-04   995   0.220E-02
   3 F= -.23045091E+03 E0= -.23044189E+03  d E =-.566843E-01
       N       E                     dE             d eps       ncg     rms          rms(c)
