<?xml version="1.0" encoding="ISO-8859-1"?>
<modeling>
 <generator>
  <i name="program" type="string"> vasp </i>
  <i name="version" type="string">5.4.4  </i>
  <i name="subversion" type="string">16052018 (build Apr 24 2014 20:13:14) complex standard parallel Constrained Minimization Technique (TS), Periodic NBO, VASPsol, libbeef, VASP2WANNIER90, Constrained Cell Relaxation </i>
  <i name="platform" type="string">Center for Computational Chemistry </i>
  <i name="user" type="string">phu </i>
  <i name="host" type="string">node11 </i>
  <i name="date" type="string">2025 09 27 </i>
  <i name="time" type="string">17:22:02 </i>
 </generator>
 <incar>
  <i type="string" name="SYSTEM"> metal</i>
  <i type="int" name="ISTART">     0</i>
  <i type="string" name="PREC">normal</i>
  <i type="string" name="ALGO">Fast</i>
  <i type="int" name="NSIM">     4</i>
  <i type="int" name="ISPIN">     1</i>
  <i type="int" name="NELMIN">     8</i>
  <i type="int" name="IBRION">     1</i>
  <i name="EDIFFG">     -0.05000000</i>
  <i type="int" name="NSW">  5000</i>
  <i type="int" name="ISIF">     2</i>
  <i type="int" name="ISYM">     0</i>
  <i name="ENCUT">    450.00000000</i>
  <i name="POTIM">      0.20000000</i>
  <i type="string" name="LREAL">A</i>
  <i type="int" name="ISMEAR">     1</i>
  <i name="SIGMA">      0.20000000</i>
  <i type="logical" name="LWAVE"> F  </i>
  <i type="logical" name="LCHARG"> F  </i>
  <v type="int" name="KPOINT_BSE">    -1     0     0     0</v>
  <i type="int" name="VOSKOWN">     0</i>
 </incar>
 <structure name="primitive_cell" >
  <crystal>
   <varray name="basis" >
    <v>       7.29695512      -4.21289900       0.00000000 </v>
    <v>       0.00000000       8.42579800       0.00000000 </v>
    <v>       0.00000000       0.00000000      21.87963500 </v>
   </varray>
   <i name="volume">   1345.21837528 </i>
   <varray name="rec_basis" >
    <v>       0.13704346       0.00000000       0.00000000 </v>
    <v>       0.06852173       0.11868312       0.00000000 </v>
    <v>       0.00000000       0.00000000       0.04570460 </v>
   </varray>
  </crystal>
  <varray name="positions" >
   <v>      -0.29877883       0.43173937       0.47588712 </v>
   <v>      -0.32691537       0.45859525      -0.47422435 </v>
   <v>      -0.35560600       0.32288505       0.39448196 </v>
   <v>      -0.09254356       0.38423229       0.46753375 </v>
   <v>      -0.33958536      -0.33627542       0.39167921 </v>
   <v>      -0.00719549      -0.33454740       0.38666213 </v>
   <v>       0.32149565       0.32798240       0.38592993 </v>
   <v>      -0.00861060       0.32201207       0.39189891 </v>
   <v>       0.31793233      -0.00764538       0.38817293 </v>
   <v>      -0.34827968      -0.01414821       0.39043027 </v>
   <v>      -0.23862408      -0.45200618       0.27933789 </v>
   <v>      -0.01333354      -0.00488807       0.39000652 </v>
   <v>       0.43801529       0.22172120       0.28736412 </v>
   <v>      -0.23849811       0.21309089       0.27968266 </v>
   <v>       0.32850932      -0.34335535       0.38611068 </v>
   <v>       0.09603209      -0.45148705       0.28656084 </v>
   <v>       0.43036597      -0.45066282       0.28283363 </v>
   <v>      -0.23543803      -0.11698451       0.28696717 </v>
   <v>       0.09941109      -0.11731754       0.28344569 </v>
   <v>       0.43386678      -0.11557961       0.28262343 </v>
   <v>       0.09287963       0.21722517       0.28271603 </v>
   <v>      -0.45768900       0.43970300       0.17918600 </v>
   <v>      -0.12435600       0.43970300       0.17918600 </v>
   <v>      -0.45768900       0.10636900       0.17918600 </v>
   <v>      -0.12435600      -0.22696400       0.17918600 </v>
   <v>       0.20897700       0.10636900       0.17918600 </v>
   <v>      -0.12435600       0.10636900       0.17918600 </v>
   <v>      -0.45768900      -0.22696400       0.17918600 </v>
   <v>       0.20897700      -0.22696400       0.17918600 </v>
   <v>       0.20897700       0.43970300       0.17918600 </v>
   <v>      -0.34657800       0.32859100       0.07437600 </v>
   <v>      -0.34657800      -0.33807500       0.07437600 </v>
   <v>      -0.01324500      -0.33807500       0.07437600 </v>
   <v>       0.32008800       0.32859100       0.07437600 </v>
   <v>      -0.01324500       0.32859100       0.07437600 </v>
   <v>       0.32008800      -0.00474200       0.07437600 </v>
   <v>      -0.34657800      -0.00474200       0.07437600 </v>
   <v>      -0.01324500      -0.00474200       0.07437600 </v>
   <v>       0.32008800      -0.33807500       0.07437600 </v>
  </varray>
 </structure>
 <varray name="primitive_index" >
  <v type="int" >        1 </v>
  <v type="int" >        3 </v>
  <v type="int" >       36 </v>
  <v type="int" >        2 </v>
  <v type="int" >       39 </v>
  <v type="int" >       37 </v>
  <v type="int" >       33 </v>
  <v type="int" >       38 </v>
  <v type="int" >       35 </v>
  <v type="int" >       32 </v>
  <v type="int" >       30 </v>
  <v type="int" >       34 </v>
  <v type="int" >       26 </v>
  <v type="int" >       24 </v>
  <v type="int" >       31 </v>
  <v type="int" >       22 </v>
  <v type="int" >       29 </v>
  <v type="int" >       28 </v>
  <v type="int" >       27 </v>
  <v type="int" >       23 </v>
  <v type="int" >       25 </v>
  <v type="int" >       17 </v>
  <v type="int" >       18 </v>
  <v type="int" >       14 </v>
  <v type="int" >       21 </v>
  <v type="int" >       13 </v>
  <v type="int" >       15 </v>
  <v type="int" >       20 </v>
  <v type="int" >       19 </v>
  <v type="int" >       16 </v>
  <v type="int" >        6 </v>
  <v type="int" >        9 </v>
  <v type="int" >        7 </v>
  <v type="int" >        5 </v>
  <v type="int" >        4 </v>
  <v type="int" >       10 </v>
  <v type="int" >       11 </v>
  <v type="int" >       12 </v>
  <v type="int" >        8 </v>
 </varray>
 <kpoints>
  <generation param="Gamma">
   <v type="int" name="divisions">       2        2        1 </v>
   <v name="usershift">      0.00000000       0.00000000       0.00000000 </v>
   <v name="genvec1">      0.50000000       0.00000000       0.00000000 </v>
   <v name="genvec2">     -0.00000000       0.50000000       0.00000000 </v>
   <v name="genvec3">      0.00000000       0.00000000       1.00000000 </v>
   <v name="shift">      0.00000000       0.00000000       0.00000000 </v>
  </generation>
  <varray name="kpointlist" >
   <v>       0.00000000       0.00000000       0.00000000 </v>
   <v>       0.50000000       0.00000000       0.00000000 </v>
   <v>      -0.00000000       0.50000000       0.00000000 </v>
   <v>       0.50000000       0.50000000       0.00000000 </v>
  </varray>
  <varray name="weights" >
   <v>       0.25000000 </v>
   <v>       0.25000000 </v>
   <v>       0.25000000 </v>
   <v>       0.25000000 </v>
  </varray>
 </kpoints>
 <parameters>
  <separator name="general" >
   <i type="string" name="SYSTEM">metal</i>
   <i type="logical" name="LCOMPAT"> F  </i>
  </separator>
  <separator name="electronic" >
   <i type="string" name="PREC">normal</i>
   <i name="ENMAX">    450.00000000</i>
   <i name="ENAUG">    644.87300000</i>
   <i name="EDIFF">      0.00010000</i>
   <i type="int" name="IALGO">    68</i>
   <i type="int" name="IWAVPR">    11</i>
   <i type="int" name="NBANDS">   228</i>
   <i name="NELECT">    376.00000000</i>
   <i type="int" name="TURBO">     0</i>
   <i type="int" name="IRESTART">     0</i>
   <i type="int" name="NREBOOT">     0</i>
   <i type="int" name="NMIN">     0</i>
   <i name="EREF">      0.00000000</i>
   <separator name="electronic smearing" >
    <i type="int" name="ISMEAR">     1</i>
    <i name="SIGMA">      0.20000000</i>
    <i name="KSPACING">      0.50000000</i>
    <i type="logical" name="KGAMMA"> T  </i>
   </separator>
   <separator name="electronic projectors" >
    <i type="logical" name="LREAL"> T  </i>
    <v name="ROPT">     -0.00050000     -0.00050000     -0.00050000</v>
    <i type="int" name="LMAXPAW">  -100</i>
    <i type="int" name="LMAXMIX">     2</i>
    <i type="logical" name="NLSPLINE"> F  </i>
   </separator>
   <separator name="electronic startup" >
    <i type="int" name="ISTART">     0</i>
    <i type="int" name="ICHARG">     2</i>
    <i type="int" name="INIWAV">     1</i>
   </separator>
   <separator name="electronic spin" >
    <i type="int" name="ISPIN">     1</i>
    <i type="logical" name="LNONCOLLINEAR"> F  </i>
    <v name="MAGMOM">      1.00000000      1.00000000      1.00000000      1.00000000      1.00000000      1.00000000      1.00000000      1.00000000      1.00000000      1.00000000      1.00000000      1.00000000      1.00000000      1.00000000      1.00000000      1.00000000      1.00000000      1.00000000      1.00000000      1.00000000
      1.00000000      1.00000000      1.00000000      1.00000000      1.00000000      1.00000000      1.00000000      1.00000000      1.00000000      1.00000000      1.00000000      1.00000000      1.00000000      1.00000000      1.00000000      1.00000000      1.00000000      1.00000000      1.00000000</v>
    <i name="NUPDOWN">     -1.00000000</i>
    <i type="logical" name="LSORBIT"> F  </i>
    <v name="SAXIS">      0.00000000      0.00000000      1.00000000</v>
    <i type="logical" name="LSPIRAL"> F  </i>
    <v name="QSPIRAL">      0.00000000      0.00000000      0.00000000</v>
    <i type="logical" name="LZEROZ"> F  </i>
   </separator>
   <separator name="electronic exchange-correlation" >
    <i type="logical" name="LASPH"> F  </i>
    <i type="logical" name="LMETAGGA"> F  </i>
   </separator>
   <separator name="electronic convergence" >
    <i type="int" name="NELM">    60</i>
    <i type="int" name="NELMDL">    -5</i>
    <i type="int" name="NELMIN">     8</i>
    <i name="ENINI">    450.00000000</i>
    <separator name="electronic convergence detail" >
     <i type="logical" name="LDIAG"> T  </i>
     <i type="logical" name="LSUBROT"> F  </i>
     <i name="WEIMIN">      0.00100000</i>
     <i name="EBREAK">      0.00000011</i>
     <i name="DEPER">      0.30000000</i>
     <i type="int" name="NRMM">     4</i>
     <i name="TIME">      0.40000000</i>
    </separator>
   </separator>
   <separator name="electronic mixer" >
    <i name="AMIX">      0.40000000</i>
    <i name="BMIX">      1.00000000</i>
    <i name="AMIN">      0.10000000</i>
    <i name="AMIX_MAG">      1.60000000</i>
    <i name="BMIX_MAG">      1.00000000</i>
    <separator name="electronic mixer details" >
     <i type="int" name="IMIX">     4</i>
     <i type="logical" name="MIXFIRST"> F  </i>
     <i type="int" name="MAXMIX">   -45</i>
     <i name="WC">    100.00000000</i>
     <i type="int" name="INIMIX">     1</i>
     <i type="int" name="MIXPRE">     1</i>
     <i type="int" name="MREMOVE">     5</i>
    </separator>
   </separator>
   <separator name="electronic dipolcorrection" >
    <i type="logical" name="LDIPOL"> F  </i>
    <i type="logical" name="LMONO"> F  </i>
    <i type="int" name="IDIPOL">     0</i>
    <i name="EPSILON">      1.00000000</i>
    <v name="DIPOL">   -100.00000000   -100.00000000   -100.00000000</v>
    <i name="EFIELD">      0.00000000</i>
   </separator>
  </separator>
  <separator name="grids" >
   <i type="int" name="NGX">    48</i>
   <i type="int" name="NGY">    48</i>
   <i type="int" name="NGZ">   120</i>
   <i type="int" name="NGXF">    96</i>
   <i type="int" name="NGYF">    96</i>
   <i type="int" name="NGZF">   240</i>
   <i type="logical" name="ADDGRID"> F  </i>
  </separator>
  <separator name="ionic" >
   <i type="int" name="NSW">  5000</i>
   <i type="int" name="IBRION">     1</i>
   <i type="int" name="MDALGO">     0</i>
   <i type="int" name="ISIF">     2</i>
   <i name="PSTRESS">      0.00000000</i>
   <i name="EDIFFG">     -0.05000000</i>
   <i type="int" name="NFREE">     0</i>
   <i name="POTIM">      0.20000000</i>
   <i name="SMASS">     -3.00000000</i>
   <i name="SCALEE">      1.00000000</i>
  </separator>
  <separator name="ionic md" >
   <i name="TEBEG">      0.00010000</i>
   <i name="TEEND">      0.00010000</i>
   <i type="int" name="NBLOCK">     1</i>
   <i type="int" name="KBLOCK">  5000</i>
   <i type="int" name="NPACO">   256</i>
   <i name="APACO">     16.00000000</i>
  </separator>
  <separator name="symmetry" >
   <i type="int" name="ISYM">     0</i>
   <i name="SYMPREC">      0.00001000</i>
  </separator>
  <separator name="dos" >
   <i type="int" name="LORBIT">     0</i>
   <v name="RWIGS">     -1.00000000     -1.00000000     -1.00000000</v>
   <i type="int" name="NEDOS">   301</i>
   <i name="EMIN">     10.00000000</i>
   <i name="EMAX">    -10.00000000</i>
   <i name="EFERMI">      0.00000000</i>
  </separator>
  <separator name="writing" >
   <i type="int" name="NWRITE">     2</i>
   <i type="logical" name="LWAVE"> F  </i>
   <i type="logical" name="LDOWNSAMPLE"> F  </i>
   <i type="logical" name="LCHARG"> F  </i>
   <i type="logical" name="LPARD"> F  </i>
   <i type="logical" name="LVTOT"> F  </i>
   <i type="logical" name="LVHAR"> F  </i>
   <i type="logical" name="LELF"> F  </i>
   <i type="logical" name="LOPTICS"> F  </i>
   <v name="STM">      0.00000000      0.00000000      0.00000000      0.00000000      0.00000000      0.00000000      0.00000000</v>
  </separator>
  <separator name="performance" >
   <i type="int" name="NPAR">     4</i>
   <i type="int" name="NSIM">     4</i>
   <i type="int" name="NBLK">    -1</i>
   <i type="logical" name="LPLANE"> T  </i>
   <i type="logical" name="LSCALAPACK"> T  </i>
   <i type="logical" name="LSCAAWARE"> F  </i>
   <i type="logical" name="LSCALU"> F  </i>
   <i type="logical" name="LASYNC"> F  </i>
   <i type="logical" name="LORBITALREAL"> F  </i>
  </separator>
  <separator name="miscellaneous" >
   <i type="int" name="IDIOT">     3</i>
   <i type="int" name="ISPECIAL">     0</i>
   <i type="logical" name="LMUSIC"> F  </i>
   <v name="POMASS">     12.01100000     16.00000000    195.08000000</v>
   <v name="DARWINR">      0.00000000      0.00000000      0.00000000</v>
   <v name="DARWINV">      1.00000000      1.00000000      1.00000000</v>
   <i type="logical" name="LCORR"> T  </i>
  </separator>
  <i type="logical" name="GGA_COMPAT"> T  </i>
  <i type="logical" name="LBERRY"> F  </i>
  <i type="int" name="ICORELEVEL">     0</i>
  <i type="logical" name="LDAU"> F  </i>
  <i type="int" name="I_CONSTRAINED_M">     0</i>
  <separator name="electronic exchange-correlation" >
   <i type="string" name="GGA">--</i>
   <i type="int" name="VOSKOWN">     0</i>
   <i type="logical" name="LHFCALC"> F  </i>
   <i type="string" name="PRECFOCK"></i>
   <i type="logical" name="LSYMGRAD"> F  </i>
   <i type="logical" name="LHFONE"> F  </i>
   <i type="logical" name="LRHFCALC"> F  </i>
   <i type="logical" name="LTHOMAS"> F  </i>
   <i type="logical" name="LMODELHF"> F  </i>
   <i name="ENCUT4O">     -1.00000000</i>
   <i type="int" name="EXXOEP">     0</i>
   <i type="int" name="FOURORBIT">     0</i>
   <i name="AEXX">      0.00000000</i>
   <i name="HFALPHA">      0.00000000</i>
   <i name="MCALPHA">      0.00000000</i>
   <i name="ALDAX">      1.00000000</i>
   <i name="AGGAX">      1.00000000</i>
   <i name="ALDAC">      1.00000000</i>
   <i name="AGGAC">      1.00000000</i>
   <i type="int" name="NKREDX">     1</i>
   <i type="int" name="NKREDY">     1</i>
   <i type="int" name="NKREDZ">     1</i>
   <i type="logical" name="SHIFTRED"> F  </i>
   <i type="logical" name="ODDONLY"> F  </i>
   <i type="logical" name="EVENONLY"> F  </i>
   <i type="int" name="LMAXFOCK">     0</i>
   <i type="int" name="NMAXFOCKAE">     0</i>
   <i type="logical" name="LFOCKAEDFT"> F  </i>
   <i name="HFSCREEN">      0.00000000</i>
   <i name="HFSCREENC">      0.00000000</i>
   <i type="int" name="NBANDSGWLOW">     0</i>
  </separator>
  <separator name="vdW DFT" >
   <i type="logical" name="LUSE_VDW"> F  </i>
   <i name="Zab_VDW">     -0.84910000</i>
   <i name="PARAM1">      0.12340000</i>
   <i name="PARAM2">      1.00000000</i>
   <i name="PARAM3">      0.00000000</i>
  </separator>
  <separator name="model GW" >
   <i type="int" name="MODEL_GW">     0</i>
   <i name="MODEL_EPS0">     20.69566731</i>
   <i name="MODEL_ALPHA">      1.00000000</i>
  </separator>
  <separator name="linear response parameters" >
   <i type="logical" name="LEPSILON"> F  </i>
   <i type="logical" name="LRPA"> F  </i>
   <i type="logical" name="LNABLA"> F  </i>
   <i type="logical" name="LVEL"> F  </i>
   <i type="int" name="KINTER">     0</i>
   <i name="CSHIFT">      0.10000000</i>
   <i name="OMEGAMAX">     -1.00000000</i>
   <i name="DEG_THRESHOLD">      0.00200000</i>
   <i name="RTIME">     -0.10000000</i>
   <i name="WPLASMAI">      0.00000000</i>
   <v name="DFIELD">      0.00000000      0.00000000      0.00000000</v>
   <v name="WPLASMA">      0.00000000      0.00000000      0.00000000      0.00000000      0.00000000      0.00000000      0.00000000      0.00000000      0.00000000</v>
  </separator>
  <separator name="orbital magnetization" >
   <i type="logical" name="NUCIND"> F  </i>
   <v name="MAGPOS">      0.00000000      0.00000000      0.00000000</v>
   <i type="logical" name="LNICSALL"> T  </i>
   <i type="logical" name="ORBITALMAG"> F  </i>
   <i type="logical" name="LMAGBLOCH"> F  </i>
   <i type="logical" name="LCHIMAG"> F  </i>
   <i type="logical" name="LGAUGE"> T  </i>
   <i type="int" name="MAGATOM">     0</i>
   <v name="MAGDIPOL">      0.00000000      0.00000000      0.00000000</v>
   <v name="AVECCONST">      0.00000000      0.00000000      0.00000000</v>
  </separator>
  <separator name="response functions" >
   <i type="logical" name="LADDER"> F  </i>
   <i type="logical" name="LRPAFORCE"> F  </i>
   <i type="logical" name="LFXC"> F  </i>
   <i type="logical" name="LHARTREE"> T  </i>
   <i type="int" name="IBSE">     0</i>
   <v type="int" name="KPOINT">    -1     0     0     0</v>
   <i type="logical" name="LTCTE"> F  </i>
   <i type="logical" name="LTETE"> F  </i>
   <i type="logical" name="LTRIPLET"> F  </i>
   <i type="logical" name="LFXCEPS"> F  </i>
   <i type="logical" name="LFXHEG"> F  </i>
   <i type="int" name="NATURALO">     2</i>
   <i type="logical" name="L2ORDER"> F  </i>
   <i type="logical" name="LMP2LT"> F  </i>
   <i type="logical" name="LUSEW"> F  </i>
   <i name="ENCUTGW">     -2.00000000</i>
   <i name="ENCUTGWSOFT">     -2.00000000</i>
   <i name="ENCUTLF">     -1.00000000</i>
   <i type="int" name="LMAXMP2">    -1</i>
   <i name="SCISSOR">      0.00000000</i>
   <i type="int" name="NOMEGA">     0</i>
   <i type="int" name="NOMEGAR">     0</i>
   <i type="int" name="NBANDSGW">    -1</i>
   <i type="int" name="NBANDSO">    -1</i>
   <i type="int" name="NBANDSV">    -1</i>
   <i type="int" name="NELM">     1</i>
   <i type="int" name="NELMHF">     1</i>
   <i type="int" name="DIM">     3</i>
   <i type="int" name="ANTIRES">     0</i>
   <i name="OMEGAMAX">    -30.00000000</i>
   <i name="OMEGAMIN">    -30.00000000</i>
   <i name="OMEGATL">   -200.00000000</i>
   <i type="int" name="OMEGAGRID">   140</i>
   <i name="CSHIFT">     -0.10000000</i>
   <i type="logical" name="SELFENERGY"> F  </i>
   <i type="logical" name="LSPECTRAL"> F  </i>
   <i type="logical" name="LSPECTRALGW"> F  </i>
   <i type="logical" name="LSINGLES"> F  </i>
   <i type="logical" name="LFERMIGW"> F  </i>
   <i type="logical" name="ODDONLYGW"> F  </i>
   <i type="logical" name="EVENONLYGW"> F  </i>
   <i type="int" name="NKREDLFX">     1</i>
   <i type="int" name="NKREDLFY">     1</i>
   <i type="int" name="NKREDLFZ">     1</i>
   <i type="int" name="MAXMEM">  2800</i>
   <i type="int" name="TELESCOPE">     0</i>
   <i type="int" name="TAUPAR">     1</i>
   <i type="int" name="OMEGAPAR">    -1</i>
   <i name="LAMBDA">      1.00000000</i>
  </separator>
  <separator name="External order field" >
   <i name="OFIELD_KAPPA">      0.00000000</i>
   <v name="OFIELD_K">      0.00000000      0.00000000      0.00000000</v>
   <i name="OFIELD_Q6_NEAR">      0.00000000</i>
   <i name="OFIELD_Q6_FAR">      0.00000000</i>
   <i name="OFIELD_A">      0.00000000</i>
  </separator>
  <separator name="solvation model" >
   <i type="logical" name="LSOL"> F  </i>
  </separator>
 </parameters>
 <atominfo>
  <atoms>      39 </atoms>
  <types>       3 </types>
  <array name="atoms" >
   <dimension dim="1">ion</dimension>
   <field type="string">element</field>
   <field type="int">atomtype</field>
   <set>
    <rc><c>C </c><c>   1</c></rc>
    <rc><c>O </c><c>   2</c></rc>
    <rc><c>O </c><c>   2</c></rc>
    <rc><c>Pt</c><c>   3</c></rc>
    <rc><c>Pt</c><c>   3</c></rc>
    <rc><c>Pt</c><c>   3</c></rc>
    <rc><c>Pt</c><c>   3</c></rc>
    <rc><c>Pt</c><c>   3</c></rc>
    <rc><c>Pt</c><c>   3</c></rc>
    <rc><c>Pt</c><c>   3</c></rc>
    <rc><c>Pt</c><c>   3</c></rc>
    <rc><c>Pt</c><c>   3</c></rc>
    <rc><c>Pt</c><c>   3</c></rc>
    <rc><c>Pt</c><c>   3</c></rc>
    <rc><c>Pt</c><c>   3</c></rc>
    <rc><c>Pt</c><c>   3</c></rc>
    <rc><c>Pt</c><c>   3</c></rc>
    <rc><c>Pt</c><c>   3</c></rc>
    <rc><c>Pt</c><c>   3</c></rc>
    <rc><c>Pt</c><c>   3</c></rc>
    <rc><c>Pt</c><c>   3</c></rc>
    <rc><c>Pt</c><c>   3</c></rc>
    <rc><c>Pt</c><c>   3</c></rc>
    <rc><c>Pt</c><c>   3</c></rc>
    <rc><c>Pt</c><c>   3</c></rc>
    <rc><c>Pt</c><c>   3</c></rc>
    <rc><c>Pt</c><c>   3</c></rc>
    <rc><c>Pt</c><c>   3</c></rc>
    <rc><c>Pt</c><c>   3</c></rc>
    <rc><c>Pt</c><c>   3</c></rc>
    <rc><c>Pt</c><c>   3</c></rc>
    <rc><c>Pt</c><c>   3</c></rc>
    <rc><c>Pt</c><c>   3</c></rc>
    <rc><c>Pt</c><c>   3</c></rc>
    <rc><c>Pt</c><c>   3</c></rc>
    <rc><c>Pt</c><c>   3</c></rc>
    <rc><c>Pt</c><c>   3</c></rc>
    <rc><c>Pt</c><c>   3</c></rc>
    <rc><c>Pt</c><c>   3</c></rc>
   </set>
  </array>
  <array name="atomtypes" >
   <dimension dim="1">type</dimension>
   <field type="int">atomspertype</field>
   <field type="string">element</field>
   <field>mass</field>
   <field>valence</field>
   <field type="string">pseudopotential</field>
   <set>
    <rc><c>   1</c><c>C </c><c>     12.01100000</c><c>      4.00000000</c><c> PAW_PBE C 08Apr2002                    </c></rc>
    <rc><c>   2</c><c>O </c><c>     16.00000000</c><c>      6.00000000</c><c> PAW_PBE O 08Apr2002                    </c></rc>
    <rc><c>  36</c><c>Pt</c><c>    195.08000000</c><c>     10.00000000</c><c>  PAW_PBE Pt 04Feb2005                  </c></rc>
   </set>
  </array>
 </atominfo>
 <structure name="initialpos" >
  <crystal>
   <varray name="basis" >
    <v>       7.29695512      -4.21289900       0.00000000 </v>
    <v>       0.00000000       8.42579800       0.00000000 </v>
    <v>       0.00000000       0.00000000      21.87963500 </v>
   </varray>
   <i name="volume">   1345.21837528 </i>
   <varray name="rec_basis" >
    <v>       0.13704346       0.00000000       0.00000000 </v>
    <v>       0.06852173       0.11868312       0.00000000 </v>
    <v>       0.00000000       0.00000000       0.04570460 </v>
   </varray>
  </crystal>
  <varray name="positions" >
   <v>       0.70122117       0.43173937       0.47588712 </v>
   <v>       0.90745644       0.38423229       0.46753375 </v>
   <v>       0.67308463       0.45859525       0.52577565 </v>
   <v>       0.98675500       0.32859100       0.07437600 </v>
   <v>       0.32008800       0.32859100       0.07437600 </v>
   <v>       0.65342200       0.32859100       0.07437600 </v>
   <v>       0.98675500       0.66192500       0.07437600 </v>
   <v>       0.32008800       0.66192500       0.07437600 </v>
   <v>       0.65342200       0.66192500       0.07437600 </v>
   <v>       0.32008800       0.99525800       0.07437600 </v>
   <v>       0.65342200       0.99525800       0.07437600 </v>
   <v>       0.98675500       0.99525800       0.07437600 </v>
   <v>       0.20897700       0.10636900       0.17918600 </v>
   <v>       0.54231100       0.10636900       0.17918600 </v>
   <v>       0.87564400       0.10636900       0.17918600 </v>
   <v>       0.20897700       0.43970300       0.17918600 </v>
   <v>       0.54231100       0.43970300       0.17918600 </v>
   <v>       0.87564400       0.43970300       0.17918600 </v>
   <v>       0.20897700       0.77303600       0.17918600 </v>
   <v>       0.54231100       0.77303600       0.17918600 </v>
   <v>       0.87564400       0.77303600       0.17918600 </v>
   <v>       0.09603209       0.54851295       0.28656084 </v>
   <v>       0.43386678       0.88442039       0.28262343 </v>
   <v>       0.76150189       0.21309089       0.27968266 </v>
   <v>       0.09287963       0.21722517       0.28271603 </v>
   <v>       0.43801529       0.22172120       0.28736412 </v>
   <v>       0.09941109       0.88268246       0.28344569 </v>
   <v>       0.76456197       0.88301549       0.28696717 </v>
   <v>       0.43036597       0.54933718       0.28283363 </v>
   <v>       0.76137592       0.54799382       0.27933789 </v>
   <v>       0.32850932       0.65664465       0.38611068 </v>
   <v>       0.65172032       0.98585179       0.39043027 </v>
   <v>       0.32149565       0.32798240       0.38592993 </v>
   <v>       0.98666646       0.99511193       0.39000652 </v>
   <v>       0.31793233       0.99235462       0.38817293 </v>
   <v>       0.64439400       0.32288505       0.39448196 </v>
   <v>       0.99280451       0.66545260       0.38666213 </v>
   <v>       0.99138940       0.32201207       0.39189891 </v>
   <v>       0.66041464       0.66372458       0.39167921 </v>
  </varray>
  <varray name="selective"  type="logical" >
   <v type="logical" >  T  T  T </v>
   <v type="logical" >  T  T  T </v>
   <v type="logical" >  T  T  T </v>
   <v type="logical" >  F  F  F </v>
   <v type="logical" >  F  F  F </v>
   <v type="logical" >  F  F  F </v>
   <v type="logical" >  F  F  F </v>
   <v type="logical" >  F  F  F </v>
   <v type="logical" >  F  F  F </v>
   <v type="logical" >  F  F  F </v>
   <v type="logical" >  F  F  F </v>
   <v type="logical" >  F  F  F </v>
   <v type="logical" >  F  F  F </v>
   <v type="logical" >  F  F  F </v>
   <v type="logical" >  F  F  F </v>
   <v type="logical" >  F  F  F </v>
   <v type="logical" >  F  F  F </v>
   <v type="logical" >  F  F  F </v>
   <v type="logical" >  F  F  F </v>
   <v type="logical" >  F  F  F </v>
   <v type="logical" >  F  F  F </v>
   <v type="logical" >  T  T  T </v>
   <v type="logical" >  T  T  T </v>
   <v type="logical" >  T  T  T </v>
   <v type="logical" >  T  T  T </v>
   <v type="logical" >  T  T  T </v>
   <v type="logical" >  T  T  T </v>
   <v type="logical" >  T  T  T </v>
   <v type="logical" >  T  T  T </v>
   <v type="logical" >  T  T  T </v>
   <v type="logical" >  T  T  T </v>
   <v type="logical" >  T  T  T </v>
   <v type="logical" >  T  T  T </v>
   <v type="logical" >  T  T  T </v>
   <v type="logical" >  T  T  T </v>
   <v type="logical" >  T  T  T </v>
   <v type="logical" >  T  T  T </v>
   <v type="logical" >  T  T  T </v>
   <v type="logical" >  T  T  T </v>
  </varray>
  <nose>
   <v>      -3.00000000       0.00000000       0.00010000       0.00010000 </v>
  </nose>
 </structure>
 <calculation>
  <scstep>
   <time name="dav">   15.85   15.97</time>
   <time name="total">   16.16   16.39</time>
   <energy>
    <i name="alphaZ">    975.10247152 </i>
    <i name="ewald">  90832.79075734 </i>
    <i name="hartreedc">-119925.47521543 </i>
    <i name="XCdc">    189.34664535 </i>
    <i name="pawpsdc">  24789.08602224 </i>
    <i name="pawaedc"> -23775.73976456 </i>
    <i name="eentropy">      0.01373748 </i>
    <i name="bandstr">   2073.44165702 </i>
    <i name="atom">  27259.89416086 </i>
    <i name="e_fr_energy">   2418.46047183 </i>
    <i name="e_wo_entrp">   2418.44673434 </i>
    <i name="e_0_energy">   2418.45589266 </i>
   </energy>
  </scstep>
  <scstep>
   <time name="dav">   18.54   18.68</time>
   <time name="total">   18.54   18.68</time>
   <energy>
    <i name="e_fr_energy">    -62.59502054 </i>
    <i name="e_wo_entrp">    -62.58499375 </i>
    <i name="e_0_energy">    -62.59167828 </i>
   </energy>
  </scstep>
  <scstep>
   <time name="dav">   17.75   17.93</time>
   <time name="total">   17.75   17.93</time>
   <energy>
    <i name="e_fr_energy">   -240.89684758 </i>
    <i name="e_wo_entrp">   -240.89783845 </i>
    <i name="e_0_energy">   -240.89717787 </i>
   </energy>
  </scstep>
  <scstep>
   <time name="dav">   20.36   20.57</time>
   <time name="total">   20.36   20.57</time>
   <energy>
    <i name="e_fr_energy">   -248.49127135 </i>
    <i name="e_wo_entrp">   -248.49131849 </i>
    <i name="e_0_energy">   -248.49128706 </i>
   </energy>
  </scstep>
  <scstep>
   <time name="dav">   19.48   19.68</time>
   <time name="total">   20.44   20.66</time>
   <energy>
    <i name="e_fr_energy">   -248.71309667 </i>
    <i name="e_wo_entrp">   -248.71282611 </i>
    <i name="e_0_energy">   -248.71300649 </i>
   </energy>
  </scstep>
  <scstep>
   <time name="diag">    2.80    2.83</time>
   <time name="diis">   10.22   10.33</time>
   <time name="orth">    0.34    0.35</time>
   <time name="total">   14.59   14.75</time>
   <energy>
    <i name="e_fr_energy">   -245.78561796 </i>
    <i name="e_wo_entrp">   -245.59123499 </i>
    <i name="e_0_energy">   -245.72082364 </i>
   </energy>
  </scstep>
  <scstep>
   <time name="diag">    2.81    2.84</time>
   <time name="diis">    8.27    8.36</time>
   <time name="orth">    0.34    0.34</time>
   <time name="total">   12.35   12.48</time>
   <energy>
    <i name="e_fr_energy">   -238.61495503 </i>
    <i name="e_wo_entrp">   -238.49603382 </i>
    <i name="e_0_energy">   -238.57531462 </i>
   </energy>
  </scstep>
  <scstep>
   <time name="diag">    2.30    2.32</time>
   <time name="diis">    8.67    8.74</time>
   <time name="orth">    0.36    0.36</time>
   <time name="total">   12.52   12.63</time>
   <energy>
    <i name="e_fr_energy">   -242.67225380 </i>
    <i name="e_wo_entrp">   -242.73596083 </i>
    <i name="e_0_energy">   -242.69348948 </i>
   </energy>
  </scstep>
  <scstep>
   <time name="diag">    2.85    2.87</time>
   <time name="diis">   10.07   10.14</time>
   <time name="orth">    0.31    0.31</time>
   <time name="total">   14.36   14.46</time>
   <energy>
    <i name="e_fr_energy">   -232.51296679 </i>
    <i name="e_wo_entrp">   -232.45400682 </i>
    <i name="e_0_energy">   -232.49331347 </i>
   </energy>
  </scstep>
  <scstep>
   <time name="diag">    2.65    2.67</time>
   <time name="diis">    8.94    9.00</time>
   <time name="orth">    0.32    0.32</time>
   <time name="total">   12.84   12.93</time>
   <energy>
    <i name="e_fr_energy">   -230.87150537 </i>
    <i name="e_wo_entrp">   -230.83886725 </i>
    <i name="e_0_energy">   -230.86062600 </i>
   </energy>
  </scstep>
  <scstep>
   <time name="diag">    2.31    2.32</time>
   <time name="diis">    8.29    8.35</time>
   <time name="orth">    0.32    0.32</time>
   <time name="total">   11.98   12.07</time>
   <energy>
    <i name="e_fr_energy">   -230.45956135 </i>
    <i name="e_wo_entrp">   -230.43003865 </i>
    <i name="e_0_energy">   -230.44972045 </i>
   </energy>
  </scstep>
  <scstep>
   <time name="diag">    2.71    2.73</time>
   <time name="diis">    9.57    9.64</time>
   <time name="orth">    0.35    0.35</time>
   <time name="total">   13.80   13.90</time>
   <energy>
    <i name="e_fr_energy">   -230.36562613 </i>
    <i name="e_wo_entrp">   -230.31402679 </i>
    <i name="e_0_energy">   -230.34842635 </i>
   </energy>
  </scstep>
  <scstep>
   <time name="diag">    2.70    2.72</time>
   <time name="diis">    8.20    8.26</time>
   <time name="orth">    0.31    0.32</time>
   <time name="total">   12.20   12.28</time>
   <energy>
    <i name="e_fr_energy">   -230.30048132 </i>
    <i name="e_wo_entrp">   -230.27258562 </i>
    <i name="e_0_energy">   -230.29118275 </i>
   </energy>
  </scstep>
  <scstep>
   <time name="diag">    2.30    2.32</time>
   <time name="diis">    8.00    8.06</time>
   <time name="orth">    0.32    0.32</time>
   <time name="total">   11.50   11.59</time>
   <energy>
    <i name="e_fr_energy">   -230.26738247 </i>
    <i name="e_wo_entrp">   -230.24158158 </i>
    <i name="e_0_energy">   -230.25878218 </i>
   </energy>
  </scstep>
  <scstep>
   <time name="diag">    2.53    2.55</time>
   <time name="diis">    8.83    8.90</time>
   <time name="orth">    0.33    0.33</time>
   <time name="total">   12.68   12.77</time>
   <energy>
    <i name="e_fr_energy">   -230.25672269 </i>
    <i name="e_wo_entrp">   -230.23088672 </i>
    <i name="e_0_energy">   -230.24811070 </i>
   </energy>
  </scstep>
  <scstep>
   <time name="diag">    2.42    2.43</time>
   <time name="diis">    8.86    8.93</time>
   <time name="orth">    0.32    0.32</time>
   <time name="total">   12.42   12.51</time>
   <energy>
    <i name="e_fr_energy">   -230.25344973 </i>
    <i name="e_wo_entrp">   -230.22713750 </i>
    <i name="e_0_energy">   -230.24467899 </i>
   </energy>
  </scstep>
  <scstep>
   <time name="diag">    1.95    1.96</time>
   <time name="diis">    7.62    7.68</time>
   <time name="orth">    0.31    0.31</time>
   <time name="total">   10.82   10.90</time>
   <energy>
    <i name="e_fr_energy">   -230.25332526 </i>
    <i name="e_wo_entrp">   -230.22547409 </i>
    <i name="e_0_energy">   -230.24404154 </i>
   </energy>
  </scstep>
  <scstep>
   <time name="diag">    2.27    2.29</time>
   <time name="diis">    8.45    8.51</time>
   <time name="orth">    0.34    0.34</time>
   <time name="total">   12.03   12.12</time>
   <energy>
    <i name="e_fr_energy">   -230.25323345 </i>
    <i name="e_wo_entrp">   -230.22740546 </i>
    <i name="e_0_energy">   -230.24462412 </i>
   </energy>
  </scstep>
  <scstep>
   <time name="diag">    2.53    2.55</time>
   <time name="diis">    7.65    7.71</time>
   <time name="orth">    0.34    0.34</time>
   <time name="total">   11.63   11.71</time>
   <energy>
    <i name="e_fr_energy">   -230.25304637 </i>
    <i name="e_wo_entrp">   -230.22665941 </i>
    <i name="e_0_energy">   -230.24425072 </i>
   </energy>
  </scstep>
  <scstep>
   <time name="diag">    2.68    2.70</time>
   <time name="diis">    5.33    5.37</time>
   <time name="orth">    0.33    0.34</time>
   <time name="total">    9.24    9.30</time>
   <energy>
    <i name="e_fr_energy">   -230.25320050 </i>
    <i name="e_wo_entrp">   -230.22640791 </i>
    <i name="e_0_energy">   -230.24426964 </i>
   </energy>
  </scstep>
  <scstep>
   <time name="diag">    2.45    2.47</time>
   <time name="diis">    5.08    5.12</time>
   <time name="orth">    0.31    0.31</time>
   <time name="total">    8.80    8.86</time>
   <energy>
    <i name="e_fr_energy">   -230.25335309 </i>
    <i name="e_wo_entrp">   -230.22652100 </i>
    <i name="e_0_energy">   -230.24440906 </i>
   </energy>
  </scstep>
  <scstep>
   <time name="diag">    2.45    2.46</time>
   <time name="diis">    5.26    5.30</time>
   <time name="orth">    0.33    0.34</time>
   <time name="total">    8.98    9.05</time>
   <energy>
    <i name="e_fr_energy">   -230.25347441 </i>
    <i name="e_wo_entrp">   -230.22683360 </i>
    <i name="e_0_energy">   -230.24459414 </i>
   </energy>
  </scstep>
  <scstep>
   <time name="diag">    2.50    2.52</time>
   <time name="diis">    5.31    5.35</time>
   <time name="orth">    0.36    0.36</time>
   <time name="total">    9.24    9.30</time>
   <energy>
    <i name="e_fr_energy">   -230.25361078 </i>
    <i name="e_wo_entrp">   -230.22693914 </i>
    <i name="e_0_energy">   -230.24472024 </i>
   </energy>
  </scstep>
  <scstep>
   <time name="diag">    2.66    2.68</time>
   <time name="diis">    5.55    5.59</time>
   <time name="orth">    0.34    0.35</time>
   <time name="total">    9.74    9.81</time>
   <energy>
    <i name="e_fr_energy">   -230.25379425 </i>
    <i name="e_wo_entrp">   -230.22726824 </i>
    <i name="e_0_energy">   -230.24495225 </i>
   </energy>
  </scstep>
  <scstep>
   <time name="diag">    2.83    2.85</time>
   <time name="diis">    5.06    5.10</time>
   <time name="orth">    0.35    0.36</time>
   <time name="total">    9.36    9.43</time>
   <energy>
    <i name="e_fr_energy">   -230.25398413 </i>
    <i name="e_wo_entrp">   -230.22736960 </i>
    <i name="e_0_energy">   -230.24511262 </i>
   </energy>
  </scstep>
  <scstep>
   <time name="diag">    2.43    2.44</time>
   <time name="diis">    4.59    4.62</time>
   <time name="orth">    0.31    0.31</time>
   <time name="total">    8.41    8.47</time>
   <energy>
    <i name="e_fr_energy">   -230.25409815 </i>
    <i name="e_wo_entrp">   -230.22755340 </i>
    <i name="e_0_energy">   -230.24524990 </i>
   </energy>
  </scstep>
  <scstep>
   <time name="diag">    2.71    2.72</time>
   <time name="diis">    4.43    4.46</time>
   <time name="orth">    0.32    0.32</time>
   <time name="total">    8.53    8.59</time>
   <energy>
    <i name="e_fr_energy">   -230.25424868 </i>
    <i name="e_wo_entrp">   -230.22772845 </i>
    <i name="e_0_energy">   -230.24540860 </i>
   </energy>
  </scstep>
  <scstep>
   <time name="diag">    2.55    2.57</time>
   <time name="diis">    4.14    4.17</time>
   <time name="orth">    0.35    0.35</time>
   <time name="total">    7.25    7.30</time>
   <energy>
    <i name="alphaZ">    975.10247152 </i>
    <i name="ewald">  90832.79075734 </i>
    <i name="hartreedc">-119542.16058254 </i>
    <i name="XCdc">    177.90526354 </i>
    <i name="pawpsdc">  30054.51887252 </i>
    <i name="pawaedc"> -29139.97015875 </i>
    <i name="eentropy">     -0.02651384 </i>
    <i name="bandstr">   -848.30858913 </i>
    <i name="atom">  27259.89416086 </i>
    <i name="e_fr_energy">   -230.25431847 </i>
    <i name="e_wo_entrp">   -230.22780463 </i>
    <i name="e_0_energy">   -230.24548052 </i>
   </energy>
  </scstep>
  <structure>
   <crystal>
    <varray name="basis" >
     <v>       7.29695512      -4.21289900       0.00000000 </v>
     <v>       0.00000000       8.42579800       0.00000000 </v>
     <v>       0.00000000       0.00000000      21.87963500 </v>
    </varray>
    <i name="volume">   1345.21837528 </i>
    <varray name="rec_basis" >
     <v>       0.13704346       0.00000000       0.00000000 </v>
     <v>       0.06852173       0.11868312       0.00000000 </v>
     <v>       0.00000000       0.00000000       0.04570460 </v>
    </varray>
   </crystal>
   <varray name="positions" >
    <v>       0.70122117       0.43173937       0.47588712 </v>
    <v>       0.90745644       0.38423229       0.46753375 </v>
    <v>       0.67308463       0.45859525       0.52577565 </v>
    <v>       0.98675500       0.32859100       0.07437600 </v>
    <v>       0.32008800       0.32859100       0.07437600 </v>
    <v>       0.65342200       0.32859100       0.07437600 </v>
    <v>       0.98675500       0.66192500       0.07437600 </v>
    <v>       0.32008800       0.66192500       0.07437600 </v>
    <v>       0.65342200       0.66192500       0.07437600 </v>
    <v>       0.32008800       0.99525800       0.07437600 </v>
    <v>       0.65342200       0.99525800       0.07437600 </v>
    <v>       0.98675500       0.99525800       0.07437600 </v>
    <v>       0.20897700       0.10636900       0.17918600 </v>
    <v>       0.54231100       0.10636900       0.17918600 </v>
    <v>       0.87564400       0.10636900       0.17918600 </v>
    <v>       0.20897700       0.43970300       0.17918600 </v>
    <v>       0.54231100       0.43970300       0.17918600 </v>
    <v>       0.87564400       0.43970300       0.17918600 </v>
    <v>       0.20897700       0.77303600       0.17918600 </v>
    <v>       0.54231100       0.77303600       0.17918600 </v>
    <v>       0.87564400       0.77303600       0.17918600 </v>
    <v>       0.09603209       0.54851295       0.28656084 </v>
    <v>       0.43386678       0.88442039       0.28262343 </v>
    <v>       0.76150189       0.21309089       0.27968266 </v>
    <v>       0.09287963       0.21722517       0.28271603 </v>
    <v>       0.43801529       0.22172120       0.28736412 </v>
    <v>       0.09941109       0.88268246       0.28344569 </v>
    <v>       0.76456197       0.88301549       0.28696717 </v>
    <v>       0.43036597       0.54933718       0.28283363 </v>
    <v>       0.76137592       0.54799382       0.27933789 </v>
    <v>       0.32850932       0.65664465       0.38611068 </v>
    <v>       0.65172032       0.98585179       0.39043027 </v>
    <v>       0.32149565       0.32798240       0.38592993 </v>
    <v>       0.98666646       0.99511193       0.39000652 </v>
    <v>       0.31793233       0.99235462       0.38817293 </v>
    <v>       0.64439400       0.32288505       0.39448196 </v>
    <v>       0.99280451       0.66545260       0.38666213 </v>
    <v>       0.99138940       0.32201207       0.39189891 </v>
    <v>       0.66041464       0.66372458       0.39167921 </v>
   </varray>
  </structure>
  <varray name="forces" >
   <v>      -0.35072945      -1.11236705      -0.74902520 </v>
   <v>       0.53021579       0.17395881      -0.12629165 </v>
   <v>       0.30645736       0.16613526       0.05867649 </v>
   <v>       0.02704630       0.00811851       0.11464458 </v>
   <v>       0.00890195      -0.05217112       0.16914208 </v>
   <v>      -0.04716697      -0.00551838       0.08004217 </v>
   <v>       0.01054901       0.00097885       0.12502031 </v>
   <v>      -0.04310212       0.00829026       0.14167124 </v>
   <v>       0.01890974       0.03061698       0.11822111 </v>
   <v>       0.05449333      -0.02307869       0.09513486 </v>
   <v>       0.02142557      -0.00270453       0.10391567 </v>
   <v>      -0.05375843       0.01783792       0.11340458 </v>
   <v>       0.11246432      -0.05078002       0.12375754 </v>
   <v>      -0.24060644       0.14059217      -0.16985396 </v>
   <v>       0.07397334      -0.30655506      -0.26697646 </v>
   <v>      -0.09643593       0.08772999      -0.01358102 </v>
   <v>      -0.26969103      -0.05031495      -0.15633271 </v>
   <v>       0.23351696      -0.00517502      -0.27879316 </v>
   <v>      -0.06310228      -0.05399720       0.01170912 </v>
   <v>       0.13267949      -0.01924977       0.03280440 </v>
   <v>       0.13362451       0.29410339      -0.14255425 </v>
   <v>       0.02727407      -0.12382796      -0.72653373 </v>
   <v>      -0.19267363       0.02353130       0.17440416 </v>
   <v>       0.09975892       0.19613454       1.16570794 </v>
   <v>       0.11983809      -0.04631210       0.42010407 </v>
   <v>      -0.31161676      -0.36770811      -0.85728686 </v>
   <v>      -0.10320942       0.18960864      -0.09570134 </v>
   <v>      -0.00544759      -0.18565323      -0.66465132 </v>
   <v>       0.22299758       0.01528067      -0.09712643 </v>
   <v>       0.29414740       0.08195323       1.01621743 </v>
   <v>      -0.08474049       0.54320474       0.23275998 </v>
   <v>      -0.08158658       0.39704839      -0.39034708 </v>
   <v>      -0.20378783      -0.13187923       0.28186116 </v>
   <v>       0.18123053      -0.25316321      -0.11387160 </v>
   <v>       0.07814322      -0.32604304       0.01948610 </v>
   <v>      -0.18966313       0.48319727       0.17024261 </v>
   <v>      -0.01620724       0.21661295       0.03724181 </v>
   <v>      -0.26834473       0.04638837       0.46931171 </v>
   <v>      -0.06577742      -0.00482356      -0.42655434 </v>
  </varray>
  <varray name="stress" >
   <v>     -44.38171950       1.22118125       1.00593923 </v>
   <v>       1.22118126     -46.80333530      -0.69378541 </v>
   <v>       1.00593927      -0.69378536      -7.77750567 </v>
  </varray>
  <energy>
   <i name="e_fr_energy">   -230.25431847 </i>
   <i name="e_wo_entrp">   -230.24548052 </i>
   <i name="e_0_energy">     -0.02651384 </i>
  </energy>
  <time name="totalsc">  370.22  373.68</time>
 </calculation>
 <calculation>
  <scstep>
   <time name="dav">   16.62   16.81</time>
   <time name="total">   17.74   18.00</time>
   <energy>
    <i name="alphaZ">    975.10247152 </i>
    <i name="ewald">  90834.67511025 </i>
    <i name="hartreedc">-119545.68832147 </i>
    <i name="XCdc">    177.85067331 </i>
    <i name="pawpsdc">  30054.72037809 </i>
    <i name="pawaedc"> -29140.17451703 </i>
    <i name="eentropy">     -0.02649375 </i>
    <i name="bandstr">   -846.72662944 </i>
    <i name="atom">  27259.89416086 </i>
    <i name="e_fr_energy">   -230.37316766 </i>
    <i name="e_wo_entrp">   -230.34667391 </i>
    <i name="e_0_energy">   -230.36433641 </i>
   </energy>
  </scstep>
  <scstep>
   <time name="diag">    2.64    2.66</time>
   <time name="diis">    9.22    9.31</time>
   <time name="orth">    0.36    0.36</time>
   <time name="total">   13.29   13.41</time>
   <energy>
    <i name="e_fr_energy">   -230.39973819 </i>
    <i name="e_wo_entrp">   -230.37302506 </i>
    <i name="e_0_energy">   -230.39083381 </i>
   </energy>
  </scstep>
  <scstep>
   <time name="diag">    2.70    2.72</time>
   <time name="diis">    9.50    9.58</time>
   <time name="orth">    0.34    0.35</time>
   <time name="total">   13.67   13.78</time>
   <energy>
    <i name="e_fr_energy">   -230.39850870 </i>
    <i name="e_wo_entrp">   -230.36982614 </i>
    <i name="e_0_energy">   -230.38894785 </i>
   </energy>
  </scstep>
  <scstep>
   <time name="diag">    2.65    2.67</time>
   <time name="diis">    9.16    9.24</time>
   <time name="orth">    0.34    0.34</time>
   <time name="total">   13.27   13.38</time>
   <energy>
    <i name="e_fr_energy">   -230.39844195 </i>
    <i name="e_wo_entrp">   -230.37385819 </i>
    <i name="e_0_energy">   -230.39024736 </i>
   </energy>
  </scstep>
  <scstep>
   <time name="diag">    2.35    2.37</time>
   <time name="diis">    9.18    9.26</time>
   <time name="orth">    0.35    0.35</time>
   <time name="total">   12.98   13.09</time>
   <energy>
    <i name="e_fr_energy">   -230.39547872 </i>
    <i name="e_wo_entrp">   -230.36724704 </i>
    <i name="e_0_energy">   -230.38606816 </i>
   </energy>
  </scstep>
  <scstep>
   <time name="diag">    2.74    2.76</time>
   <time name="diis">    9.20    9.27</time>
   <time name="orth">    0.35    0.35</time>
   <time name="total">   13.35   13.46</time>
   <energy>
    <i name="e_fr_energy">   -230.39501261 </i>
    <i name="e_wo_entrp">   -230.36810605 </i>
    <i name="e_0_energy">   -230.38604375 </i>
   </energy>
  </scstep>
  <scstep>
   <time name="diag">    2.66    2.68</time>
   <time name="diis">    8.76    8.83</time>
   <time name="orth">    0.35    0.35</time>
   <time name="total">   12.80   12.90</time>
   <energy>
    <i name="e_fr_energy">   -230.39446499 </i>
    <i name="e_wo_entrp">   -230.36749369 </i>
    <i name="e_0_energy">   -230.38547456 </i>
   </energy>
  </scstep>
  <scstep>
   <time name="diag">    2.38    2.40</time>
   <time name="diis">    7.10    7.16</time>
   <time name="orth">    0.34    0.34</time>
   <time name="total">   10.80   10.89</time>
   <energy>
    <i name="e_fr_energy">   -230.39428805 </i>
    <i name="e_wo_entrp">   -230.36652889 </i>
    <i name="e_0_energy">   -230.38503500 </i>
   </energy>
  </scstep>
  <scstep>
   <time name="diag">    2.69    2.71</time>
   <time name="diis">    5.30    5.34</time>
   <time name="orth">    0.33    0.34</time>
   <time name="total">    8.55    8.62</time>
   <energy>
    <i name="alphaZ">    975.10247152 </i>
    <i name="ewald">  90834.67511025 </i>
    <i name="hartreedc">-119541.36261563 </i>
    <i name="XCdc">    177.80819722 </i>
    <i name="pawpsdc">  30049.45726395 </i>
    <i name="pawaedc"> -29134.90465711 </i>
    <i name="eentropy">     -0.02701821 </i>
    <i name="bandstr">   -851.03713980 </i>
    <i name="atom">  27259.89416086 </i>
    <i name="e_fr_energy">   -230.39422695 </i>
    <i name="e_wo_entrp">   -230.36720874 </i>
    <i name="e_0_energy">   -230.38522088 </i>
   </energy>
  </scstep>
  <structure>
   <crystal>
    <varray name="basis" >
     <v>       7.29695512      -4.21289900       0.00000000 </v>
     <v>       0.00000000       8.42579800       0.00000000 </v>
     <v>       0.00000000       0.00000000      21.87963500 </v>
    </varray>
    <i name="volume">   1345.21837528 </i>
    <varray name="rec_basis" >
     <v>       0.13704346       0.00000000       0.00000000 </v>
     <v>       0.06852173       0.11868312       0.00000000 </v>
     <v>       0.00000000       0.00000000       0.04570460 </v>
    </varray>
   </crystal>
   <varray name="positions" >
    <v>       0.70029366       0.42872802       0.47522650 </v>
    <v>       0.90885861       0.38533179       0.46742236 </v>
    <v>       0.67389507       0.45938096       0.52582740 </v>
    <v>       0.98675500       0.32859100       0.07437600 </v>
    <v>       0.32008800       0.32859100       0.07437600 </v>
    <v>       0.65342200       0.32859100       0.07437600 </v>
    <v>       0.98675500       0.66192500       0.07437600 </v>
    <v>       0.32008800       0.66192500       0.07437600 </v>
    <v>       0.65342200       0.66192500       0.07437600 </v>
    <v>       0.32008800       0.99525800       0.07437600 </v>
    <v>       0.65342200       0.99525800       0.07437600 </v>
    <v>       0.98675500       0.99525800       0.07437600 </v>
    <v>       0.20897700       0.10636900       0.17918600 </v>
    <v>       0.54231100       0.10636900       0.17918600 </v>
    <v>       0.87564400       0.10636900       0.17918600 </v>
    <v>       0.20897700       0.43970300       0.17918600 </v>
    <v>       0.54231100       0.43970300       0.17918600 </v>
    <v>       0.87564400       0.43970300       0.17918600 </v>
    <v>       0.20897700       0.77303600       0.17918600 </v>
    <v>       0.54231100       0.77303600       0.17918600 </v>
    <v>       0.87564400       0.77303600       0.17918600 </v>
    <v>       0.09610422       0.54826542       0.28592006 </v>
    <v>       0.43335725       0.88421952       0.28277725 </v>
    <v>       0.76176571       0.21367199       0.28071077 </v>
    <v>       0.09319654       0.21727757       0.28308655 </v>
    <v>       0.43719121       0.22046702       0.28660802 </v>
    <v>       0.09913815       0.88298023       0.28336128 </v>
    <v>       0.76454757       0.88258309       0.28638097 </v>
    <v>       0.43095570       0.54966703       0.28274797 </v>
    <v>       0.76215381       0.54857046       0.28023416 </v>
    <v>       0.32828522       0.65777667       0.38631596 </v>
    <v>       0.65150457       0.98665324       0.39008600 </v>
    <v>       0.32095672       0.32741090       0.38617853 </v>
    <v>       0.98714573       0.99477176       0.38990609 </v>
    <v>       0.31813898       0.99171123       0.38819012 </v>
    <v>       0.64389243       0.32374090       0.39463211 </v>
    <v>       0.99276165       0.66592726       0.38669498 </v>
    <v>       0.99067975       0.32176348       0.39231283 </v>
    <v>       0.66024069       0.66362656       0.39130301 </v>
   </varray>
  </structure>
  <varray name="forces" >
   <v>      -0.49411225      -0.47400180       1.23362624 </v>
   <v>       0.50006295       0.25377068       0.04021813 </v>
   <v>       0.55860663      -0.41002167      -1.62203163 </v>
   <v>       0.02740320       0.00030502       0.11956798 </v>
   <v>      -0.00240238      -0.04920526       0.16292050 </v>
   <v>      -0.04323049      -0.00295316       0.09100959 </v>
   <v>       0.01130844       0.01227270       0.12377518 </v>
   <v>      -0.03900974       0.01239192       0.13772055 </v>
   <v>       0.01923395       0.02585855       0.12455819 </v>
   <v>       0.04427488      -0.02873220       0.08185034 </v>
   <v>       0.01535302       0.00281059       0.11047723 </v>
   <v>      -0.04286178       0.01504637       0.10096221 </v>
   <v>       0.08390373      -0.03511770       0.08050709 </v>
   <v>      -0.17938547       0.11817981      -0.12232974 </v>
   <v>       0.06868790      -0.25543428      -0.20009664 </v>
   <v>      -0.09085198       0.05985269      -0.01560623 </v>
   <v>      -0.20787248      -0.05012394      -0.11917981 </v>
   <v>       0.17183662      -0.00729847      -0.19759912 </v>
   <v>      -0.05802083      -0.03953214      -0.00890800 </v>
   <v>       0.12366998      -0.00442530       0.01384906 </v>
   <v>       0.11747745       0.25487690      -0.14781758 </v>
   <v>       0.03653924      -0.10691733      -0.53006342 </v>
   <v>      -0.15051147       0.00519383       0.11691246 </v>
   <v>       0.09051787       0.15672578       0.94194686 </v>
   <v>       0.09064799      -0.02619169       0.35358592 </v>
   <v>      -0.26954096      -0.24566396      -0.66549068 </v>
   <v>      -0.07512577       0.13609250      -0.08895076 </v>
   <v>      -0.00606778      -0.10010754      -0.55058715 </v>
   <v>       0.15319083      -0.01145903      -0.01544480 </v>
   <v>       0.21967548       0.02222732       0.79797191 </v>
   <v>      -0.11106601       0.43618773       0.16234469 </v>
   <v>      -0.04074618       0.32104455      -0.36693403 </v>
   <v>      -0.15447696      -0.10240363       0.19094349 </v>
   <v>       0.12342311      -0.19579902      -0.11078383 </v>
   <v>       0.07860684      -0.24949146       0.01318904 </v>
   <v>      -0.30821688       0.33570518      -0.14277775 </v>
   <v>       0.02493358       0.14234574       0.02209206 </v>
   <v>      -0.19041804       0.00090715       0.31555928 </v>
   <v>      -0.09543622       0.08308458      -0.43098681 </v>
  </varray>
  <varray name="stress" >
   <v>     -44.74705235       1.37316045       1.66634290 </v>
   <v>       1.37316040     -47.46796065      -1.24480583 </v>
   <v>       1.66634292      -1.24480588      -9.66249004 </v>
  </varray>
  <energy>
   <i name="e_fr_energy">   -230.39422695 </i>
   <i name="e_wo_entrp">   -230.38522088 </i>
   <i name="e_0_energy">     -0.02701821 </i>
  </energy>
  <time name="totalsc">  136.52  138.31</time>
 </calculation>
 <calculation>
  <scstep>
   <time name="dav">   15.63   15.76</time>
   <time name="total">   16.60   16.75</time>
   <energy>
    <i name="alphaZ">    975.10247152 </i>
    <i name="ewald">  90853.33488049 </i>
    <i name="hartreedc">-119557.68748851 </i>
    <i name="XCdc">    177.89334394 </i>
    <i name="pawpsdc">  30049.37920133 </i>
    <i name="pawaedc"> -29134.82697170 </i>
    <i name="eentropy">     -0.02705660 </i>
    <i name="bandstr">   -853.50406240 </i>
    <i name="atom">  27259.89416086 </i>
    <i name="e_fr_energy">   -230.44152106 </i>
    <i name="e_wo_entrp">   -230.41446447 </i>
    <i name="e_0_energy">   -230.43250220 </i>
   </energy>
  </scstep>
  <scstep>
   <time name="diag">    2.13    2.15</time>
   <time name="diis">    8.66    8.72</time>
   <time name="orth">    0.30    0.30</time>
   <time name="total">   12.09   12.17</time>
   <energy>
    <i name="e_fr_energy">   -230.45459709 </i>
    <i name="e_wo_entrp">   -230.42815602 </i>
    <i name="e_0_energy">   -230.44578340 </i>
   </energy>
  </scstep>
  <scstep>
   <time name="diag">    2.15    2.16</time>
   <time name="diis">    8.28    8.34</time>
   <time name="orth">    0.31    0.32</time>
   <time name="total">   11.62   11.70</time>
   <energy>
    <i name="e_fr_energy">   -230.45316335 </i>
    <i name="e_wo_entrp">   -230.42475059 </i>
    <i name="e_0_energy">   -230.44369243 </i>
   </energy>
  </scstep>
  <scstep>
   <time name="diag">    2.11    2.13</time>
   <time name="diis">    8.01    8.08</time>
   <time name="orth">    0.31    0.32</time>
   <time name="total">   11.40   11.49</time>
   <energy>
    <i name="e_fr_energy">   -230.45264861 </i>
    <i name="e_wo_entrp">   -230.42714433 </i>
    <i name="e_0_energy">   -230.44414719 </i>
   </energy>
  </scstep>
  <scstep>
   <time name="diag">    2.27    2.29</time>
   <time name="diis">    8.49    8.57</time>
   <time name="orth">    0.30    0.30</time>
   <time name="total">   12.08   12.18</time>
   <energy>
    <i name="e_fr_energy">   -230.45215712 </i>
    <i name="e_wo_entrp">   -230.42463902 </i>
    <i name="e_0_energy">   -230.44298442 </i>
   </energy>
  </scstep>
  <scstep>
   <time name="diag">    2.38    2.40</time>
   <time name="diis">    8.22    8.29</time>
   <time name="orth">    0.32    0.33</time>
   <time name="total">   11.84   11.93</time>
   <energy>
    <i name="e_fr_energy">   -230.45118899 </i>
    <i name="e_wo_entrp">   -230.42422245 </i>
    <i name="e_0_energy">   -230.44220014 </i>
   </energy>
  </scstep>
  <scstep>
   <time name="diag">    2.38    2.40</time>
   <time name="diis">    7.75    7.82</time>
   <time name="orth">    0.33    0.33</time>
   <time name="total">   11.52   11.62</time>
   <energy>
    <i name="e_fr_energy">   -230.45100047 </i>
    <i name="e_wo_entrp">   -230.42453107 </i>
    <i name="e_0_energy">   -230.44217734 </i>
   </energy>
  </scstep>
  <scstep>
   <time name="diag">    2.79    2.82</time>
   <time name="diis">    5.77    5.82</time>
   <time name="orth">    0.32    0.33</time>
   <time name="total">    9.09    9.17</time>
   <energy>
    <i name="alphaZ">    975.10247152 </i>
    <i name="ewald">  90853.33488049 </i>
    <i name="hartreedc">-119562.35341429 </i>
    <i name="XCdc">    177.95603756 </i>
    <i name="pawpsdc">  30053.28480469 </i>
    <i name="pawaedc"> -29138.73845785 </i>
    <i name="eentropy">     -0.02706634 </i>
    <i name="bandstr">   -848.90432795 </i>
    <i name="atom">  27259.89416086 </i>
    <i name="e_fr_energy">   -230.45091129 </i>
    <i name="e_wo_entrp">   -230.42384495 </i>
    <i name="e_0_energy">   -230.44188918 </i>
   </energy>
  </scstep>
  <structure>
   <crystal>
    <varray name="basis" >
     <v>       7.29695512      -4.21289900       0.00000000 </v>
     <v>       0.00000000       8.42579800       0.00000000 </v>
     <v>       0.00000000       0.00000000      21.87963500 </v>
    </varray>
    <i name="volume">   1345.21837528 </i>
    <varray name="rec_basis" >
     <v>       0.13704346       0.00000000       0.00000000 </v>
     <v>       0.06852173       0.11868312       0.00000000 </v>
     <v>       0.00000000       0.00000000       0.04570460 </v>
    </varray>
   </crystal>
   <varray name="positions" >
    <v>       0.69968556       0.42791878       0.47573283 </v>
    <v>       0.90947403       0.38590997       0.46743887 </v>
    <v>       0.67458254       0.45928769       0.52516165 </v>
    <v>       0.98675500       0.32859100       0.07437600 </v>
    <v>       0.32008800       0.32859100       0.07437600 </v>
    <v>       0.65342200       0.32859100       0.07437600 </v>
    <v>       0.98675500       0.66192500       0.07437600 </v>
    <v>       0.32008800       0.66192500       0.07437600 </v>
    <v>       0.65342200       0.66192500       0.07437600 </v>
    <v>       0.32008800       0.99525800       0.07437600 </v>
    <v>       0.65342200       0.99525800       0.07437600 </v>
    <v>       0.98675500       0.99525800       0.07437600 </v>
    <v>       0.20897700       0.10636900       0.17918600 </v>
    <v>       0.54231100       0.10636900       0.17918600 </v>
    <v>       0.87564400       0.10636900       0.17918600 </v>
    <v>       0.20897700       0.43970300       0.17918600 </v>
    <v>       0.54231100       0.43970300       0.17918600 </v>
    <v>       0.87564400       0.43970300       0.17918600 </v>
    <v>       0.20897700       0.77303600       0.17918600 </v>
    <v>       0.54231100       0.77303600       0.17918600 </v>
    <v>       0.87564400       0.77303600       0.17918600 </v>
    <v>       0.09614919       0.54817395       0.28570250 </v>
    <v>       0.43317202       0.88413244       0.28282524 </v>
    <v>       0.76187711       0.21389473       0.28109738 </v>
    <v>       0.09330810       0.21730543       0.28323167 </v>
    <v>       0.43685948       0.22003933       0.28633488 </v>
    <v>       0.09904569       0.88307905       0.28332477 </v>
    <v>       0.76454010       0.88247266       0.28615499 </v>
    <v>       0.43114423       0.54974909       0.28274163 </v>
    <v>       0.76242416       0.54872933       0.28056168 </v>
    <v>       0.32814853       0.65817322       0.38638260 </v>
    <v>       0.65145442       0.98697034       0.38993539 </v>
    <v>       0.32076661       0.32720670       0.38625690 </v>
    <v>       0.98729763       0.99463903       0.38986062 </v>
    <v>       0.31823572       0.99149369       0.38819553 </v>
    <v>       0.64351311       0.32390904       0.39457351 </v>
    <v>       0.99279233       0.66609432       0.38670405 </v>
    <v>       0.99044541       0.32164728       0.39244235 </v>
    <v>       0.66012324       0.66365638       0.39112611 </v>
   </varray>
  </structure>
  <varray name="forces" >
   <v>      -0.20746126      -1.19013796      -1.01047423 </v>
   <v>       0.53934740       0.22691126       0.02217874 </v>
   <v>       0.19186435       0.30391945       0.56038507 </v>
   <v>       0.02718733      -0.00386675       0.11960793 </v>
   <v>      -0.00692319      -0.05021592       0.16452245 </v>
   <v>      -0.04284390      -0.00495516       0.09817474 </v>
   <v>       0.01309310       0.01540030       0.12148964 </v>
   <v>      -0.03882986       0.01351687       0.13712286 </v>
   <v>       0.01917243       0.02237107       0.12404848 </v>
   <v>       0.04175002      -0.03168163       0.08412072 </v>
   <v>       0.01347172       0.00686049       0.11520567 </v>
   <v>      -0.03650651       0.01492514       0.09609818 </v>
   <v>       0.07542229      -0.02961282       0.06845898 </v>
   <v>      -0.15770160       0.11040109      -0.10618473 </v>
   <v>       0.06857526      -0.23348337      -0.17172735 </v>
   <v>      -0.08896685       0.04887628      -0.01557872 </v>
   <v>      -0.18656068      -0.05114853      -0.10612063 </v>
   <v>       0.15096695      -0.00960954      -0.16675765 </v>
   <v>      -0.05635170      -0.03549577      -0.01707644 </v>
   <v>       0.11775152      -0.00041036       0.00626587 </v>
   <v>       0.11245816       0.23698035      -0.14702628 </v>
   <v>       0.03595196      -0.09883422      -0.47362716 </v>
   <v>      -0.13541896       0.00169275       0.09275232 </v>
   <v>       0.07956766       0.13632873       0.85425504 </v>
   <v>       0.07985502      -0.01751668       0.32268842 </v>
   <v>      -0.24863994      -0.21221191      -0.59575312 </v>
   <v>      -0.07061027       0.11701813      -0.08212731 </v>
   <v>      -0.00225744      -0.07304339      -0.51094124 </v>
   <v>       0.12806470      -0.02046167      -0.00106760 </v>
   <v>       0.19572484       0.00567340       0.71933181 </v>
   <v>      -0.11738389       0.39926504       0.14179124 </v>
   <v>      -0.02856440       0.30128629      -0.35268235 </v>
   <v>      -0.14322410      -0.08190658       0.15885998 </v>
   <v>       0.10397792      -0.17755725      -0.10590541 </v>
   <v>       0.07035992      -0.22378256       0.01014342 </v>
   <v>      -0.26372575       0.35720902      -0.04644914 </v>
   <v>       0.03308283       0.11310274       0.01597365 </v>
   <v>      -0.16531230       0.00366491       0.31271281 </v>
   <v>      -0.10036275       0.11052878      -0.43668866 </v>
  </varray>
  <varray name="stress" >
   <v>     -44.79822182       1.08960170       1.05939935 </v>
   <v>       1.08960174     -47.32299655      -0.35631583 </v>
   <v>       1.05939943      -0.35631582      -6.90469662 </v>
  </varray>
  <energy>
   <i name="e_fr_energy">   -230.45091129 </i>
   <i name="e_wo_entrp">   -230.44188918 </i>
   <i name="e_0_energy">     -0.02706634 </i>
  </energy>
  <time name="totalsc">  116.70  118.06</time>
 </calculation>
 <calculation>
  <scstep>
