metal                                   
           1
     7.296955   -4.212899    0.000000
     0.000000    8.425798    0.000000
     0.000000    0.000000   21.879635
   C    O    Pt
   1   2  36
Direct configuration=     1
   0.70122117  0.43173937  0.47588712
   0.90745644  0.38423229  0.46753375
   0.67308463  0.45859525  0.52577565
   0.98675500  0.32859100  0.07437600
   0.32008800  0.32859100  0.07437600
   0.65342200  0.32859100  0.07437600
   0.98675500  0.66192500  0.07437600
   0.32008800  0.66192500  0.07437600
   0.65342200  0.66192500  0.07437600
   0.32008800  0.99525800  0.07437600
   0.65342200  0.99525800  0.07437600
   0.98675500  0.99525800  0.07437600
   0.20897700  0.10636900  0.17918600
   0.54231100  0.10636900  0.17918600
   0.87564400  0.10636900  0.17918600
   0.20897700  0.43970300  0.17918600
   0.54231100  0.43970300  0.17918600
   0.87564400  0.43970300  0.17918600
   0.20897700  0.77303600  0.17918600
   0.54231100  0.77303600  0.17918600
   0.87564400  0.77303600  0.17918600
   0.09603209  0.54851295  0.28656084
   0.43386678  0.88442039  0.28262343
   0.76150189  0.21309089  0.27968266
   0.09287963  0.21722517  0.28271603
   0.43801529  0.22172120  0.28736412
   0.09941109  0.88268246  0.28344569
   0.76456197  0.88301549  0.28696717
   0.43036597  0.54933718  0.28283363
   0.76137592  0.54799382  0.27933789
   0.32850932  0.65664465  0.38611068
   0.65172032  0.98585179  0.39043027
   0.32149565  0.32798240  0.38592993
   0.98666646  0.99511193  0.39000652
   0.31793233  0.99235462  0.38817293
   0.64439400  0.32288505  0.39448196
   0.99280451  0.66545260  0.38666213
   0.99138940  0.32201207  0.39189891
   0.66041464  0.66372458  0.39167921
Direct configuration=     2
   0.70029366  0.42872802  0.47522650
   0.90885861  0.38533179  0.46742236
   0.67389507  0.45938096  0.52582740
   0.98675500  0.32859100  0.07437600
   0.32008800  0.32859100  0.07437600
   0.65342200  0.32859100  0.07437600
   0.98675500  0.66192500  0.07437600
   0.32008800  0.66192500  0.07437600
   0.65342200  0.66192500  0.07437600
   0.32008800  0.99525800  0.07437600
   0.65342200  0.99525800  0.07437600
   0.98675500  0.99525800  0.07437600
   0.20897700  0.10636900  0.17918600
   0.54231100  0.10636900  0.17918600
   0.87564400  0.10636900  0.17918600
   0.20897700  0.43970300  0.17918600
   0.54231100  0.43970300  0.17918600
   0.87564400  0.43970300  0.17918600
   0.20897700  0.77303600  0.17918600
   0.54231100  0.77303600  0.17918600
   0.87564400  0.77303600  0.17918600
   0.09610422  0.54826542  0.28592006
   0.43335725  0.88421952  0.28277725
   0.76176571  0.21367199  0.28071077
   0.09319654  0.21727757  0.28308655
   0.43719121  0.22046702  0.28660802
   0.09913815  0.88298023  0.28336128
   0.76454757  0.88258309  0.28638097
   0.43095570  0.54966703  0.28274797
   0.76215381  0.54857046  0.28023416
   0.32828522  0.65777667  0.38631596
   0.65150457  0.98665324  0.39008600
   0.32095672  0.32741090  0.38617853
   0.98714573  0.99477176  0.38990609
   0.31813898  0.99171123  0.38819012
   0.64389243  0.32374090  0.39463211
   0.99276165  0.66592726  0.38669498
   0.99067975  0.32176348  0.39231283
   0.66024069  0.66362656  0.39130301
Direct configuration=     3
   0.69968556  0.42791878  0.47573283
   0.90947403  0.38590997  0.46743887
   0.67458254  0.45928769  0.52516165
   0.98675500  0.32859100  0.07437600
   0.32008800  0.32859100  0.07437600
   0.65342200  0.32859100  0.07437600
   0.98675500  0.66192500  0.07437600
   0.32008800  0.66192500  0.07437600
   0.65342200  0.66192500  0.07437600
   0.32008800  0.99525800  0.07437600
   0.65342200  0.99525800  0.07437600
   0.98675500  0.99525800  0.07437600
   0.20897700  0.10636900  0.17918600
   0.54231100  0.10636900  0.17918600
   0.87564400  0.10636900  0.17918600
   0.20897700  0.43970300  0.17918600
   0.54231100  0.43970300  0.17918600
   0.87564400  0.43970300  0.17918600
   0.20897700  0.77303600  0.17918600
   0.54231100  0.77303600  0.17918600
   0.87564400  0.77303600  0.17918600
   0.09614919  0.54817395  0.28570250
   0.43317202  0.88413244  0.28282524
   0.76187711  0.21389473  0.28109738
   0.09330810  0.21730543  0.28323167
   0.43685948  0.22003933  0.28633488
   0.09904569  0.88307905  0.28332477
   0.76454010  0.88247266  0.28615499
   0.43114423  0.54974909  0.28274163
   0.76242416  0.54872933  0.28056168
   0.32814853  0.65817322  0.38638260
   0.65145442  0.98697034  0.38993539
   0.32076661  0.32720670  0.38625690
   0.98729763  0.99463903  0.38986062
   0.31823572  0.99149369  0.38819553
   0.64351311  0.32390904  0.39457351
   0.99279233  0.66609432  0.38670405
   0.99044541  0.32164728  0.39244235
   0.66012324  0.66365638  0.39112611
