       N       E                     dE             d eps       ncg     rms          rms(c)
DAV:   1     0.242011092259E+04    0.24201E+04   -0.15950E+05  1824   0.129E+03
DAV:   2    -0.634213932976E+02   -0.24835E+04   -0.23060E+04  2120   0.286E+02
DAV:   3    -0.239763891591E+03   -0.17634E+03   -0.16004E+03  2152   0.689E+01
DAV:   4    -0.247588110259E+03   -0.78242E+01   -0.75027E+01  2344   0.138E+01
DAV:   5    -0.247813577339E+03   -0.22547E+00   -0.22360E+00  2400   0.242E+00    0.272E+01
RMM:   6    -0.244218490347E+03    0.35951E+01   -0.54891E+01  1831   0.148E+01    0.266E+01
RMM:   7    -0.237761550608E+03    0.64569E+01   -0.30383E+01  1829   0.867E+00    0.188E+01
RMM:   8    -0.232482268682E+03    0.52793E+01   -0.77722E+00  1831   0.487E+00    0.121E+01
RMM:   9    -0.234427114228E+03   -0.19448E+01   -0.20284E+00  1830   0.223E+00    0.163E+01
RMM:  10    -0.230254686948E+03    0.41724E+01   -0.11788E+00  1831   0.172E+00    0.395E+00
RMM:  11    -0.230006078011E+03    0.24861E+00   -0.38621E-01  1831   0.999E-01    0.267E+00
RMM:  12    -0.229948713107E+03    0.57365E-01   -0.17727E-01  1831   0.676E-01    0.260E+00
RMM:  13    -0.229915445443E+03    0.33268E-01   -0.14590E-01  1831   0.638E-01    0.186E+00
RMM:  14    -0.229870238971E+03    0.45206E-01   -0.71950E-02  1831   0.463E-01    0.782E-01
RMM:  15    -0.229862584174E+03    0.76548E-02   -0.20594E-02  1831   0.238E-01    0.444E-01
RMM:  16    -0.229859871980E+03    0.27122E-02   -0.44181E-03  1830   0.114E-01    0.214E-01
RMM:  17    -0.229859458154E+03    0.41383E-03   -0.13325E-03  1809   0.619E-02    0.139E-01
RMM:  18    -0.229859486211E+03   -0.28057E-04   -0.57723E-04  1563   0.409E-02
   1 F= -.22985949E+03 E0= -.22985147E+03  d E =-.229859E+03
       N       E                     dE             d eps       ncg     rms          rms(c)
DAV:   1    -0.230172984936E+03   -0.31353E+00   -0.54459E+01  1856   0.140E+01    0.138E+00
RMM:   2    -0.230492288962E+03   -0.31930E+00   -0.14515E+00  1832   0.227E+00    0.463E+00
RMM:   3    -0.230316267870E+03    0.17602E+00   -0.13372E-01  1847   0.618E-01    0.176E+00
RMM:   4    -0.230281588395E+03    0.34679E-01   -0.40906E-02  1843   0.334E-01    0.108E+00
RMM:   5    -0.230263616895E+03    0.17972E-01   -0.14944E-02  1835   0.203E-01    0.568E-01
RMM:   6    -0.230261202406E+03    0.24145E-02   -0.94871E-03  1831   0.169E-01    0.368E-01
RMM:   7    -0.230262630369E+03   -0.14280E-02   -0.89177E-03  1830   0.162E-01    0.443E-01
RMM:   8    -0.230259678195E+03    0.29522E-02   -0.33737E-03  1830   0.100E-01    0.113E-01
RMM:   9    -0.230259614700E+03    0.63495E-04   -0.58241E-04  1594   0.414E-02
   2 F= -.23025961E+03 E0= -.23025318E+03  d E =-.400128E+00
       N       E                     dE             d eps       ncg     rms          rms(c)
DAV:   1    -0.230324646326E+03   -0.64968E-01   -0.26411E+01  1832   0.979E+00    0.782E-01
RMM:   2    -0.230408370029E+03   -0.83724E-01   -0.83311E-01  1842   0.156E+00    0.921E-01
RMM:   3    -0.230404806762E+03    0.35633E-02   -0.37557E-02  1848   0.325E-01    0.969E-01
RMM:   4    -0.230394423610E+03    0.10383E-01   -0.83011E-03  1847   0.150E-01    0.663E-01
RMM:   5    -0.230390152050E+03    0.42716E-02   -0.61882E-03  1834   0.124E-01    0.480E-01
RMM:   6    -0.230390137560E+03    0.14490E-04   -0.10107E-02  1830   0.161E-01    0.428E-01
RMM:   7    -0.230387357562E+03    0.27800E-02   -0.50587E-03  1829   0.120E-01    0.180E-01
RMM:   8    -0.230386973075E+03    0.38449E-03   -0.10361E-03  1814   0.561E-02    0.100E-01
RMM:   9    -0.230386883410E+03    0.89665E-04   -0.25619E-04  1073   0.291E-02
   3 F= -.23038688E+03 E0= -.23038048E+03  d E =-.127269E+00
       N       E                     dE             d eps       ncg     rms          rms(c)
DAV:   1    -0.230506843552E+03   -0.11987E+00   -0.11567E+01  1828   0.625E+00    0.697E-01
RMM:   2    -0.230536687889E+03   -0.29844E-01   -0.32518E-01  1841   0.107E+00    0.756E-01
RMM:   3    -0.230542259130E+03   -0.55712E-02   -0.18551E-02  1861   0.232E-01    0.103E+00
RMM:   4    -0.230527827325E+03    0.14432E-01   -0.77725E-03  1841   0.146E-01    0.442E-01
RMM:   5    -0.230527225897E+03    0.60143E-03   -0.84765E-03  1831   0.154E-01    0.483E-01
RMM:   6    -0.230525339642E+03    0.18863E-02   -0.56863E-03  1830   0.126E-01    0.299E-01
RMM:   7    -0.230524085738E+03    0.12539E-02   -0.17932E-03  1821   0.713E-02    0.116E-01
RMM:   8    -0.230523933359E+03    0.15238E-03   -0.52420E-04  1524   0.396E-02    0.656E-02
RMM:   9    -0.230523910377E+03    0.22982E-04   -0.12658E-04   989   0.209E-02
   4 F= -.23052391E+03 E0= -.23051704E+03  d E =-.137027E+00
       N       E                     dE             d eps       ncg     rms          rms(c)
DAV:   1    -0.230588001062E+03   -0.64068E-01   -0.37378E+01  1832   0.117E+01    0.848E-01
RMM:   2    -0.230701316852E+03   -0.11332E+00   -0.73644E-01  1836   0.174E+00    0.174E+00
RMM:   3    -0.230665732924E+03    0.35584E-01   -0.50742E-02  1874   0.393E-01    0.104E+00
RMM:   4    -0.230652171361E+03    0.13562E-01   -0.16353E-02  1845   0.217E-01    0.544E-01
RMM:   5    -0.230648879384E+03    0.32920E-02   -0.57255E-03  1835   0.128E-01    0.349E-01
RMM:   6    -0.230649847968E+03   -0.96858E-03   -0.61683E-03  1831   0.130E-01    0.398E-01
RMM:   7    -0.230648409106E+03    0.14389E-02   -0.42033E-03  1831   0.111E-01    0.211E-01
RMM:   8    -0.230647803177E+03    0.60593E-03   -0.94291E-04  1784   0.531E-02    0.824E-02
RMM:   9    -0.230647722099E+03    0.81077E-04   -0.19609E-04  1027   0.251E-02
   5 F= -.23064772E+03 E0= -.23064019E+03  d E =-.123812E+00
       N       E                     dE             d eps       ncg     rms          rms(c)
DAV:   1    -0.230674914674E+03   -0.27111E-01   -0.30131E+00  1824   0.350E+00    0.286E-01
RMM:   2    -0.230686857598E+03   -0.11943E-01   -0.67600E-02  1833   0.489E-01    0.644E-01
RMM:   3    -0.230682130731E+03    0.47269E-02   -0.44992E-03  1853   0.116E-01    0.320E-01
RMM:   4    -0.230681017982E+03    0.11127E-02   -0.17451E-03  1831   0.703E-02    0.207E-01
RMM:   5    -0.230680477692E+03    0.54029E-03   -0.51641E-04  1491   0.397E-02    0.104E-01
RMM:   6    -0.230680486032E+03   -0.83399E-05   -0.36597E-04  1216   0.330E-02    0.945E-02
RMM:   7    -0.230680477099E+03    0.89333E-05   -0.30156E-04  1123   0.325E-02    0.700E-02
RMM:   8    -0.230680420934E+03    0.56165E-04   -0.12550E-04   964   0.226E-02
   6 F= -.23068042E+03 E0= -.23067279E+03  d E =-.326988E-01
       N       E                     dE             d eps       ncg     rms          rms(c)
