 vasp.5.4.4 16052018 (build Apr 24 2014 20:13:14) complex standard
 Contain Constrained Minimization Technique (TS), Periodic NBO, VASPsol, libbeef, VASP2WANNIER90, Constrained Cell Relaxation
 executed on Center for Computational Chemistry by phu@node07 date 2025.11.24 20:16:39
 running on    8 total cores
 distrk:  each k-point on    8 cores,    1 groups
 distr:  one band on NCORES_PER_BAND=   2 cores,    4 groups


--------------------------------------------------------------------------------------------------------


 INCAR:
 POTCAR:   PAW_PBE C 08Apr2002                    
 POTCAR:   PAW_PBE O 08Apr2002                    
 POTCAR:    PAW_PBE Pt 04Feb2005                  
 POTCAR:   PAW_PBE C 08Apr2002                    
   VRHFIN =C: s2p2                                                              
   LEXCH  = PE                                                                  
   EATOM  =   147.1560 eV,   10.8157 Ry                                         
                                                                                
   TITEL  = PAW_PBE C 08Apr2002                                                 
   LULTRA =        F    use ultrasoft PP ?                                      
   IUNSCR =        0    unscreen: 0-lin 1-nonlin 2-no                           
   RPACOR =     .000    partial core radius                                     
   POMASS =   12.011; ZVAL   =    4.000    mass and valenz                      
   RCORE  =    1.500    outmost cutoff radius                                   
   RWIGS  =    1.630; RWIGS  =     .863    wigner-seitz radius (au A)           
   ENMAX  =  400.000; ENMIN  =  300.000 eV                                      
   ICORE  =        2    local potential                                         
   LCOR   =        T    correct aug charges                                     
   LPAW   =        T    paw PP                                                  
   EAUG   =  644.873                                                            
   DEXC   =     .000                                                            
   RMAX   =    2.266    core radius for proj-oper                               
   RAUG   =    1.300    factor for augmentation sphere                          
   RDEP   =    1.501    radius for radial grids                                 
   RDEPT  =    1.300    core radius for aug-charge                              
   QCUT   =   -5.516; QGAM   =   11.032    optimization parameters              
                                                                                
   Description                                                                  
     l     E      TYP  RCUT    TYP  RCUT                                        
     0   .000     23  1.200                                                     
     0   .000     23  1.200                                                     
     1   .000     23  1.500                                                     
     1  2.500     23  1.500                                                     
     2   .000      7  1.500                                                     
  local pseudopotential read in
  atomic valenz-charges read in
  non local Contribution for L=           0  read in
    real space projection operators read in
  non local Contribution for L=           0  read in
    real space projection operators read in
  non local Contribution for L=           1  read in
    real space projection operators read in
  non local Contribution for L=           1  read in
    real space projection operators read in
    PAW grid and wavefunctions read in
 
   number of l-projection  operators is LMAX  =           4
   number of lm-projection operators is LMMAX =           8
 
 POTCAR:   PAW_PBE O 08Apr2002                    
   VRHFIN =O: s2p4                                                              
   LEXCH  = PE                                                                  
   EATOM  =   432.3788 eV,   31.7789 Ry                                         
                                                                                
   TITEL  = PAW_PBE O 08Apr2002                                                 
   LULTRA =        F    use ultrasoft PP ?                                      
   IUNSCR =        0    unscreen: 0-lin 1-nonlin 2-no                           
   RPACOR =     .000    partial core radius                                     
   POMASS =   16.000; ZVAL   =    6.000    mass and valenz                      
   RCORE  =    1.520    outmost cutoff radius                                   
   RWIGS  =    1.550; RWIGS  =     .820    wigner-seitz radius (au A)           
   ENMAX  =  400.000; ENMIN  =  300.000 eV                                      
   ICORE  =        2    local potential                                         
   LCOR   =        T    correct aug charges                                     
   LPAW   =        T    paw PP                                                  
   EAUG   =  605.392                                                            
   DEXC   =     .000                                                            
   RMAX   =    2.264    core radius for proj-oper                               
   RAUG   =    1.300    factor for augmentation sphere                          
   RDEP   =    1.550    radius for radial grids                                 
   QCUT   =   -5.520; QGAM   =   11.041    optimization parameters              
                                                                                
   Description                                                                  
     l     E      TYP  RCUT    TYP  RCUT                                        
     0   .000     23  1.200                                                     
     0  -.700     23  1.200                                                     
     1   .000     23  1.520                                                     
     1   .600     23  1.520                                                     
     2   .000      7  1.500                                                     
  local pseudopotential read in
  atomic valenz-charges read in
  non local Contribution for L=           0  read in
    real space projection operators read in
  non local Contribution for L=           0  read in
    real space projection operators read in
  non local Contribution for L=           1  read in
    real space projection operators read in
  non local Contribution for L=           1  read in
    real space projection operators read in
    PAW grid and wavefunctions read in
 
   number of l-projection  operators is LMAX  =           4
   number of lm-projection operators is LMMAX =           8
 
 POTCAR:    PAW_PBE Pt 04Feb2005                  
   VRHFIN =Pt: s1d9                                                             
   LEXCH  = PE                                                                  
   EATOM  =   729.1182 eV,   53.5887 Ry                                         
                                                                                
   TITEL  = PAW_PBE Pt 04Feb2005                                                
   LULTRA =        F    use ultrasoft PP ?                                      
   IUNSCR =        1    unscreen: 0-lin 1-nonlin 2-no                           
   RPACOR =    2.330    partial core radius                                     
   POMASS =  195.080; ZVAL   =   10.000    mass and valenz                      
   RCORE  =    2.600    outmost cutoff radius                                   
   RWIGS  =    2.750; RWIGS  =    1.455    wigner-seitz radius (au A)           
   ENMAX  =  230.283; ENMIN  =  172.712 eV                                      
   ICORE  =        3    local potential                                         
   LCOR   =        T    correct aug charges                                     
   LPAW   =        T    paw PP                                                  
   EAUG   =  358.966                                                            
   DEXC   =     .000                                                            
   RMAX   =    3.038    core radius for proj-oper                               
   RAUG   =    1.300    factor for augmentation sphere                          
   RDEP   =    2.761    radius for radial grids                                 
   QCUT   =   -4.114; QGAM   =    8.228    optimization parameters              
                                                                                
   Description                                                                  
     l     E      TYP  RCUT    TYP  RCUT                                        
     2   .000     23  2.500                                                     
     2   .000     23  2.500                                                     
     0   .000     23  2.500                                                     
     0   .000     23  2.500                                                     
     1  -.200     23  2.600                                                     
     1  1.500     23  2.600                                                     
     3   .000     23  2.500                                                     
  local pseudopotential read in
  partial core-charges read in
  atomic valenz-charges read in
  non local Contribution for L=           2  read in
    real space projection operators read in
  non local Contribution for L=           2  read in
    real space projection operators read in
  non local Contribution for L=           0  read in
    real space projection operators read in
  non local Contribution for L=           0  read in
    real space projection operators read in
  non local Contribution for L=           1  read in
    real space projection operators read in
  non local Contribution for L=           1  read in
    real space projection operators read in
    PAW grid and wavefunctions read in
 
   number of l-projection  operators is LMAX  =           6
   number of lm-projection operators is LMMAX =          18
 
 Optimization of the real space projectors (new method)

 maximal supplied QI-value         = 25.13
 optimisation between [QCUT,QGAM] = [ 10.81, 21.61] = [ 32.71,130.83] Ry 
 Optimized for a Real-space Cutoff    1.23 Angstroem

   l    n(q)    QCUT    max X(q) W(low)/X(q) W(high)/X(q)  e(spline) 
   0      8    10.807     5.582    0.53E-04    0.84E-04    0.44E-07
   0      8    10.807    69.432    0.35E-03    0.71E-03    0.24E-06
   1      7    10.807     2.780    0.44E-04    0.88E-04    0.89E-07
   1      7    10.807     4.549    0.14E-03    0.28E-03    0.13E-06
 Optimization of the real space projectors (new method)

 maximal supplied QI-value         = 24.76
 optimisation between [QCUT,QGAM] = [ 10.64, 21.54] = [ 31.73,129.89] Ry 
 Optimized for a Real-space Cutoff    1.23 Angstroem

   l    n(q)    QCUT    max X(q) W(low)/X(q) W(high)/X(q)  e(spline) 
   0      8    10.645     4.192    0.69E-04    0.93E-04    0.58E-07
   0      8    10.645     8.473    0.40E-03    0.65E-03    0.17E-06
   1      7    10.645     2.474    0.80E-04    0.12E-03    0.30E-07
   1      7    10.645     3.912    0.24E-03    0.53E-03    0.16E-06
 Optimization of the real space projectors (new method)

 maximal supplied QI-value         = 14.36
 optimisation between [QCUT,QGAM] = [ 10.77, 21.69] = [ 32.49,131.70] Ry 
 Optimized for a Real-space Cutoff    1.46 Angstroem

   l    n(q)    QCUT    max X(q) W(low)/X(q) W(high)/X(q)  e(spline) 
   2      9    10.771     3.903    0.38E-04    0.12E-03    0.82E-07
   2      9    10.771    18.372    0.13E-03    0.32E-03    0.28E-06
   0     10    10.771    13.697    0.11E-04    0.86E-05    0.85E-08
   0     10    10.771    65.529    0.40E-04    0.12E-03    0.14E-06
   1      9    10.771     7.604    0.48E-04    0.31E-04    0.38E-07
   1      9    10.771    12.136    0.35E-03    0.16E-03    0.23E-06
 PAW_PBE C 08Apr2002                    :
 energy of atom  1       EATOM= -147.1560
 kinetic energy error for atom=    0.0116 (will be added to EATOM!!)
 PAW_PBE O 08Apr2002                    :
 energy of atom  2       EATOM= -432.3788
 kinetic energy error for atom=    0.0389 (will be added to EATOM!!)
  PAW_PBE Pt 04Feb2005                  :
 energy of atom  3       EATOM= -729.1182
 kinetic energy error for atom=    0.0051 (will be added to EATOM!!)
 
 
 POSCAR: C    O    Pt                            
  positions in direct lattice
  No initial velocities read in
 exchange correlation table for  LEXCH =        8
   RHO(1)=    0.500       N(1)  =     2000
   RHO(2)=  100.500       N(2)  =     4000

 VTST: version 3.2, (02/03/18)

 CHAIN: initializing optimizer
 
 OPT: Using VASP QUASI-newton optimizer
 CHAIN: Read ICHAIN            0
 
 POSCAR: C    O    Pt                            
  positions in direct lattice
  No initial velocities read in
 


--------------------------------------------------------------------------------------------------------


 ion  position               nearest neighbor table
   1  0.703  0.438  0.475-   3 1.16  36 2.08
   2  0.909  0.380  0.461-  38 1.81  36 2.58  37 2.71
   3  0.675  0.464  0.524-   1 1.16
   4  0.987  0.329  0.074-  15 2.81  16 2.81  12 2.81   5 2.81  11 2.81   6 2.81  18 2.81   8 2.81
                             7 2.81
   5  0.320  0.329  0.074-  13 2.81  10 2.81   4 2.81  12 2.81  16 2.81  17 2.81   8 2.81   9 2.81
                             6 2.81
   6  0.653  0.329  0.074-  14 2.81  18 2.81  11 2.81   4 2.81  17 2.81   7 2.81  10 2.81   9 2.81
                             5 2.81
   7  0.987  0.662  0.074-  18 2.81  21 2.81  19 2.81  12 2.81   8 2.81  10 2.81   9 2.81   6 2.81
                             4 2.81
   8  0.320  0.662  0.074-  16 2.81  19 2.81  10 2.81   7 2.81  20 2.81   4 2.81  11 2.81   5 2.81
                             9 2.81
   9  0.653  0.662  0.074-  17 2.81  20 2.81  21 2.81  11 2.81  12 2.81   7 2.81   6 2.81   5 2.81
                             8 2.81
  10  0.320  0.995  0.074-  13 2.81  19 2.81   5 2.81   8 2.81  12 2.81   7 2.81  14 2.81   6 2.81
                            11 2.81
  11  0.653  0.995  0.074-  14 2.81  20 2.81  15 2.81   9 2.81   6 2.81  12 2.81   4 2.81   8 2.81
                            10 2.81
  12  0.987  0.995  0.074-  15 2.81  21 2.81  13 2.81   7 2.81   4 2.81  10 2.81   5 2.81  11 2.81
                             9 2.81
  13  0.209  0.106  0.179-   5 2.81  10 2.81  12 2.81  19 2.81  15 2.81  21 2.81  16 2.81  14 2.81
                            17 2.81  25 2.81  26 2.86  27 2.87
  14  0.542  0.106  0.179-  23 2.78  11 2.81   6 2.81  20 2.81  15 2.81  10 2.81  18 2.81  19 2.81
                            17 2.81  13 2.81  24 2.84  26 2.86
  15  0.876  0.106  0.179-  25 2.76  12 2.81   4 2.81  11 2.81  21 2.81  13 2.81  14 2.81  20 2.81
                            16 2.81  18 2.81  28 2.84  24 2.84
  16  0.209  0.440  0.179-  29 2.73  22 2.76  25 2.78   8 2.81   4 2.81  19 2.81  18 2.81   5 2.81
                            15 2.81  20 2.81  13 2.81  17 2.81
  17  0.542  0.440  0.179-  29 2.70  30 2.72   9 2.81  20 2.81  21 2.81  18 2.81   6 2.81   5 2.81
                            14 2.81  16 2.81  13 2.81  26 2.86
  18  0.876  0.440  0.179-  30 2.72  22 2.78   7 2.81   6 2.81  21 2.81  19 2.81  16 2.81  17 2.81
                             4 2.81  14 2.81  15 2.81  24 2.87
  19  0.209  0.773  0.179-  23 2.74  22 2.79   8 2.81  10 2.81   7 2.81  16 2.81  13 2.81  18 2.81
                            21 2.81  14 2.81  20 2.81  27 2.82
  20  0.542  0.773  0.179-  29 2.72  23 2.76   9 2.81  11 2.81  17 2.81  14 2.81  15 2.81  21 2.81
                             8 2.81  16 2.81  19 2.81  28 2.82
  21  0.876  0.773  0.179-  30 2.75  28 2.78   7 2.81  12 2.81   9 2.81  18 2.81  15 2.81  19 2.81
                            13 2.81  17 2.81  20 2.81  27 2.87
  22  0.098  0.548  0.282-  25 2.76  31 2.76  16 2.76  18 2.78  27 2.78  23 2.78  19 2.79  37 2.79
                            30 2.82  24 2.82  29 2.83  38 2.99
  23  0.427  0.880  0.281-  31 2.72  19 2.74  27 2.74  20 2.76  14 2.78  22 2.78  29 2.81  24 2.82
                            26 2.82  28 2.87  35 2.88  32 2.92
  24  0.763  0.213  0.286-  25 2.75  36 2.77  30 2.82  26 2.82  23 2.82  22 2.82  32 2.83  28 2.83
                            15 2.84  14 2.84  18 2.87  38 2.93
  25  0.092  0.218  0.282-  24 2.75  22 2.76  15 2.76  16 2.78  28 2.80  13 2.81  38 2.84  29 2.84
                            26 2.86  27 2.90  34 2.92  33 2.93
  26  0.431  0.217  0.287-  36 2.70  33 2.78  30 2.79  29 2.80  27 2.81  24 2.82  35 2.82  23 2.82
                            14 2.86  13 2.86  17 2.86  25 2.86
  27  0.102  0.880  0.287-  37 2.66  23 2.74  35 2.77  22 2.78  34 2.78  26 2.81  19 2.82  28 2.82
                            30 2.84  21 2.87  13 2.87  25 2.90
  28  0.767  0.879  0.284-  21 2.78  29 2.79  30 2.79  39 2.80  25 2.80  20 2.82  27 2.82  32 2.82
                            24 2.83  15 2.84  34 2.87  23 2.87
  29  0.435  0.550  0.279-  17 2.70  20 2.72  16 2.73  30 2.78  28 2.79  31 2.79  26 2.80  23 2.81
                            22 2.83  25 2.84  39 2.89  33 2.99
  30  0.762  0.546  0.279-  18 2.72  17 2.72  21 2.75  29 2.78  28 2.79  26 2.79  24 2.82  22 2.82
                            27 2.84  36 2.90  37 2.90  39 2.91
  31  0.326  0.665  0.383-  23 2.72  32 2.74  22 2.76  39 2.77  35 2.77  37 2.78  29 2.79  38 2.87
                            33 2.89
  32  0.655  0.985  0.391-  39 2.72  31 2.74  28 2.82  24 2.83  38 2.84  34 2.84  35 2.85  36 2.87
                            23 2.92
  33  0.322  0.320  0.392-  36 2.71  38 2.73  35 2.77  26 2.78  34 2.79  39 2.83  31 2.89  25 2.93
                            29 2.99
  34  0.993  0.988  0.391-  37 2.71  35 2.73  38 2.76  27 2.78  33 2.79  39 2.82  32 2.84  28 2.87
                            25 2.92
  35  0.318  0.989  0.391-  37 2.69  34 2.73  36 2.76  27 2.77  33 2.77  31 2.77  26 2.82  32 2.85
                            23 2.88
  36  0.643  0.319  0.388-   1 2.08   2 2.58  26 2.70  33 2.71  35 2.76  24 2.77  39 2.84  32 2.87
                            30 2.90  37 2.97  38 2.99
  37  0.998  0.669  0.386-  27 2.66  35 2.69  34 2.71   2 2.71  31 2.78  22 2.79  39 2.88  30 2.90
                            38 2.97  36 2.97
  38  0.996  0.317  0.395-   2 1.81  33 2.73  34 2.76  32 2.84  25 2.84  31 2.87  24 2.93  37 2.97
                            22 2.99  36 2.99
  39  0.652  0.660  0.389-  32 2.72  31 2.77  28 2.80  34 2.82  33 2.83  36 2.84  37 2.88  29 2.89
                            30 2.91
 

IMPORTANT INFORMATION: All symmetrisations will be switched off!
NOSYMM: (Re-)initialisation of all symmetry stuff for point group C_1.

 
 
 KPOINTS: mesh auto                               

Automatic generation of k-mesh.
Space group operators:
 irot       det(A)        alpha          n_x          n_y          n_z        tau_x        tau_y        tau_z
    1     1.000000     0.000000     1.000000     0.000000     0.000000     0.000000     0.000000     0.000000
 
 Subroutine IBZKPT returns following result:
 ===========================================
 
 Found      4 irreducible k-points:
 
 Following reciprocal coordinates:
            Coordinates               Weight
  0.000000  0.000000  0.000000      1.000000
  0.500000  0.000000  0.000000      1.000000
 -0.000000  0.500000  0.000000      1.000000
  0.500000  0.500000  0.000000      1.000000
 
 Following cartesian coordinates:
            Coordinates               Weight
  0.000000  0.000000  0.000000      1.000000
  0.068522  0.000000  0.000000      1.000000
  0.034261  0.059342  0.000000      1.000000
  0.102783  0.059342  0.000000      1.000000
 


--------------------------------------------------------------------------------------------------------




 Dimension of arrays:
   k-points           NKPTS =      4   k-points in BZ     NKDIM =      4   number of bands    NBANDS=    228
   number of dos      NEDOS =    301   number of ions     NIONS =     39
   non local maximal  LDIM  =      6   non local SUM 2l+1 LMDIM =     18
   total plane-waves  NPLWV = 276480
   max r-space proj   IRMAX =   2756   max aug-charges    IRDMAX=  12646
   dimension x,y,z NGX =    48 NGY =   48 NGZ =  120
   dimension x,y,z NGXF=    96 NGYF=   96 NGZF=  240
   support grid    NGXF=    96 NGYF=   96 NGZF=  240
   ions per type =               1   2  36
   NGX,Y,Z   is equivalent  to a cutoff of   9.47,  9.47,  9.12 a.u.
   NGXF,Y,Z  is equivalent  to a cutoff of  18.94, 18.94, 18.24 a.u.

 SYSTEM =  metal                                   
 POSCAR =  C    O    Pt                            

 Startparameter for this run:
   NWRITE =      2    write-flag & timer
   PREC   = normal    normal or accurate (medium, high low for compatibility)
   ISTART =      0    job   : 0-new  1-cont  2-samecut
   ICHARG =      2    charge: 1-file 2-atom 10-const
   ISPIN  =      1    spin polarized calculation?
   LNONCOLLINEAR =      F non collinear calculations
   LSORBIT =      F    spin-orbit coupling
   INIWAV =      1    electr: 0-lowe 1-rand  2-diag
   LASPH  =      F    aspherical Exc in radial PAW
   METAGGA=      F    non-selfconsistent MetaGGA calc.

 Electronic Relaxation 1
   ENCUT  =  450.0 eV  33.07 Ry    5.75 a.u.  14.57 14.57 37.84*2*pi/ulx,y,z
   ENINI  =  450.0     initial cutoff
   ENAUG  =  644.9 eV  augmentation charge cutoff
   NELM   =     60;   NELMIN=  8; NELMDL= -5     # of ELM steps 
   EDIFF  = 0.1E-03   stopping-criterion for ELM
   LREAL  =      T    real-space projection
   NLSPLINE    = F    spline interpolate recip. space projectors
   LCOMPAT=      F    compatible to vasp.4.4
   GGA_COMPAT  = T    GGA compatible to vasp.4.4-vasp.4.6
   LMAXPAW     = -100 max onsite density
   LMAXMIX     =    2 max onsite mixed and CHGCAR
   VOSKOWN=      0    Vosko Wilk Nusair interpolation
   ROPT   =   -0.00050  -0.00050  -0.00050
 Ionic relaxation
   EDIFFG = -.5E-01   stopping-criterion for IOM
   NSW    =   5000    number of steps for IOM
   NBLOCK =      1;   KBLOCK =   5000    inner block; outer block 
   IBRION =      1    ionic relax: 0-MD 1-quasi-New 2-CG
   NFREE  =      0    steps in history (QN), initial steepest desc. (CG)
   ISIF   =      2    stress and relaxation
   IWAVPR =     11    prediction:  0-non 1-charg 2-wave 3-comb
   ISYM   =      0    0-nonsym 1-usesym 2-fastsym
   LCORR  =      T    Harris-Foulkes like correction to forces

   POTIM  = 0.2000    time-step for ionic-motion
   TEIN   =    0.0    initial temperature
   TEBEG  =    0.0;   TEEND  =   0.0 temperature during run
   SMASS  =  -3.00    Nose mass-parameter (am)
   estimated Nose-frequenzy (Omega)   =  0.10E-29 period in steps =****** mass=  -0.162E-26a.u.
   SCALEE = 1.0000    scale energy and forces
   NPACO  =    256;   APACO  = 16.0  distance and # of slots for P.C.
   PSTRESS=    0.0 pullay stress

  Mass of Ions in am
   POMASS =  12.01 16.00195.08
  Ionic Valenz
   ZVAL   =   4.00  6.00 10.00
  Atomic Wigner-Seitz radii
   RWIGS  =  -1.00 -1.00 -1.00
  virtual crystal weights 
   VCA    =   1.00  1.00  1.00
   NELECT =     376.0000    total number of electrons
   NUPDOWN=      -1.0000    fix difference up-down

 DOS related values:
   EMIN   =  10.00;   EMAX   =-10.00  energy-range for DOS
   EFERMI =   0.00
   ISMEAR =     1;   SIGMA  =   0.20  broadening in eV -4-tet -1-fermi 0-gaus

 Electronic relaxation 2 (details)
   IALGO  =     68    algorithm
   LDIAG  =      T    sub-space diagonalisation (order eigenvalues)
   LSUBROT=      F    optimize rotation matrix (better conditioning)
   TURBO    =      0    0=normal 1=particle mesh
   IRESTART =      0    0=no restart 2=restart with 2 vectors
   NREBOOT  =      0    no. of reboots
   NMIN     =      0    reboot dimension
   EREF     =   0.00    reference energy to select bands
   IMIX   =      4    mixing-type and parameters
     AMIX     =   0.40;   BMIX     =  1.00
     AMIX_MAG =   1.60;   BMIX_MAG =  1.00
     AMIN     =   0.10
     WC   =   100.;   INIMIX=   1;  MIXPRE=   1;  MAXMIX= -45

 Intra band minimization:
   WEIMIN = 0.0010     energy-eigenvalue tresh-hold
   EBREAK =  0.11E-06  absolut break condition
   DEPER  =   0.30     relativ break condition  

   TIME   =   0.40     timestep for ELM

  volume/ion in A,a.u.               =      34.49       232.77
  Fermi-wavevector in a.u.,A,eV,Ry     =   1.070385  2.022734 15.588510  1.145723
  Thomas-Fermi vector in A             =   2.206093
 
 Write flags
   LWAVE        =      F    write WAVECAR
   LDOWNSAMPLE  =      F    k-point downsampling of WAVECAR
   LCHARG       =      F    write CHGCAR
   LVTOT        =      F    write LOCPOT, total local potential
   LVHAR        =      F    write LOCPOT, Hartree potential only
   LELF         =      F    write electronic localiz. function (ELF)
   LORBIT       =      0    0 simple, 1 ext, 2 COOP (PROOUT), +10 PAW based schemes


 Dipole corrections
   LMONO  =      F    monopole corrections only (constant potential shift)
   LDIPOL =      F    correct potential (dipole corrections)
   IDIPOL =      0    1-x, 2-y, 3-z, 4-all directions 
   EPSILON=  1.0000000 bulk dielectric constant

 Exchange correlation treatment:
   GGA     =    --    GGA type
   LEXCH   =     8    internal setting for exchange type
   VOSKOWN=      0    Vosko Wilk Nusair interpolation
   LHFCALC =     F    Hartree Fock is set to
   LHFONE  =     F    Hartree Fock one center treatment
   AEXX    =    0.0000 exact exchange contribution

 Linear response parameters
   LEPSILON=     F    determine dielectric tensor
   LRPA    =     F    only Hartree local field effects (RPA)
   LNABLA  =     F    use nabla operator in PAW spheres
   LVEL    =     F    velocity operator in full k-point grid
   LINTERFAST=   F  fast interpolation
   KINTER  =     0    interpolate to denser k-point grid
   CSHIFT  =0.1000    complex shift for real part using Kramers Kronig
   OMEGAMAX=  -1.0    maximum frequency
   DEG_THRESHOLD= 0.2000000E-02 threshold for treating states as degnerate
   RTIME   =   -0.100 relaxation time in fs
  (WPLASMAI=    0.000 imaginary part of plasma frequency in eV, 0.658/RTIME)
   DFIELD  = 0.0000000 0.0000000 0.0000000 field for delta impulse in time
 
 Orbital magnetization related:
   ORBITALMAG=     F  switch on orbital magnetization
   LCHIMAG   =     F  perturbation theory with respect to B field
   DQ        =  0.001000  dq finite difference perturbation B field
   LLRAUG    =     F  two centre corrections for induced B field



--------------------------------------------------------------------------------------------------------


 quasi-Newton-method for relaxation of ions
   using selective dynamics as specified on POSCAR
 charge density and potential will be updated during run
 non-spin polarized calculation
 RMM-DIIS sequential band-by-band and
  variant of blocked Davidson during initial phase
 perform sub-space diagonalisation
    before iterative eigenvector-optimisation
 modified Broyden-mixing scheme, WC =      100.0
 initial mixing is a Kerker type mixing with AMIX =  0.4000 and BMIX =      1.0000
 Hartree-type preconditioning will be used
 using additional bands           40
 real space projection scheme for non local part
 use partial core corrections
 calculate Harris-corrections to forces 
   (improved forces if not selfconsistent)
 use gradient corrections 
 use of overlap-Matrix (Vanderbilt PP)
 Methfessel and Paxton  Order N= 1 SIGMA  =   0.20


--------------------------------------------------------------------------------------------------------


  energy-cutoff  :      450.00
  volume of cell :     1345.22
      direct lattice vectors                 reciprocal lattice vectors
     7.296955120 -4.212899000  0.000000000     0.137043463  0.000000000  0.000000000
     0.000000000  8.425798000  0.000000000     0.068521732  0.118683121  0.000000000
     0.000000000  0.000000000 21.879635000     0.000000000  0.000000000  0.045704602

  length of vectors
     8.425798004  8.425798000 21.879635000     0.137043463  0.137043463  0.045704602


 
 k-points in units of 2pi/SCALE and weight: mesh auto                               
   0.00000000  0.00000000  0.00000000       0.250
   0.06852173  0.00000000  0.00000000       0.250
   0.03426087  0.05934156  0.00000000       0.250
   0.10278260  0.05934156  0.00000000       0.250
 
 k-points in reciprocal lattice and weights: mesh auto                               
   0.00000000  0.00000000  0.00000000       0.250
   0.50000000  0.00000000  0.00000000       0.250
  -0.00000000  0.50000000  0.00000000       0.250
   0.50000000  0.50000000  0.00000000       0.250
 
 position of ions in fractional coordinates (direct lattice) 
   0.70319068  0.43764072  0.47451944
   0.90882194  0.37998270  0.46057882
   0.67505413  0.46449661  0.52440798
   0.98675500  0.32859100  0.07437600
   0.32008800  0.32859100  0.07437600
   0.65342200  0.32859100  0.07437600
   0.98675500  0.66192500  0.07437600
   0.32008800  0.66192500  0.07437600
   0.65342200  0.66192500  0.07437600
   0.32008800  0.99525800  0.07437600
   0.65342200  0.99525800  0.07437600
   0.98675500  0.99525800  0.07437600
   0.20897700  0.10636900  0.17918600
   0.54231100  0.10636900  0.17918600
   0.87564400  0.10636900  0.17918600
   0.20897700  0.43970300  0.17918600
   0.54231100  0.43970300  0.17918600
   0.87564400  0.43970300  0.17918600
   0.20897700  0.77303600  0.17918600
   0.54231100  0.77303600  0.17918600
   0.87564400  0.77303600  0.17918600
   0.09787629  0.54807528  0.28212994
   0.42684245  0.87974119  0.28118229
   0.76306455  0.21293080  0.28624943
   0.09194161  0.21813123  0.28246128
   0.43075372  0.21658497  0.28668994
   0.10186196  0.87966561  0.28653370
   0.76659931  0.87883112  0.28420250
   0.43475022  0.55003948  0.27886399
   0.76232812  0.54621068  0.27936611
   0.32607302  0.66454137  0.38260367
   0.65482331  0.98527384  0.39077064
   0.32195262  0.32002874  0.39216039
   0.99302261  0.98751963  0.39126903
   0.31784929  0.98887795  0.39073560
   0.64260344  0.31909974  0.38801868
   0.99838704  0.66927077  0.38604561
   0.99645126  0.31715342  0.39494038
   0.65181502  0.66048569  0.38945430
 
 position of ions in cartesian coordinates  (Angst):
   5.13115083  0.72500104 10.38231222
   6.63163288 -0.62711756 10.07729655
   4.92583972  1.06981970 11.47385509
   7.20030695 -1.38845776  1.62731973
   2.33566777  1.42014298  1.62731973
   4.76799101  0.01584050  1.62731973
   7.20030695  1.42014719  1.62731973
   2.33566777  4.22874793  1.62731973
   4.76799101  2.82444545  1.62731973
   2.33566777  7.03734445  1.62731973
   4.76799101  5.63304198  1.62731973
   7.20030695  4.22874371  1.62731973
   1.52489579  0.01584471  3.92052428
   3.95721903 -1.38845776  3.92052428
   6.38953497 -2.79275602  3.92052428
   1.52489579  2.82444966  3.92052428
   3.95721903  1.42014719  3.92052428
   6.38953497  0.01584893  3.92052428
   1.52489579  5.63304619  3.92052428
   3.95721903  4.22874371  3.92052428
   6.38953497  2.82444545  3.92052428
   0.71419890  4.20562865  6.17290013
   3.11465021  5.61427742  6.15216594
   5.56804779 -1.42060200  6.26303312
   0.67089383  1.45058896  6.18014979
   3.14319053  0.01017933  6.27267130
   0.74328219  6.98275056  6.26925271
   5.59384074  4.17524807  6.21824706
   3.17235282  2.80296283  6.10144222
   5.56267409  1.39064948  6.11242847
   2.37934023  4.22557864  8.37122855
   4.77821632  5.54301389  8.54991907
   2.34927385  1.34014363  8.58032627
   7.24604142  4.13713698  8.56082354
   2.31933200  6.99301893  8.54915228
   4.68904848 -0.01855348  8.48970719
   7.28518546  1.43303652  8.44653709
   7.27106015 -1.52567789  8.64115144
   4.75626496  2.81908812  8.52111787
 


--------------------------------------------------------------------------------------------------------


 k-point  1 :   0.0000 0.0000 0.0000  plane waves:   29241
 k-point  2 :   0.5000 0.0000 0.0000  plane waves:   29108
 k-point  3 :  -0.0000 0.5000 0.0000  plane waves:   29108
 k-point  4 :   0.5000 0.5000 0.0000  plane waves:   29108

 maximum and minimum number of plane-waves per node :     14624    14548

 maximum number of plane-waves:     29241
 maximum index in each direction: 
   IXMAX=   14   IYMAX=   14   IZMAX=   37
   IXMIN=  -15   IYMIN=  -15   IZMIN=  -37


 real space projection operators:
  total allocation   :      13559.03 KBytes
  max/ min on nodes  :       6782.17       6776.86


 parallel 3D FFT for wavefunctions:
    minimum data exchange during FFTs selected (reduces bandwidth)
 parallel 3D FFT for charge:
    minimum data exchange during FFTs selected (reduces bandwidth)


 total amount of memory used by VASP MPI-rank0   131949. kBytes
=======================================================================

   base      :      30000. kBytes
   nonlr-proj:      10141. kBytes
   fftplans  :      13556. kBytes
   grid      :      23353. kBytes
   one-center:        311. kBytes
   wavefun   :      54588. kBytes
 
     INWAV:  cpu time    0.0000: real time    0.0000
 Broyden mixing: mesh for mixing (old mesh)
   NGX = 29   NGY = 29   NGZ = 75
  (NGX  = 96   NGY  = 96   NGZ  =240)
  gives a total of  63075 points

 initial charge density was supplied:
 charge density of overlapping atoms calculated
 number of electron     376.0000000 magnetization 
 keeping initial charge density in first step


--------------------------------------------------------------------------------------------------------


 Maximum index for non-local projection operator         1319
 Maximum index for augmentation-charges         1558 (set IRDMAX)


--------------------------------------------------------------------------------------------------------


 First call to EWALD:  gamma=   0.161
 Maximum number of real-space cells 4x 4x 2
 Maximum number of reciprocal cells 2x 2x 5

    FEWALD:  cpu time    0.0075: real time    0.0076


--------------------------------------- Iteration      1(   1)  ---------------------------------------


    POTLOK:  cpu time    0.3279: real time    0.5569
    SETDIJ:  cpu time    0.0310: real time    0.0311
     EDDAV:  cpu time   26.3435: real time   31.7028
       DOS:  cpu time    0.0009: real time    0.0009
    --------------------------------------------
      LOOP:  cpu time   26.7033: real time   32.2918

 eigenvalue-minimisations  :  1824
 total energy-change (2. order) : 0.2420111E+04  (-0.1594976E+05)
 number of electron     376.0000000 magnetization 
 augmentation part      376.0000000 magnetization 

 Free energy of the ion-electron system (eV)
  ---------------------------------------------------
  alpha Z        PSCENC =       975.10247152
  Ewald energy   TEWEN  =     91135.88409449
  -Hartree energ DENC   =   -120226.52051443
  -exchange      EXHF   =         0.00000000
  -V(xc)+E(xc)   XCENC  =       189.48342655
  PAW double counting   =     24789.08602224   -23775.73976456
  entropy T*S    EENTRO =         0.00862448
  eigenvalues    EBANDS =      2072.91240145
  atomic energy  EATOM  =     27259.89416086
  Solvation  Ediel_sol  =         0.00000000
  ---------------------------------------------------
  free energy    TOTEN  =      2420.11092259 eV

  energy without entropy =     2420.10229811  energy(sigma->0) =     2420.10804777


--------------------------------------------------------------------------------------------------------




--------------------------------------- Iteration      1(   2)  ---------------------------------------


     EDDAV:  cpu time   30.7502: real time   40.1640
       DOS:  cpu time    0.0009: real time    0.0009
    --------------------------------------------
      LOOP:  cpu time   30.7511: real time   40.1649

 eigenvalue-minimisations  :  2120
 total energy-change (2. order) :-0.2483532E+04  (-0.2306005E+04)
 number of electron     376.0000000 magnetization 
 augmentation part      376.0000000 magnetization 

 Free energy of the ion-electron system (eV)
  ---------------------------------------------------
  alpha Z        PSCENC =       975.10247152
  Ewald energy   TEWEN  =     91135.88409449
  -Hartree energ DENC   =   -120226.52051443
  -exchange      EXHF   =         0.00000000
  -V(xc)+E(xc)   XCENC  =       189.48342655
  PAW double counting   =     24789.08602224   -23775.73976456
  entropy T*S    EENTRO =        -0.00191825
  eigenvalues    EBANDS =      -410.60937171
  atomic energy  EATOM  =     27259.89416086
  Solvation  Ediel_sol  =         0.00000000
  ---------------------------------------------------
  free energy    TOTEN  =       -63.42139330 eV

  energy without entropy =      -63.41947505  energy(sigma->0) =      -63.42075388


--------------------------------------------------------------------------------------------------------




--------------------------------------- Iteration      1(   3)  ---------------------------------------


     EDDAV:  cpu time   27.0121: real time   34.1598
       DOS:  cpu time    0.0012: real time    0.0012
    --------------------------------------------
      LOOP:  cpu time   27.0133: real time   34.1610

 eigenvalue-minimisations  :  2152
 total energy-change (2. order) :-0.1763425E+03  (-0.1600373E+03)
 number of electron     376.0000000 magnetization 
 augmentation part      376.0000000 magnetization 

 Free energy of the ion-electron system (eV)
  ---------------------------------------------------
  alpha Z        PSCENC =       975.10247152
  Ewald energy   TEWEN  =     91135.88409449
  -Hartree energ DENC   =   -120226.52051443
  -exchange      EXHF   =         0.00000000
  -V(xc)+E(xc)   XCENC  =       189.48342655
  PAW double counting   =     24789.08602224   -23775.73976456
  entropy T*S    EENTRO =        -0.02579517
  eigenvalues    EBANDS =      -586.92799309
  atomic energy  EATOM  =     27259.89416086
  Solvation  Ediel_sol  =         0.00000000
  ---------------------------------------------------
  free energy    TOTEN  =      -239.76389159 eV

  energy without entropy =     -239.73809643  energy(sigma->0) =     -239.75529320


--------------------------------------------------------------------------------------------------------




--------------------------------------- Iteration      1(   4)  ---------------------------------------


     EDDAV:  cpu time   23.7145: real time   27.8353
       DOS:  cpu time    0.0011: real time    0.0011
    --------------------------------------------
      LOOP:  cpu time   23.7156: real time   27.8364

 eigenvalue-minimisations  :  2344
 total energy-change (2. order) :-0.7824219E+01  (-0.7502659E+01)
 number of electron     376.0000000 magnetization 
 augmentation part      376.0000000 magnetization 

 Free energy of the ion-electron system (eV)
  ---------------------------------------------------
  alpha Z        PSCENC =       975.10247152
  Ewald energy   TEWEN  =     91135.88409449
  -Hartree energ DENC   =   -120226.52051443
  -exchange      EXHF   =         0.00000000
  -V(xc)+E(xc)   XCENC  =       189.48342655
  PAW double counting   =     24789.08602224   -23775.73976456
  entropy T*S    EENTRO =        -0.01277967
  eigenvalues    EBANDS =      -594.76522725
  atomic energy  EATOM  =     27259.89416086
  Solvation  Ediel_sol  =         0.00000000
  ---------------------------------------------------
  free energy    TOTEN  =      -247.58811026 eV

  energy without entropy =     -247.57533059  energy(sigma->0) =     -247.58385037


--------------------------------------------------------------------------------------------------------




--------------------------------------- Iteration      1(   5)  ---------------------------------------


     EDDAV:  cpu time   25.1994: real time   30.7118
       DOS:  cpu time    0.0009: real time    0.0009
    CHARGE:  cpu time    0.4079: real time    0.5883
    MIXING:  cpu time    0.0202: real time    0.0286
    --------------------------------------------
      LOOP:  cpu time   25.6284: real time   31.3296

 eigenvalue-minimisations  :  2400
 total energy-change (2. order) :-0.2254671E+00  (-0.2236043E+00)
 number of electron     376.0000079 magnetization 
 augmentation part      105.8528363 magnetization 

 Broyden mixing:
  rms(total) = 0.27196E+01    rms(broyden)= 0.27192E+01
  rms(prec ) = 0.30235E+01
  weight for this iteration     100.00

 Free energy of the ion-electron system (eV)
  ---------------------------------------------------
  alpha Z        PSCENC =       975.10247152
  Ewald energy   TEWEN  =     91135.88409449
  -Hartree energ DENC   =   -120226.52051443
  -exchange      EXHF   =         0.00000000
  -V(xc)+E(xc)   XCENC  =       189.48342655
  PAW double counting   =     24789.08602224   -23775.73976456
  entropy T*S    EENTRO =        -0.01261409
  eigenvalues    EBANDS =      -594.99085991
  atomic energy  EATOM  =     27259.89416086
  Solvation  Ediel_sol  =         0.00000000
  ---------------------------------------------------
  free energy    TOTEN  =      -247.81357734 eV

  energy without entropy =     -247.80096325  energy(sigma->0) =     -247.80937264


--------------------------------------------------------------------------------------------------------




--------------------------------------- Iteration      1(   6)  ---------------------------------------


    POTLOK:  cpu time    0.3986: real time    0.4943
    SETDIJ:  cpu time    0.0278: real time    0.0279
    EDDIAG:  cpu time    3.1534: real time    3.7304
  RMM-DIIS:  cpu time    5.3796: real time    6.6469
    ORTHCH:  cpu time    0.3170: real time    0.6885
       DOS:  cpu time    0.0010: real time    0.0010
    CHARGE:  cpu time    0.5107: real time    0.7546
    MIXING:  cpu time    0.0225: real time    0.0465
    --------------------------------------------
      LOOP:  cpu time    9.8106: real time   12.3902

 eigenvalue-minimisations  :  1831
 total energy-change (2. order) : 0.3595087E+01  (-0.5489055E+01)
 number of electron     376.0000076 magnetization 
 augmentation part      112.7939746 magnetization 

 Broyden mixing:
  rms(total) = 0.26608E+01    rms(broyden)= 0.26598E+01
  rms(prec ) = 0.35270E+01
  weight for this iteration     100.00

 eigenvalues of (default mixing * dielectric matrix)
  average eigenvalue GAMMA=   0.5264
  0.5264

 Free energy of the ion-electron system (eV)
  ---------------------------------------------------
  alpha Z        PSCENC =       975.10247152
  Ewald energy   TEWEN  =     91135.88409449
  -Hartree energ DENC   =   -119770.93714899
  -exchange      EXHF   =         0.00000000
  -V(xc)+E(xc)   XCENC  =       182.30770524
  PAW double counting   =     26730.01486274   -25770.19240006
  entropy T*S    EENTRO =        -0.20572288
  eigenvalues    EBANDS =      -986.08651328
  atomic energy  EATOM  =     27259.89416086
  Solvation  Ediel_sol  =         0.00000000
  ---------------------------------------------------
  free energy    TOTEN  =      -244.21849035 eV

  energy without entropy =     -244.01276747  energy(sigma->0) =     -244.14991606


--------------------------------------------------------------------------------------------------------




--------------------------------------- Iteration      1(   7)  ---------------------------------------


    POTLOK:  cpu time    0.2063: real time    0.3515
    SETDIJ:  cpu time    0.0169: real time    0.0236
    EDDIAG:  cpu time    3.2442: real time    3.6259
  RMM-DIIS:  cpu time    5.9550: real time    6.8022
    ORTHCH:  cpu time    0.4245: real time    0.6236
       DOS:  cpu time    0.0010: real time    0.0010
    CHARGE:  cpu time    0.5023: real time    0.6890
    MIXING:  cpu time    0.0215: real time    0.0484
    --------------------------------------------
      LOOP:  cpu time   10.3717: real time   12.1650

 eigenvalue-minimisations  :  1829
 total energy-change (2. order) : 0.6456940E+01  (-0.3038333E+01)
 number of electron     376.0000089 magnetization 
 augmentation part      111.4913710 magnetization 

 Broyden mixing:
  rms(total) = 0.18820E+01    rms(broyden)= 0.18811E+01
  rms(prec ) = 0.25539E+01
  weight for this iteration     100.00

 eigenvalues of (default mixing * dielectric matrix)
  average eigenvalue GAMMA=   0.6605
  1.0530  0.2679

 Free energy of the ion-electron system (eV)
  ---------------------------------------------------
  alpha Z        PSCENC =       975.10247152
  Ewald energy   TEWEN  =     91135.88409449
  -Hartree energ DENC   =   -119965.02368140
  -exchange      EXHF   =         0.00000000
  -V(xc)+E(xc)   XCENC  =       179.93788994
  PAW double counting   =     27419.44560768   -26467.70053701
  entropy T*S    EENTRO =        -0.17765554
  eigenvalues    EBANDS =      -775.12390115
  atomic energy  EATOM  =     27259.89416086
  Solvation  Ediel_sol  =         0.00000000
  ---------------------------------------------------
  free energy    TOTEN  =      -237.76155061 eV

  energy without entropy =     -237.58389506  energy(sigma->0) =     -237.70233209


--------------------------------------------------------------------------------------------------------




--------------------------------------- Iteration      1(   8)  ---------------------------------------


    POTLOK:  cpu time    0.2337: real time    0.2433
    SETDIJ:  cpu time    0.0237: real time    0.0238
    EDDIAG:  cpu time    2.5597: real time    3.5385
  RMM-DIIS:  cpu time    5.0079: real time    6.6035
    ORTHCH:  cpu time    0.7240: real time    0.9828
       DOS:  cpu time    0.0063: real time    0.0151
    CHARGE:  cpu time    0.6132: real time    0.9711
    MIXING:  cpu time    0.0179: real time    0.0268
    --------------------------------------------
      LOOP:  cpu time    9.1865: real time   12.4050

 eigenvalue-minimisations  :  1831
 total energy-change (2. order) : 0.5279282E+01  (-0.7772238E+00)
 number of electron     376.0000085 magnetization 
 augmentation part      112.5899844 magnetization 

 Broyden mixing:
  rms(total) = 0.12059E+01    rms(broyden)= 0.12057E+01
  rms(prec ) = 0.18460E+01
  weight for this iteration     100.00

 eigenvalues of (default mixing * dielectric matrix)
  average eigenvalue GAMMA=   0.6132
  1.2464  0.3416  0.2515

 Free energy of the ion-electron system (eV)
  ---------------------------------------------------
  alpha Z        PSCENC =       975.10247152
  Ewald energy   TEWEN  =     91135.88409449
  -Hartree energ DENC   =   -119842.33322764
  -exchange      EXHF   =         0.00000000
  -V(xc)+E(xc)   XCENC  =       178.64043608
  PAW double counting   =     28407.41371759   -27471.02386735
  entropy T*S    EENTRO =        -0.05619444
  eigenvalues    EBANDS =      -876.00385980
  atomic energy  EATOM  =     27259.89416086
  Solvation  Ediel_sol  =         0.00000000
  ---------------------------------------------------
  free energy    TOTEN  =      -232.48226868 eV

  energy without entropy =     -232.42607424  energy(sigma->0) =     -232.46353720


--------------------------------------------------------------------------------------------------------




--------------------------------------- Iteration      1(   9)  ---------------------------------------


    POTLOK:  cpu time    0.4080: real time    0.5354
    SETDIJ:  cpu time    0.0230: real time    0.0231
    EDDIAG:  cpu time    3.0634: real time    4.4607
  RMM-DIIS:  cpu time    6.6622: real time    8.4150
    ORTHCH:  cpu time    0.2875: real time    0.7953
       DOS:  cpu time    0.0010: real time    0.0010
    CHARGE:  cpu time    0.9379: real time    1.1697
    MIXING:  cpu time    0.0229: real time    0.0400
    --------------------------------------------
      LOOP:  cpu time   11.4058: real time   15.4402

 eigenvalue-minimisations  :  1830
 total energy-change (2. order) :-0.1944846E+01  (-0.2028392E+00)
 number of electron     376.0000085 magnetization 
 augmentation part      112.8957460 magnetization 

 Broyden mixing:
  rms(total) = 0.16269E+01    rms(broyden)= 0.16268E+01
  rms(prec ) = 0.30444E+01
  weight for this iteration     100.00

 eigenvalues of (default mixing * dielectric matrix)
  average eigenvalue GAMMA=   0.5134
  1.3074  0.3936  0.2542  0.0986

 Free energy of the ion-electron system (eV)
  ---------------------------------------------------
  alpha Z        PSCENC =       975.10247152
  Ewald energy   TEWEN  =     91135.88409449
  -Hartree energ DENC   =   -119854.57891311
  -exchange      EXHF   =         0.00000000
  -V(xc)+E(xc)   XCENC  =       178.46614638
  PAW double counting   =     28757.11226690   -27825.83735600
  entropy T*S    EENTRO =        -0.05465945
  eigenvalues    EBANDS =      -860.41532583
  atomic energy  EATOM  =     27259.89416086
  Solvation  Ediel_sol  =         0.00000000
  ---------------------------------------------------
  free energy    TOTEN  =      -234.42711423 eV

  energy without entropy =     -234.37245478  energy(sigma->0) =     -234.40889441


--------------------------------------------------------------------------------------------------------




--------------------------------------- Iteration      1(  10)  ---------------------------------------


    POTLOK:  cpu time    0.2979: real time    0.3669
    SETDIJ:  cpu time    0.0132: real time    0.0221
    EDDIAG:  cpu time    2.4659: real time    2.7338
  RMM-DIIS:  cpu time    5.6605: real time    6.8121
    ORTHCH:  cpu time    0.3740: real time    0.4266
       DOS:  cpu time    0.0011: real time    0.0094
    CHARGE:  cpu time    0.7971: real time    1.0525
    MIXING:  cpu time    0.0044: real time    0.0044
    --------------------------------------------
      LOOP:  cpu time    9.6141: real time   11.4278

 eigenvalue-minimisations  :  1831
 total energy-change (2. order) : 0.4172427E+01  (-0.1178762E+00)
 number of electron     376.0000083 magnetization 
 augmentation part      112.8244722 magnetization 

 Broyden mixing:
  rms(total) = 0.39531E+00    rms(broyden)= 0.39512E+00
  rms(prec ) = 0.48693E+00
  weight for this iteration     100.00

 eigenvalues of (default mixing * dielectric matrix)
  average eigenvalue GAMMA=   0.5274
  1.4020  0.5197  0.3978  0.2230  0.0945

 Free energy of the ion-electron system (eV)
  ---------------------------------------------------
  alpha Z        PSCENC =       975.10247152
  Ewald energy   TEWEN  =     91135.88409449
  -Hartree energ DENC   =   -119860.93820648
  -exchange      EXHF   =         0.00000000
  -V(xc)+E(xc)   XCENC  =       178.34810308
  PAW double counting   =     29011.45117392   -28083.70714145
  entropy T*S    EENTRO =        -0.02544082
  eigenvalues    EBANDS =      -846.26390206
  atomic energy  EATOM  =     27259.89416086
  Solvation  Ediel_sol  =         0.00000000
  ---------------------------------------------------
  free energy    TOTEN  =      -230.25468695 eV

  energy without entropy =     -230.22924613  energy(sigma->0) =     -230.24620667


--------------------------------------------------------------------------------------------------------




--------------------------------------- Iteration      1(  11)  ---------------------------------------


    POTLOK:  cpu time    0.3355: real time    0.3500
    SETDIJ:  cpu time    0.0305: real time    0.0372
    EDDIAG:  cpu time    2.5625: real time    3.9031
  RMM-DIIS:  cpu time    5.3059: real time    6.9409
    ORTHCH:  cpu time    0.3095: real time    0.5190
       DOS:  cpu time    0.0010: real time    0.0010
    CHARGE:  cpu time    0.4950: real time    0.7768
    MIXING:  cpu time    0.0445: real time    0.0834
    --------------------------------------------
      LOOP:  cpu time    9.0845: real time   12.6113

 eigenvalue-minimisations  :  1831
 total energy-change (2. order) : 0.2486089E+00  (-0.3862078E-01)
 number of electron     376.0000083 magnetization 
 augmentation part      112.8875801 magnetization 

 Broyden mixing:
  rms(total) = 0.26692E+00    rms(broyden)= 0.26688E+00
  rms(prec ) = 0.33194E+00
  weight for this iteration     100.00

 eigenvalues of (default mixing * dielectric matrix)
  average eigenvalue GAMMA=   0.5912
  1.5768  0.8118  0.4784  0.3554  0.2309  0.0941

 Free energy of the ion-electron system (eV)
  ---------------------------------------------------
  alpha Z        PSCENC =       975.10247152
  Ewald energy   TEWEN  =     91135.88409449
  -Hartree energ DENC   =   -119850.88794147
  -exchange      EXHF   =         0.00000000
  -V(xc)+E(xc)   XCENC  =       178.24430302
  PAW double counting   =     29303.62587071   -28379.74389051
  entropy T*S    EENTRO =        -0.02094236
  eigenvalues    EBANDS =      -852.10420427
  atomic energy  EATOM  =     27259.89416086
  Solvation  Ediel_sol  =         0.00000000
  ---------------------------------------------------
  free energy    TOTEN  =      -230.00607801 eV

  energy without entropy =     -229.98513565  energy(sigma->0) =     -229.99909722


--------------------------------------------------------------------------------------------------------




--------------------------------------- Iteration      1(  12)  ---------------------------------------


    POTLOK:  cpu time    0.2744: real time    0.4339
    SETDIJ:  cpu time    0.0226: real time    0.0290
    EDDIAG:  cpu time    2.4781: real time    3.2472
  RMM-DIIS:  cpu time    5.2472: real time    6.8548
    ORTHCH:  cpu time    0.4516: real time    0.4800
       DOS:  cpu time    0.0050: real time    0.0050
    CHARGE:  cpu time    0.5587: real time    0.7814
    MIXING:  cpu time    0.0361: real time    0.0363
    --------------------------------------------
      LOOP:  cpu time    9.0736: real time   11.8676

 eigenvalue-minimisations  :  1831
 total energy-change (2. order) : 0.5736490E-01  (-0.1772664E-01)
 number of electron     376.0000082 magnetization 
 augmentation part      112.9928696 magnetization 

 Broyden mixing:
  rms(total) = 0.26008E+00    rms(broyden)= 0.25997E+00
  rms(prec ) = 0.31285E+00
  weight for this iteration     100.00

 eigenvalues of (default mixing * dielectric matrix)
  average eigenvalue GAMMA=   0.6779
  1.9794  1.1110  0.5589  0.5257  0.2381  0.2381  0.0943

 Free energy of the ion-electron system (eV)
  ---------------------------------------------------
  alpha Z        PSCENC =       975.10247152
  Ewald energy   TEWEN  =     91135.88409449
  -Hartree energ DENC   =   -119846.04486103
  -exchange      EXHF   =         0.00000000
  -V(xc)+E(xc)   XCENC  =       178.19110965
  PAW double counting   =     29618.66613069   -28698.80724542
  entropy T*S    EENTRO =        -0.03128810
  eigenvalues    EBANDS =      -852.80328577
  atomic energy  EATOM  =     27259.89416086
  Solvation  Ediel_sol  =         0.00000000
  ---------------------------------------------------
  free energy    TOTEN  =      -229.94871311 eV

  energy without entropy =     -229.91742501  energy(sigma->0) =     -229.93828374


--------------------------------------------------------------------------------------------------------




--------------------------------------- Iteration      1(  13)  ---------------------------------------


    POTLOK:  cpu time    0.2338: real time    0.2356
    SETDIJ:  cpu time    0.0324: real time    0.0327
    EDDIAG:  cpu time    3.3736: real time    3.7754
  RMM-DIIS:  cpu time    5.3555: real time    6.4196
    ORTHCH:  cpu time    0.4174: real time    0.5597
       DOS:  cpu time    0.0011: real time    0.0011
    CHARGE:  cpu time    1.0833: real time    1.3571
    MIXING:  cpu time    0.0069: real time    0.0156
    --------------------------------------------
      LOOP:  cpu time   10.5039: real time   12.3968

 eigenvalue-minimisations  :  1831
 total energy-change (2. order) : 0.3326766E-01  (-0.1459049E-01)
 number of electron     376.0000082 magnetization 
 augmentation part      112.9937450 magnetization 

 Broyden mixing:
  rms(total) = 0.18580E+00    rms(broyden)= 0.18579E+00
  rms(prec ) = 0.22555E+00
  weight for this iteration     100.00

 eigenvalues of (default mixing * dielectric matrix)
  average eigenvalue GAMMA=   0.7027
  2.3009  1.2194  0.7102  0.5146  0.0943  0.3158  0.2389  0.2277

 Free energy of the ion-electron system (eV)
  ---------------------------------------------------
  alpha Z        PSCENC =       975.10247152
  Ewald energy   TEWEN  =     91135.88409449
  -Hartree energ DENC   =   -119845.28591892
  -exchange      EXHF   =         0.00000000
  -V(xc)+E(xc)   XCENC  =       178.10116113
  PAW double counting   =     29893.63494592   -28977.09794283
  entropy T*S    EENTRO =        -0.02528515
  eigenvalues    EBANDS =      -850.12313247
  atomic energy  EATOM  =     27259.89416086
  Solvation  Ediel_sol  =         0.00000000
  ---------------------------------------------------
  free energy    TOTEN  =      -229.91544544 eV

  energy without entropy =     -229.89016029  energy(sigma->0) =     -229.90701706


--------------------------------------------------------------------------------------------------------




--------------------------------------- Iteration      1(  14)  ---------------------------------------


    POTLOK:  cpu time    0.3004: real time    0.4217
    SETDIJ:  cpu time    0.0437: real time    0.0568
    EDDIAG:  cpu time    2.6391: real time    3.4440
  RMM-DIIS:  cpu time    5.5493: real time    7.2832
    ORTHCH:  cpu time    0.3399: real time    0.3906
       DOS:  cpu time    0.0011: real time    0.0011
    CHARGE:  cpu time    0.5164: real time    0.5697
    MIXING:  cpu time    0.0044: real time    0.0044
    --------------------------------------------
      LOOP:  cpu time    9.3945: real time   12.1714

 eigenvalue-minimisations  :  1831
 total energy-change (2. order) : 0.4520647E-01  (-0.7194990E-02)
 number of electron     376.0000082 magnetization 
 augmentation part      112.9686151 magnetization 

 Broyden mixing:
  rms(total) = 0.78233E-01    rms(broyden)= 0.78166E-01
  rms(prec ) = 0.10014E+00
  weight for this iteration     100.00

 eigenvalues of (default mixing * dielectric matrix)
  average eigenvalue GAMMA=   0.6968
  2.3754  1.2451  0.7847  0.5130  0.5130  0.0943  0.2860  0.2299  0.2299

 Free energy of the ion-electron system (eV)
  ---------------------------------------------------
  alpha Z        PSCENC =       975.10247152
  Ewald energy   TEWEN  =     91135.88409449
  -Hartree energ DENC   =   -119848.17352851
  -exchange      EXHF   =         0.00000000
  -V(xc)+E(xc)   XCENC  =       178.04052298
  PAW double counting   =     30058.15728724   -29143.52193112
  entropy T*S    EENTRO =        -0.02440828
  eigenvalues    EBANDS =      -845.22890816
  atomic energy  EATOM  =     27259.89416086
  Solvation  Ediel_sol  =         0.00000000
  ---------------------------------------------------
  free energy    TOTEN  =      -229.87023897 eV

  energy without entropy =     -229.84583069  energy(sigma->0) =     -229.86210288


--------------------------------------------------------------------------------------------------------




--------------------------------------- Iteration      1(  15)  ---------------------------------------


    POTLOK:  cpu time    0.4346: real time    0.4369
    SETDIJ:  cpu time    0.0370: real time    0.0372
    EDDIAG:  cpu time    2.3941: real time    3.4814
  RMM-DIIS:  cpu time    6.7479: real time    7.8686
    ORTHCH:  cpu time    0.6369: real time    0.6401
       DOS:  cpu time    0.0079: real time    0.0079
    CHARGE:  cpu time    0.7871: real time    0.8512
    MIXING:  cpu time    0.0517: real time    0.1257
    --------------------------------------------
      LOOP:  cpu time   11.0971: real time   13.4489

 eigenvalue-minimisations  :  1831
 total energy-change (2. order) : 0.7654797E-02  (-0.2059449E-02)
 number of electron     376.0000082 magnetization 
 augmentation part      112.9632934 magnetization 

 Broyden mixing:
  rms(total) = 0.44418E-01    rms(broyden)= 0.44414E-01
  rms(prec ) = 0.55930E-01
  weight for this iteration     100.00

 eigenvalues of (default mixing * dielectric matrix)
  average eigenvalue GAMMA=   0.7108
  2.4750  1.2949  0.9372  0.7234  0.5069  0.0943  0.3508  0.2679  0.2286  0.2286

 Free energy of the ion-electron system (eV)
  ---------------------------------------------------
  alpha Z        PSCENC =       975.10247152
  Ewald energy   TEWEN  =     91135.88409449
  -Hartree energ DENC   =   -119850.16060702
  -exchange      EXHF   =         0.00000000
  -V(xc)+E(xc)   XCENC  =       178.04230195
  PAW double counting   =     30094.54011791   -29180.28412610
  entropy T*S    EENTRO =        -0.02173175
  eigenvalues    EBANDS =      -842.85926605
  atomic energy  EATOM  =     27259.89416086
  Solvation  Ediel_sol  =         0.00000000
  ---------------------------------------------------
  free energy    TOTEN  =      -229.86258417 eV

  energy without entropy =     -229.84085242  energy(sigma->0) =     -229.85534026


--------------------------------------------------------------------------------------------------------




--------------------------------------- Iteration      1(  16)  ---------------------------------------


    POTLOK:  cpu time    0.2737: real time    0.4323
    SETDIJ:  cpu time    0.0108: real time    0.0230
    EDDIAG:  cpu time    2.9907: real time    3.9868
  RMM-DIIS:  cpu time    5.7684: real time    7.2355
    ORTHCH:  cpu time    0.5584: real time    0.7050
       DOS:  cpu time    0.0012: real time    0.0012
    CHARGE:  cpu time    0.6676: real time    0.8162
    MIXING:  cpu time    0.0500: real time    0.0502
    --------------------------------------------
      LOOP:  cpu time   10.3208: real time   13.2502

 eigenvalue-minimisations  :  1830
 total energy-change (2. order) : 0.2712194E-02  (-0.4418053E-03)
 number of electron     376.0000082 magnetization 
 augmentation part      112.9626793 magnetization 

 Broyden mixing:
  rms(total) = 0.21360E-01    rms(broyden)= 0.21358E-01
  rms(prec ) = 0.27685E-01
  weight for this iteration     100.00

 eigenvalues of (default mixing * dielectric matrix)
  average eigenvalue GAMMA=   0.6952
  2.4922  1.3082  0.9566  0.7721  0.4896  0.4896  0.0943  0.3241  0.2631  0.2284
  0.2284

 Free energy of the ion-electron system (eV)
  ---------------------------------------------------
  alpha Z        PSCENC =       975.10247152
  Ewald energy   TEWEN  =     91135.88409449
  -Hartree energ DENC   =   -119851.84058874
  -exchange      EXHF   =         0.00000000
  -V(xc)+E(xc)   XCENC  =       178.04995950
  PAW double counting   =     30121.03366299   -29207.03110678
  entropy T*S    EENTRO =        -0.02343310
  eigenvalues    EBANDS =      -840.92909273
  atomic energy  EATOM  =     27259.89416086
  Solvation  Ediel_sol  =         0.00000000
  ---------------------------------------------------
  free energy    TOTEN  =      -229.85987198 eV

  energy without entropy =     -229.83643888  energy(sigma->0) =     -229.85206095


--------------------------------------------------------------------------------------------------------




--------------------------------------- Iteration      1(  17)  ---------------------------------------


    POTLOK:  cpu time    0.4364: real time    0.4963
    SETDIJ:  cpu time    0.0280: real time    0.0457
    EDDIAG:  cpu time    2.9755: real time    3.7994
  RMM-DIIS:  cpu time    6.6529: real time    7.6289
    ORTHCH:  cpu time    0.3909: real time    0.5676
       DOS:  cpu time    0.0010: real time    0.0010
    CHARGE:  cpu time    0.5901: real time    1.0241
    MIXING:  cpu time    0.0049: real time    0.0116
    --------------------------------------------
      LOOP:  cpu time   11.0797: real time   13.5745

 eigenvalue-minimisations  :  1809
 total energy-change (2. order) : 0.4138251E-03  (-0.1332549E-03)
 number of electron     376.0000082 magnetization 
 augmentation part      112.9624605 magnetization 

 Broyden mixing:
  rms(total) = 0.13859E-01    rms(broyden)= 0.13857E-01
  rms(prec ) = 0.17468E-01
  weight for this iteration     100.00

 eigenvalues of (default mixing * dielectric matrix)
  average eigenvalue GAMMA=   0.7184
  2.5028  1.3210  1.1085  1.0367  0.7002  0.5186  0.0943  0.3531  0.2800  0.2503
  0.2278  0.2278

 Free energy of the ion-electron system (eV)
  ---------------------------------------------------
  alpha Z        PSCENC =       975.10247152
  Ewald energy   TEWEN  =     91135.88409449
  -Hartree energ DENC   =   -119852.58677359
  -exchange      EXHF   =         0.00000000
  -V(xc)+E(xc)   XCENC  =       178.05466174
  PAW double counting   =     30123.32332130   -29209.31832209
  entropy T*S    EENTRO =        -0.02310371
  eigenvalues    EBANDS =      -840.18996869
  atomic energy  EATOM  =     27259.89416086
  Solvation  Ediel_sol  =         0.00000000
  ---------------------------------------------------
  free energy    TOTEN  =      -229.85945815 eV

  energy without entropy =     -229.83635445  energy(sigma->0) =     -229.85175692


--------------------------------------------------------------------------------------------------------




--------------------------------------- Iteration      1(  18)  ---------------------------------------


    POTLOK:  cpu time    0.4282: real time    0.4518
    SETDIJ:  cpu time    0.0315: real time    0.0317
    EDDIAG:  cpu time    3.6393: real time    4.5144
  RMM-DIIS:  cpu time    4.9662: real time    6.8958
    ORTHCH:  cpu time    0.3443: real time    0.4588
       DOS:  cpu time    0.0012: real time    0.0012
    --------------------------------------------
      LOOP:  cpu time    9.4107: real time   12.3537

 eigenvalue-minimisations  :  1563
 total energy-change (2. order) :-0.2805673E-04  (-0.5772346E-04)
 number of electron     376.0000082 magnetization 
 augmentation part      112.9624605 magnetization 

 Free energy of the ion-electron system (eV)
  ---------------------------------------------------
  alpha Z        PSCENC =       975.10247152
  Ewald energy   TEWEN  =     91135.88409449
  -Hartree energ DENC   =   -119853.77497541
  -exchange      EXHF   =         0.00000000
  -V(xc)+E(xc)   XCENC  =       178.06069324
  PAW double counting   =     30122.41303864   -29208.35271076
  entropy T*S    EENTRO =        -0.02404267
  eigenvalues    EBANDS =      -839.06221611
  atomic energy  EATOM  =     27259.89416086
  Solvation  Ediel_sol  =         0.00000000
  ---------------------------------------------------
  free energy    TOTEN  =      -229.85948621 eV

  energy without entropy =     -229.83544354  energy(sigma->0) =     -229.85147199


--------------------------------------------------------------------------------------------------------




 average (electrostatic) potential at core
  the test charge radii are     0.6991  0.7215  1.2059
  (the norm of the test charge is              1.0000)
       1 -56.2968       2 -75.1028       3 -76.4891       4 -72.3091       5 -72.2938
       6 -72.2785       7 -72.2713       8 -72.2846       9 -72.2716      10 -72.2649
      11 -72.3042      12 -72.2761      13 -72.8065      14 -72.9216      15 -72.9320
      16 -72.9985      17 -73.0078      18 -72.9465      19 -72.9497      20 -72.9710
      21 -72.9330      22 -72.9314      23 -72.9255      24 -72.8176      25 -72.8716
      26 -72.9186      27 -72.9867      28 -72.8832      29 -72.9365      30 -72.9298
      31 -72.4136      32 -72.2163      33 -72.3216      34 -72.3287      35 -72.3435
      36 -73.1544      37 -72.5138      38 -73.4425      39 -72.2990
 
 
 
 E-fermi :   1.1379     XC(G=0):  -6.6334     alpha+bet : -6.8913


 k-point     1 :       0.0000    0.0000    0.0000
  band No.  band energies     occupation 
      1     -22.2973      2.00000
      2     -17.5507      2.00000
      3      -8.4830      2.00000
      4      -8.0599      2.00000
      5      -6.7590      2.00000
      6      -6.0780      2.00000
      7      -5.9076      2.00000
      8      -5.7214      2.00000
      9      -5.6517      2.00000
     10      -5.6254      2.00000
     11      -5.6041      2.00000
     12      -5.5623      2.00000
     13      -5.5477      2.00000
     14      -5.5402      2.00000
     15      -5.4342      2.00000
     16      -5.2624      2.00000
     17      -5.0563      2.00000
     18      -5.0374      2.00000
     19      -5.0200      2.00000
     20      -5.0155      2.00000
     21      -4.9680      2.00000
     22      -4.9201      2.00000
     23      -4.6947      2.00000
     24      -4.6532      2.00000
     25      -4.5254      2.00000
     26      -4.5124      2.00000
     27      -4.4886      2.00000
     28      -4.4730      2.00000
     29      -4.3642      2.00000
     30      -4.3252      2.00000
     31      -4.3069      2.00000
     32      -4.2905      2.00000
     33      -4.2708      2.00000
     34      -4.1872      2.00000
     35      -4.1568      2.00000
     36      -4.1288      2.00000
     37      -4.0854      2.00000
     38      -4.0700      2.00000
     39      -4.0565      2.00000
     40      -4.0303      2.00000
     41      -4.0207      2.00000
     42      -4.0047      2.00000
     43      -3.9734      2.00000
     44      -3.9658      2.00000
     45      -3.9364      2.00000
     46      -3.9115      2.00000
     47      -3.7604      2.00000
     48      -3.5801      2.00000
     49      -3.5005      2.00000
     50      -3.4388      2.00000
     51      -3.3849      2.00000
     52      -3.3670      2.00000
     53      -3.3555      2.00000
     54      -3.3270      2.00000
     55      -3.2889      2.00000
     56      -3.2747      2.00000
     57      -3.1788      2.00000
     58      -3.1677      2.00000
     59      -3.1280      2.00000
     60      -3.1075      2.00000
     61      -3.0785      2.00000
     62      -3.0129      2.00000
     63      -2.9332      2.00000
     64      -2.6313      2.00000
     65      -2.6021      2.00000
     66      -2.5523      2.00000
     67      -2.4879      2.00000
     68      -2.4699      2.00000
     69      -2.4552      2.00000
     70      -2.4413      2.00000
     71      -2.4217      2.00000
     72      -2.3846      2.00000
     73      -2.3655      2.00000
     74      -2.3516      2.00000
     75      -2.3328      2.00000
     76      -2.3188      2.00000
     77      -2.3121      2.00000
     78      -2.2947      2.00000
     79      -2.2813      2.00000
     80      -2.2625      2.00000
     81      -2.2447      2.00000
     82      -2.2359      2.00000
     83      -2.2223      2.00000
     84      -2.2116      2.00000
     85      -2.1459      2.00000
     86      -2.1336      2.00000
     87      -2.1044      2.00000
     88      -2.0748      2.00000
     89      -2.0429      2.00000
     90      -2.0232      2.00000
     91      -1.9815      2.00000
     92      -1.9265      2.00000
     93      -1.9220      2.00000
     94      -1.8949      2.00000
     95      -1.8723      2.00000
     96      -1.8513      2.00000
     97      -1.8163      2.00000
     98      -1.7630      2.00000
     99      -1.7470      2.00000
    100      -1.7027      2.00000
    101      -1.6888      2.00000
    102      -1.5901      2.00000
    103      -1.5864      2.00000
    104      -1.5497      2.00000
    105      -1.5309      2.00000
    106      -1.5255      2.00000
    107      -1.5073      2.00000
    108      -1.4944      2.00000
    109      -1.4578      2.00000
    110      -1.4513      2.00000
    111      -1.4500      2.00000
    112      -1.4292      2.00000
    113      -1.4137      2.00000
    114      -1.2650      2.00000
    115      -1.2223      2.00000
    116      -1.1576      2.00000
    117      -1.0514      2.00000
    118      -0.9954      2.00000
    119      -0.9507      2.00000
    120      -0.8955      2.00000
    121      -0.8842      2.00000
    122      -0.8570      2.00000
    123      -0.8480      2.00000
    124      -0.8152      2.00000
    125      -0.8141      2.00000
    126      -0.7678      2.00000
    127      -0.7107      2.00000
    128      -0.6923      2.00000
    129      -0.6603      2.00000
    130      -0.6438      2.00000
    131      -0.6267      2.00000
    132      -0.6139      2.00000
    133      -0.5736      2.00000
    134      -0.5632      2.00000
    135      -0.4990      2.00000
    136      -0.4174      2.00000
    137      -0.3729      2.00000
    138      -0.3491      2.00000
    139      -0.3292      2.00000
    140      -0.3095      2.00000
    141      -0.2040      2.00000
    142      -0.1789      2.00000
    143      -0.1277      2.00000
    144      -0.1128      2.00000
    145      -0.1008      2.00000
    146      -0.0666      2.00000
    147      -0.0311      2.00000
    148       0.0048      2.00000
    149       0.0159      2.00000
    150       0.0545      2.00000
    151       0.0856      2.00000
    152       0.1196      2.00000
    153       0.1571      2.00000
    154       0.1701      2.00000
    155       0.1891      2.00000
    156       0.2311      2.00000
    157       0.2794      2.00000
    158       0.3083      2.00000
    159       0.3224      2.00000
    160       0.3288      2.00000
    161       0.3398      2.00000
    162       0.3690      2.00000
    163       0.3700      2.00000
    164       0.3784      2.00000
    165       0.4035      2.00000
    166       0.4093      2.00000
    167       0.4656      2.00002
    168       0.4786      2.00003
    169       0.4945      2.00005
    170       0.5185      2.00011
    171       0.5392      2.00019
    172       0.5644      2.00038
    173       0.6083      2.00117
    174       0.6514      2.00311
    175       0.6648      2.00414
    176       0.6700      2.00460
    177       0.6984      2.00804
    178       0.7082      2.00961
    179       0.7288      2.01377
    180       0.7465      2.01832
    181       0.7980      2.03713
    182       0.8220      2.04806
    183       0.8404      2.05642
    184       0.8446      2.05826
    185       0.8560      2.06285
    186       0.8645      2.06581
    187       0.8709      2.06770
    188       0.8751      2.06875
    189       0.8835      2.07027
    190       0.9032      2.07004
    191       0.9149      2.06664
    192       0.9276      2.05937
    193       0.9467      2.03992
    194       0.9631      2.01322
    195       1.0066      1.88736
    196       1.1193      1.15629
    197       1.1461      0.93093
    198       1.2067      0.45378
    199       1.2309      0.29939
    200       1.2462      0.21606
    201       1.2628      0.13854
    202       1.2899      0.04185
    203       1.3110     -0.00989
    204       1.4319     -0.05794
    205       1.5460     -0.01399
    206       1.9524     -0.00000
    207       2.0271     -0.00000
    208       2.0802     -0.00000
    209       2.1014     -0.00000
    210       2.2307     -0.00000
    211       2.5242     -0.00000
    212       3.6068     -0.00000
    213       3.9545     -0.00000
    214       4.3214     -0.00000
    215       4.3935     -0.00000
    216       4.4228     -0.00000
    217       4.5431     -0.00000
    218       4.8557     -0.00000
    219       5.3958     -0.00000
    220       5.5501     -0.00000
    221       5.8879     -0.00000
    222       5.9253     -0.00000
    223       5.9357     -0.00000
    224       5.9918     -0.00000
    225       6.0553     -0.00000
    226       6.1342     -0.00000
    227       6.5574     -0.00000
    228       6.7322      0.00000

 k-point     2 :       0.5000    0.0000    0.0000
  band No.  band energies     occupation 
      1     -22.2972      2.00000
      2     -17.5503      2.00000
      3      -8.4602      2.00000
      4      -7.2247      2.00000
      5      -7.1847      2.00000
      6      -6.1287      2.00000
      7      -5.9917      2.00000
      8      -5.9536      2.00000
      9      -5.7720      2.00000
     10      -5.7125      2.00000
     11      -5.5373      2.00000
     12      -5.3937      2.00000
     13      -5.3039      2.00000
     14      -5.2155      2.00000
     15      -5.0103      2.00000
     16      -4.8677      2.00000
     17      -4.8494      2.00000
     18      -4.8428      2.00000
     19      -4.8168      2.00000
     20      -4.7950      2.00000
     21      -4.7800      2.00000
     22      -4.7649      2.00000
     23      -4.7426      2.00000
     24      -4.7339      2.00000
     25      -4.7078      2.00000
     26      -4.6620      2.00000
     27      -4.6446      2.00000
     28      -4.6165      2.00000
     29      -4.5873      2.00000
     30      -4.4962      2.00000
     31      -4.3721      2.00000
     32      -4.3302      2.00000
     33      -4.2920      2.00000
     34      -4.2761      2.00000
     35      -4.2388      2.00000
     36      -4.1920      2.00000
     37      -4.0133      2.00000
     38      -3.9752      2.00000
     39      -3.9556      2.00000
     40      -3.9396      2.00000
     41      -3.9243      2.00000
     42      -3.8774      2.00000
     43      -3.8728      2.00000
     44      -3.8128      2.00000
     45      -3.7501      2.00000
     46      -3.6724      2.00000
     47      -3.6325      2.00000
     48      -3.6192      2.00000
     49      -3.5454      2.00000
     50      -3.5276      2.00000
     51      -3.4752      2.00000
     52      -3.4159      2.00000
     53      -3.3920      2.00000
     54      -3.3503      2.00000
     55      -3.3212      2.00000
     56      -3.2808      2.00000
     57      -3.2263      2.00000
     58      -3.1988      2.00000
     59      -3.1757      2.00000
     60      -3.1321      2.00000
     61      -3.0624      2.00000
     62      -3.0184      2.00000
     63      -3.0057      2.00000
     64      -2.9794      2.00000
     65      -2.9618      2.00000
     66      -2.9245      2.00000
     67      -2.8742      2.00000
     68      -2.8375      2.00000
     69      -2.8242      2.00000
     70      -2.7467      2.00000
     71      -2.7150      2.00000
     72      -2.6884      2.00000
     73      -2.6038      2.00000
     74      -2.5430      2.00000
     75      -2.5189      2.00000
     76      -2.4974      2.00000
     77      -2.4591      2.00000
     78      -2.4234      2.00000
     79      -2.4056      2.00000
     80      -2.3718      2.00000
     81      -2.3397      2.00000
     82      -2.2969      2.00000
     83      -2.2596      2.00000
     84      -2.2193      2.00000
     85      -2.2145      2.00000
     86      -2.1886      2.00000
     87      -2.1496      2.00000
     88      -2.1423      2.00000
     89      -2.1141      2.00000
     90      -2.0999      2.00000
     91      -2.0630      2.00000
     92      -2.0557      2.00000
     93      -2.0107      2.00000
     94      -1.9674      2.00000
     95      -1.9225      2.00000
     96      -1.9081      2.00000
     97      -1.8792      2.00000
     98      -1.8634      2.00000
     99      -1.8104      2.00000
    100      -1.7773      2.00000
    101      -1.7625      2.00000
    102      -1.7340      2.00000
    103      -1.7065      2.00000
    104      -1.6972      2.00000
    105      -1.6511      2.00000
    106      -1.6285      2.00000
    107      -1.6018      2.00000
    108      -1.5755      2.00000
    109      -1.5640      2.00000
    110      -1.5302      2.00000
    111      -1.5060      2.00000
    112      -1.4268      2.00000
    113      -1.3903      2.00000
    114      -1.3612      2.00000
    115      -1.2766      2.00000
    116      -1.2014      2.00000
    117      -1.1655      2.00000
    118      -1.1536      2.00000
    119      -1.1127      2.00000
    120      -1.0978      2.00000
    121      -1.0625      2.00000
    122      -1.0382      2.00000
    123      -0.9932      2.00000
    124      -0.9647      2.00000
    125      -0.9321      2.00000
    126      -0.8942      2.00000
    127      -0.8620      2.00000
    128      -0.8389      2.00000
    129      -0.8276      2.00000
    130      -0.8159      2.00000
[...]
     86      -2.1933      2.00000
     87      -2.1574      2.00000
     88      -2.1444      2.00000
     89      -2.1381      2.00000
     90      -2.1307      2.00000
     91      -2.0793      2.00000
     92      -2.0751      2.00000
     93      -2.0396      2.00000
     94      -1.9773      2.00000
     95      -1.9551      2.00000
     96      -1.9299      2.00000
     97      -1.8786      2.00000
     98      -1.8438      2.00000
     99      -1.8319      2.00000
    100      -1.8283      2.00000
    101      -1.7607      2.00000
    102      -1.7439      2.00000
    103      -1.7216      2.00000
    104      -1.6937      2.00000
    105      -1.6792      2.00000
    106      -1.6634      2.00000
    107      -1.6469      2.00000
    108      -1.6261      2.00000
    109      -1.6038      2.00000
    110      -1.5412      2.00000
    111      -1.5024      2.00000
    112      -1.4546      2.00000
    113      -1.4349      2.00000
    114      -1.3779      2.00000
    115      -1.2911      2.00000
    116      -1.2623      2.00000
    117      -1.2151      2.00000
    118      -1.1745      2.00000
    119      -1.1260      2.00000
    120      -1.0867      2.00000
    121      -1.0658      2.00000
    122      -1.0391      2.00000
    123      -1.0124      2.00000
    124      -0.9974      2.00000
    125      -0.9831      2.00000
    126      -0.9623      2.00000
    127      -0.9360      2.00000
    128      -0.9207      2.00000
    129      -0.8968      2.00000
    130      -0.8801      2.00000
    131      -0.8120      2.00000
    132      -0.7962      2.00000
    133      -0.7598      2.00000
    134      -0.7208      2.00000
    135      -0.7090      2.00000
    136      -0.6693      2.00000
    137      -0.6662      2.00000
    138      -0.6403      2.00000
    139      -0.5932      2.00000
    140      -0.5396      2.00000
    141      -0.4798      2.00000
    142      -0.4484      2.00000
    143      -0.3700      2.00000
    144      -0.2818      2.00000
    145      -0.2470      2.00000
    146      -0.1941      2.00000
    147      -0.1711      2.00000
    148      -0.1073      2.00000
    149      -0.0815      2.00000
    150      -0.0477      2.00000
    151      -0.0191      2.00000
    152       0.0556      2.00000
    153       0.0636      2.00000
    154       0.0897      2.00000
    155       0.1060      2.00000
    156       0.1096      2.00000
    157       0.1231      2.00000
    158       0.1820      2.00000
    159       0.2085      2.00000
    160       0.2265      2.00000
    161       0.2631      2.00000
    162       0.3076      2.00000
    163       0.3348      2.00000
    164       0.3594      2.00000
    165       0.3965      2.00001
    166       0.4152      2.00001
    167       0.5407      2.00041
    168       0.5904      2.00141
    169       0.6066      2.00205
    170       0.6418      2.00438
    171       0.6553      2.00575
    172       0.6798      2.00917
    173       0.7097      2.01537
    174       0.8022      2.05079
    175       0.8075      2.05323
    176       0.8253      2.06092
    177       0.8653      2.07089
    178       0.8771      2.07011
    179       0.9284      2.02894
    180       0.9461      1.99473
    181       0.9504      1.98438
    182       1.0300      1.63406
    183       1.0624      1.40679
    184       1.0971      1.12643
    185       1.1042      1.06727
    186       1.1243      0.89684
    187       1.1373      0.78844
    188       1.1648      0.57071
    189       1.1681      0.54579
    190       1.1990      0.33604
    191       1.3166     -0.05463
    192       1.3453     -0.06976
    193       1.3712     -0.06952
    194       1.3982     -0.06121
    195       1.4420     -0.04161
    196       1.5126     -0.01587
    197       1.6037     -0.00279
    198       1.7345     -0.00010
    199       1.8357     -0.00000
    200       1.9864     -0.00000
    201       2.2509     -0.00000
    202       2.3610     -0.00000
    203       2.7933     -0.00000
    204       2.9538     -0.00000
    205       2.9763     -0.00000
    206       3.0137     -0.00000
    207       3.0231     -0.00000
    208       3.2195     -0.00000
    209       3.3852     -0.00000
    210       3.5210     -0.00000
    211       3.5842     -0.00000
    212       3.6114     -0.00000
    213       3.7267     -0.00000
    214       3.8161     -0.00000
    215       3.9720     -0.00000
    216       4.1736     -0.00000
    217       4.2363     -0.00000
    218       4.3934     -0.00000
    219       4.4377     -0.00000
    220       4.6025     -0.00000
    221       4.6535     -0.00000
    222       4.8332     -0.00000
    223       5.1636     -0.00000
    224       5.5592     -0.00000
    225       5.8173     -0.00000
    226       6.5345     -0.00000
    227       6.5650     -0.00000
    228       6.6112      0.00000


--------------------------------------------------------------------------------------------------------


 soft charge-density along one line, spin component           1
         0         1         2         3         4         5         6         7         8         9
 total charge-density along one line
 
 pseudopotential strength for first ion, spin component:           1
 10.099   0.016   0.004   0.010   0.001  -0.004  -0.009  -0.000
  0.016  -0.002  -0.000  -0.000  -0.000  -0.000  -0.000   0.000
  0.004  -0.000  -4.248  -0.006   0.001  -0.010  -0.002  -0.000
  0.010  -0.000  -0.006  -4.263   0.002  -0.002  -0.016   0.000
  0.001  -0.000   0.001   0.002  -4.246  -0.000   0.000  -0.010
 -0.004  -0.000  -0.010  -0.002  -0.000  -0.770  -0.000   0.000
 -0.009  -0.000  -0.002  -0.016   0.000  -0.000  -0.770   0.000
 -0.000   0.000  -0.000   0.000  -0.010   0.000   0.000  -0.770
 total augmentation occupancy for first ion, spin component:           1
  1.644  -0.864  -0.001  -0.004  -0.045   0.032   0.082  -0.017
 -0.864   1.199  -0.206  -0.538   0.055  -0.082  -0.226   0.018
 -0.001  -0.206   0.852   0.197   0.015   0.114   0.054  -0.001
 -0.004  -0.538   0.197   1.324   0.011   0.054   0.249  -0.002
 -0.045   0.055   0.015   0.011   0.782  -0.001  -0.003   0.096
  0.032  -0.082   0.114   0.054  -0.001   0.020   0.021  -0.002
  0.082  -0.226   0.054   0.249  -0.003   0.021   0.071  -0.003
 -0.017   0.018  -0.001  -0.002   0.096  -0.002  -0.003   0.013


------------------------ aborting loop because EDIFF is reached ----------------------------------------


    CHARGE:  cpu time    0.6888: real time    1.1935
    FORLOC:  cpu time    0.0369: real time    0.0674
    FORNL :  cpu time    3.2824: real time    3.9085
    STRESS:  cpu time    8.0167: real time    8.7790
    FORCOR:  cpu time    0.3098: real time    0.3120
    FORHAR:  cpu time    0.2210: real time    0.2227
    MIXING:  cpu time    0.0396: real time    0.0576
    OFIELD:  cpu time    0.0000: real time    0.0000

  FORCE on cell =-STRESS in cart. coord.  units (eV):
  Direction    XX          YY          ZZ          XY          YZ          ZX
  --------------------------------------------------------------------------------------
  Alpha Z   975.10247   975.10247   975.10247
  Ewald  111022.34933111053.34921************  -197.54350   262.28307   -73.36442
  Hartree117790.74850117778.88650************  -129.00528   108.26117   -43.74232
  E(xc)   -1665.81411 -1665.48901 -1673.25315    -0.47693     0.73516    -0.18251
  Local  ************************239539.76100   314.92679  -344.50885   112.08308
  n-local   123.56647   123.06729    89.08859    -2.18390     2.34939    -0.59462
  augment  1895.01079  1892.58979  1933.89518     3.64759    -5.27619     1.19754
  Kinetic  5523.82044  5512.25923  5601.29244    10.73283   -23.32776     5.36578
  Fock        0.00000     0.00000     0.00000     0.00000     0.00000     0.00000
  -------------------------------------------------------------------------------------
  Total     -36.24644   -38.67971    -4.49000     0.09760     0.51599     0.76252
  in kB     -43.17011   -46.06818    -5.34767     0.11624     0.61455     0.90817
  external pressure =      -31.53 kB  Pullay stress =        0.00 kB


 VOLUME and BASIS-vectors are now :
 -----------------------------------------------------------------------------
  energy-cutoff  :      450.00
  volume of cell :     1345.22
      direct lattice vectors                 reciprocal lattice vectors
     7.296955120 -4.212899000  0.000000000     0.137043463  0.000000000  0.000000000
     0.000000000  8.425798000  0.000000000     0.068521732  0.118683121  0.000000000
     0.000000000  0.000000000 21.879635000     0.000000000  0.000000000  0.045704602

  length of vectors
     8.425798004  8.425798000 21.879635000     0.137043463  0.137043463  0.045704602


 FORCES acting on ions
    electron-ion (+dipol)            ewald-force                    non-local-force                 convergence-correction
 -----------------------------------------------------------------------------------------------
   0.213E+02 0.172E+02 -.887E+03   -.225E+02 -.217E+02 0.876E+03   0.792E+00 0.417E+01 0.113E+02   -.387E-03 -.166E-01 -.135E-01
   -.735E+02 0.373E+02 -.160E+04   0.725E+02 -.318E+02 0.162E+04   0.165E+01 -.523E+01 -.241E+02   0.191E-02 -.105E-02 -.856E-02
   0.446E+02 -.102E+03 -.156E+04   -.487E+02 0.123E+03 0.162E+04   0.426E+01 -.207E+02 -.580E+02   0.348E-02 -.124E-01 -.754E-02
   0.388E+00 0.681E+00 0.234E+04   -.359E+00 -.669E+00 -.234E+04   0.173E-01 -.560E-01 -.119E+01   -.252E-01 0.180E-01 0.736E-02
   0.534E+00 0.671E+00 0.234E+04   -.555E+00 -.606E+00 -.234E+04   -.311E-01 -.327E-01 -.111E+01   0.229E-01 -.545E-01 0.562E-02
   0.156E+00 0.627E+00 0.234E+04   -.174E+00 -.596E+00 -.234E+04   0.191E-01 -.156E-01 -.114E+01   -.322E-01 -.233E-01 0.206E-01
   -.592E-01 -.117E+00 0.234E+04   0.937E-01 0.214E+00 -.234E+04   -.898E-02 0.588E-02 -.118E+01   -.254E-02 -.264E-01 -.938E-02
   0.650E-01 -.768E-01 0.234E+04   -.583E-01 0.609E-01 -.234E+04   0.128E-01 0.258E-01 -.128E+01   -.229E-01 0.152E-01 -.118E-01
   -.254E+00 -.160E+00 0.234E+04   0.260E+00 0.234E+00 -.234E+04   0.260E-01 0.527E-02 -.122E+01   -.153E-01 -.593E-01 -.218E-01
   0.535E-01 -.710E+00 0.234E+04   -.125E-01 0.542E+00 -.234E+04   -.751E-01 0.897E-01 -.107E+01   0.405E-01 0.394E-01 0.615E-02
   -.511E+00 -.393E+00 0.234E+04   0.558E+00 0.358E+00 -.234E+04   -.212E-01 -.284E-01 -.125E+01   -.188E-01 0.827E-01 -.361E-02
   -.257E+00 -.473E+00 0.234E+04   0.246E+00 0.456E+00 -.234E+04   -.224E-01 0.113E-01 -.104E+01   0.532E-01 0.842E-02 -.165E-01
   0.104E+01 -.188E+01 0.853E+03   -.122E+01 0.184E+01 -.853E+03   0.588E-01 0.185E-01 -.310E+00   0.708E-01 0.107E-01 -.604E-02
   -.324E+01 -.260E+01 0.858E+03   0.311E+01 0.251E+01 -.858E+03   0.157E+00 0.102E+00 -.147E+00   0.761E-02 0.682E-01 -.195E-01
   -.390E-01 -.125E+01 0.854E+03   0.110E+00 0.106E+01 -.854E+03   -.213E-01 0.542E-01 -.169E+00   0.124E-01 0.777E-01 0.153E-01
   0.279E+01 0.474E+01 0.862E+03   -.279E+01 -.477E+01 -.861E+03   -.257E-01 -.327E-01 -.352E+00   -.263E-01 -.282E-01 0.190E-01
   0.267E+01 0.510E+01 0.863E+03   -.273E+01 -.497E+01 -.863E+03   0.251E-01 -.135E+00 -.373E+00   -.178E-01 -.915E-01 -.615E-02
   0.231E+01 0.619E+01 0.861E+03   -.225E+01 -.617E+01 -.861E+03   -.697E-01 -.979E-01 -.311E+00   -.448E-01 -.340E-01 0.576E-02
   0.104E+01 -.216E+01 0.861E+03   -.102E+01 0.230E+01 -.861E+03   -.810E-01 -.115E+00 -.313E+00   0.782E-02 0.176E-01 -.115E-01
   -.343E+01 -.176E+01 0.861E+03   0.349E+01 0.181E+01 -.861E+03   0.666E-01 -.566E-01 -.359E+00   -.280E-01 0.227E-01 -.308E-02
   -.293E+01 -.349E+01 0.860E+03   0.297E+01 0.372E+01 -.860E+03   0.481E-01 -.794E-01 -.301E+00   0.184E-01 -.428E-01 -.270E-02
   0.381E+00 0.217E+01 -.627E+03   -.468E+00 -.219E+01 0.626E+03   0.147E+00 0.566E-01 0.529E+00   -.418E-01 -.408E-01 0.259E-02
   -.713E+00 -.679E+00 -.624E+03   0.735E+00 0.752E+00 0.623E+03   -.332E-01 -.165E+00 0.562E+00   -.172E-02 0.539E-01 -.142E-01
   -.417E+01 0.149E+01 -.662E+03   0.382E+01 -.121E+01 0.662E+03   0.391E+00 -.193E+00 0.816E-02   0.132E-01 0.357E-01 -.324E-02
   -.193E+01 0.118E+02 -.642E+03   0.143E+01 -.111E+02 0.643E+03   0.484E+00 -.756E+00 -.446E+00   0.148E-01 0.251E-01 0.288E-01
   0.954E+01 0.299E+01 -.640E+03   -.897E+01 -.311E+01 0.640E+03   -.504E+00 0.338E-01 -.133E+00   0.851E-02 0.160E-01 0.530E-03
   -.492E+01 -.104E+02 -.637E+03   0.477E+01 0.102E+02 0.637E+03   0.545E-01 0.139E+00 0.161E+00   0.320E-01 0.196E-01 0.319E-01
   -.269E+01 -.612E+01 -.639E+03   0.274E+01 0.611E+01 0.638E+03   -.131E+00 0.846E-01 0.265E+00   0.362E-01 0.254E-01 0.437E-01
   0.244E+01 -.925E+00 -.619E+03   -.241E+01 0.925E+00 0.619E+03   -.235E-01 0.617E-01 0.518E+00   -.406E-01 -.616E-01 0.489E-02
   -.116E+01 0.866E+00 -.617E+03   0.114E+01 -.103E+01 0.616E+03   0.520E-01 0.244E+00 0.564E+00   -.182E-01 -.734E-01 -.217E-02
   -.168E+02 -.867E+01 -.212E+04   0.174E+02 0.905E+01 0.212E+04   -.650E+00 -.377E+00 0.160E+01   -.299E-01 -.327E-01 0.943E-02
   0.194E+02 0.231E+02 -.215E+04   -.199E+02 -.238E+02 0.215E+04   0.423E+00 0.871E+00 0.132E+01   0.438E-01 0.357E-01 0.488E-01
   0.253E+02 -.852E+01 -.214E+04   -.258E+02 0.853E+01 0.214E+04   0.568E+00 0.334E-01 0.950E+00   -.183E-01 -.237E-01 0.437E-01
   -.254E+01 0.757E+01 -.218E+04   0.245E+01 -.787E+01 0.218E+04   -.824E-02 0.255E+00 0.924E+00   0.414E-01 0.364E-01 0.455E-01
   0.135E+02 0.181E+02 -.218E+04   -.135E+02 -.186E+02 0.218E+04   0.519E-01 0.360E+00 0.867E+00   -.370E-02 0.619E-01 0.417E-01
   0.596E+02 0.679E+02 -.196E+04   -.625E+02 -.662E+02 0.196E+04   0.261E+01 -.168E+01 -.327E+01   0.211E-01 0.165E-02 0.341E-01
   -.534E+02 -.449E+02 -.206E+04   0.549E+02 0.474E+02 0.206E+04   -.141E+01 -.264E+01 0.229E+01   -.275E-01 -.163E-01 0.294E-01
   -.547E+02 0.801E+02 -.204E+04   0.551E+02 -.810E+02 0.204E+04   -.578E+00 0.936E+00 -.123E+01   0.231E-03 -.979E-02 0.102E-01
   0.119E+02 -.648E+02 -.211E+04   -.118E+02 0.661E+02 0.210E+04   0.319E-01 -.117E+01 0.123E+01   -.611E-02 -.514E-01 0.575E-01
 -----------------------------------------------------------------------------------------------
   -.819E+01 0.261E+02 0.769E+02   -.107E-13 0.156E-12 0.136E-11   0.824E+01 -.260E+02 -.772E+02   0.281E-01 -.280E-01 0.351E+00
 
 
 POSITION                                       TOTAL-FORCE (eV/Angst)
 -----------------------------------------------------------------------------------
      5.04447      0.66356     10.33388        -0.409087     -0.400879      0.226142
      6.68762     -0.56755     10.13782         0.647971      0.325204     -0.012473
      4.96961      1.05548     11.42494         0.163791      0.017701     -0.030802
      7.20031     -1.38846      1.62732         0.018890     -0.029690      0.157395
      2.33567      1.42014      1.62732        -0.031910     -0.025725      0.161444
      4.76799      0.01584      1.62732        -0.033407     -0.011134      0.150422
      7.20031      1.42015      1.62732         0.020993      0.072865      0.108253
      2.33567      4.22875      1.62732        -0.005484      0.021917      0.097562
      4.76799      2.82445      1.62732         0.015099      0.016903      0.129722
      2.33567      7.03734      1.62732         0.004390     -0.041153      0.061849
      4.76799      5.63304      1.62732         0.004985      0.016361      0.126149
      7.20031      4.22874      1.62732         0.018156     -0.000342      0.041747
      1.52490      0.01584      3.92052        -0.054843     -0.016150      0.025675
      3.95722     -1.38846      3.92052         0.028206      0.082898      0.005330
      6.38953     -2.79276      3.92052         0.060504     -0.054359      0.025237
      1.52490      2.82445      3.92052        -0.054347     -0.089415     -0.124992
      3.95722      1.42015      3.92052        -0.055305     -0.099174     -0.097181
      6.38953      0.01585      3.92052        -0.056243     -0.117819      0.000297
      1.52490      5.63305      3.92052        -0.052414      0.048402     -0.177062
      3.95722      4.22874      3.92052         0.094648      0.010236     -0.151221
      6.38953      2.82445      3.92052         0.106304      0.106241     -0.171935
      0.70107      4.19259      6.18631         0.016138     -0.012924      0.067878
      3.15217      5.62591      6.17638        -0.015571     -0.040629      0.051181
      5.56094     -1.40892      6.24832         0.052914      0.117804     -0.008545
      0.68995      1.42606      6.22859        -0.006426     -0.027610      0.064777
      3.14165     -0.00550      6.22669         0.069565     -0.072284     -0.147276
      0.71896      7.01563      6.21140        -0.064474     -0.013877     -0.107431
      5.59196      4.19960      6.21048        -0.047500      0.095715     -0.154817
      3.15049      2.79264      6.17502        -0.036269     -0.003845      0.126962
      5.57759      1.38807      6.17860         0.011073      0.005962      0.163771
      2.37632      4.19991      8.41170        -0.050459     -0.030046      0.243911
      4.76989      5.56376      8.50055        -0.019808      0.156243     -0.186140
      2.33184      1.36823      8.51751        -0.048992      0.013661     -0.276499
      7.22276      4.15572      8.54137        -0.053748     -0.009962     -0.113980
      2.34728      6.97653      8.53343        -0.023348     -0.048472     -0.189609
      4.68287      0.03263      8.58955        -0.234655     -0.003663     -0.082792
      7.25766      1.40797      8.46251         0.016653     -0.086177      0.063154
      7.28845     -1.55795      8.61286        -0.104759      0.013506      0.111388
      4.77796      2.81670      8.48659         0.108769      0.113711     -0.177491
 -----------------------------------------------------------------------------------
    total drift:                                0.079850      0.121296      0.026500
  FORCES: max atom, RMS     0.725106    0.196216
  Number: max atom                 2
  FORCE total and by dimension    1.225370    0.647971


--------------------------------------------------------------------------------------------------------



  FREE ENERGIE OF THE ION-ELECTRON SYSTEM (eV)
  ---------------------------------------------------
  free  energy   TOTEN  =      -230.68042093 eV

  energy  without entropy=     -230.65753870  energy(sigma->0) =     -230.67279352
 
 d Force = 0.3265709E-01[ 0.306E-01, 0.347E-01]  d Energy = 0.3269883E-01-0.417E-04
 d Force =-0.2451046E+02[-0.245E+02,-0.245E+02]  d Ewald  =-0.2451049E+02 0.340E-04


--------------------------------------------------------------------------------------------------------


    POTLOK:  cpu time    0.3585: real time    0.5635


--------------------------------------------------------------------------------------------------------


 stress matrix after NEB project (eV)
    -36.24644      0.09760      0.76252
      0.09760    -38.67971      0.51599
      0.76252      0.51599     -4.49000
  FORCES: max atom, RMS     0.725106    0.196216
  FORCE total and by dimension    1.225370    0.647971
  Stress total and by dimension   53.214650   38.679713
 Quasi-Newton relaxation of ions (Broydens 2nd method)
  g(Force)  = 0.290E-01   g(Stress)= 0.000E+00

 retain information from N=  3 steps
 eigenvalues of (default step * inverse Hessian matrix)
  average eigenvalue of G=   1.3538
 eigenvalue spectrum of G is  2.2341  0.9137  0.9137
  RESET_HESSIAN           0


--------------------------------------------------------------------------------------------------------


    WAVPRE:  cpu time    0.0937: real time    0.5511
    FEWALD:  cpu time    0.0246: real time    0.0528

 real space projection operators:
  total allocation   :      13544.72 KBytes
  max/ min on nodes  :       6780.70       6764.02

    ORTHCH:  cpu time    2.0305: real time    2.2500
     LOOP+:  cpu time  116.6719: real time  136.6601


--------------------------------------- Iteration      7(   1)  ---------------------------------------


