metal                                   
           1
     7.296955   -4.212899    0.000000
     0.000000    8.425798    0.000000
     0.000000    0.000000   21.879635
   C    O    Pt
   1   2  36
Direct configuration=     1
   0.70319068  0.43764072  0.47451944
   0.90882194  0.37998270  0.46057882
   0.67505413  0.46449661  0.52440798
   0.98675500  0.32859100  0.07437600
   0.32008800  0.32859100  0.07437600
   0.65342200  0.32859100  0.07437600
   0.98675500  0.66192500  0.07437600
   0.32008800  0.66192500  0.07437600
   0.65342200  0.66192500  0.07437600
   0.32008800  0.99525800  0.07437600
   0.65342200  0.99525800  0.07437600
   0.98675500  0.99525800  0.07437600
   0.20897700  0.10636900  0.17918600
   0.54231100  0.10636900  0.17918600
   0.87564400  0.10636900  0.17918600
   0.20897700  0.43970300  0.17918600
   0.54231100  0.43970300  0.17918600
   0.87564400  0.43970300  0.17918600
   0.20897700  0.77303600  0.17918600
   0.54231100  0.77303600  0.17918600
   0.87564400  0.77303600  0.17918600
   0.09787629  0.54807528  0.28212994
   0.42684245  0.87974119  0.28118229
   0.76306455  0.21293080  0.28624943
   0.09194161  0.21813123  0.28246128
   0.43075372  0.21658497  0.28668994
   0.10186196  0.87966561  0.28653370
   0.76659931  0.87883112  0.28420250
   0.43475022  0.55003948  0.27886399
   0.76232812  0.54621068  0.27936611
   0.32607302  0.66454137  0.38260367
   0.65482331  0.98527384  0.39077064
   0.32195262  0.32002874  0.39216039
   0.99302261  0.98751963  0.39126903
   0.31784929  0.98887795  0.39073560
   0.64260344  0.31909974  0.38801868
   0.99838704  0.66927077  0.38604561
   0.99645126  0.31715342  0.39494038
   0.65181502  0.66048569  0.38945430
Direct configuration=     2
   0.70028075  0.43503136  0.47323772
   0.90888281  0.38274220  0.46249400
   0.67639354  0.46468513  0.52416233
   0.98675500  0.32859100  0.07437600
   0.32008800  0.32859100  0.07437600
   0.65342200  0.32859100  0.07437600
   0.98675500  0.66192500  0.07437600
   0.32008800  0.66192500  0.07437600
   0.65342200  0.66192500  0.07437600
   0.32008800  0.99525800  0.07437600
   0.65342200  0.99525800  0.07437600
   0.98675500  0.99525800  0.07437600
   0.20897700  0.10636900  0.17918600
   0.54231100  0.10636900  0.17918600
   0.87564400  0.10636900  0.17918600
   0.20897700  0.43970300  0.17918600
   0.54231100  0.43970300  0.17918600
   0.87564400  0.43970300  0.17918600
   0.20897700  0.77303600  0.17918600
   0.54231100  0.77303600  0.17918600
   0.87564400  0.77303600  0.17918600
   0.09721650  0.54710880  0.28224519
   0.42867330  0.88117436  0.28144042
   0.76272992  0.21271016  0.28596602
   0.09272104  0.21771886  0.28313437
   0.43027924  0.21593506  0.28604080
   0.10091902  0.88066438  0.28571661
   0.76672544  0.87962464  0.28424487
   0.43384392  0.54923823  0.27983410
   0.76300167  0.54647957  0.28016845
   0.32625633  0.66369720  0.38296974
   0.65448468  0.98540679  0.39024182
   0.32097863  0.32075909  0.39152173
   0.99211087  0.98809237  0.39107721
   0.31913929  0.98897890  0.39073037
   0.64295901  0.32141894  0.38957996
   0.99692804  0.66774368  0.38626763
   0.99909650  0.31529285  0.39346585
   0.65236221  0.66035035  0.38910448
Direct configuration=     3
   0.69763083  0.43304240  0.47362401
   0.91015144  0.38456360  0.46292667
   0.67807168  0.46422992  0.52255639
   0.98675500  0.32859100  0.07437600
   0.32008800  0.32859100  0.07437600
   0.65342200  0.32859100  0.07437600
   0.98675500  0.66192500  0.07437600
   0.32008800  0.66192500  0.07437600
   0.65342200  0.66192500  0.07437600
   0.32008800  0.99525800  0.07437600
   0.65342200  0.99525800  0.07437600
   0.98675500  0.99525800  0.07437600
   0.20897700  0.10636900  0.17918600
   0.54231100  0.10636900  0.17918600
   0.87564400  0.10636900  0.17918600
   0.20897700  0.43970300  0.17918600
   0.54231100  0.43970300  0.17918600
   0.87564400  0.43970300  0.17918600
   0.20897700  0.77303600  0.17918600
   0.54231100  0.77303600  0.17918600
   0.87564400  0.77303600  0.17918600
   0.09678336  0.54655985  0.28236241
   0.42989848  0.88215261  0.28168751
   0.76242120  0.21276445  0.28580687
   0.09334659  0.21735918  0.28362207
   0.43012714  0.21547530  0.28558898
   0.10019232  0.88122878  0.28513986
   0.76672189  0.88021026  0.28422158
   0.43316306  0.54862312  0.28058635
   0.76349302  0.54666299  0.28081547
   0.32620178  0.66296518  0.38330349
   0.65424661  0.98572921  0.38978155
   0.32049552  0.32127195  0.39095057
   0.99141287  0.98824532  0.39090677
   0.32004600  0.98901024  0.39062800
   0.64313141  0.32300771  0.39076720
   0.99599725  0.66660333  0.38643070
   0.99939971  0.31496375  0.39334722
   0.65294907  0.66043203  0.38880353
Direct configuration=     4
   0.69620268  0.43048614  0.47237221
   0.91129069  0.38589131  0.46314031
   0.67864732  0.46494199  0.52300777
   0.98675500  0.32859100  0.07437600
   0.32008800  0.32859100  0.07437600
   0.65342200  0.32859100  0.07437600
   0.98675500  0.66192500  0.07437600
   0.32008800  0.66192500  0.07437600
   0.65342200  0.66192500  0.07437600
   0.32008800  0.99525800  0.07437600
   0.65342200  0.99525800  0.07437600
   0.98675500  0.99525800  0.07437600
   0.20897700  0.10636900  0.17918600
   0.54231100  0.10636900  0.17918600
   0.87564400  0.10636900  0.17918600
   0.20897700  0.43970300  0.17918600
   0.54231100  0.43970300  0.17918600
   0.87564400  0.43970300  0.17918600
   0.20897700  0.77303600  0.17918600
   0.54231100  0.77303600  0.17918600
   0.87564400  0.77303600  0.17918600
   0.09651302  0.54621823  0.28245060
   0.43067143  0.88276730  0.28185844
   0.76222979  0.21287191  0.28571305
   0.09374833  0.21710786  0.28394635
   0.43009837  0.21519244  0.28529638
   0.09971129  0.88155906  0.28476063
   0.76669146  0.88060573  0.28418411
   0.43271534  0.54821192  0.28108524
   0.76380573  0.54677603  0.28125913
   0.32612800  0.66246986  0.38355543
   0.65408710  0.98599716  0.38945377
   0.32018871  0.32159999  0.39053660
   0.99094763  0.98830700  0.39078287
   0.32062233  0.98901558  0.39053122
   0.64318340  0.32403806  0.39157005
   0.99543261  0.66587622  0.38653017
   0.99949811  0.31479082  0.39333217
   0.65337821  0.66056898  0.38857764
Direct configuration=     5
   0.69237349  0.42585240  0.47204423
   0.91473525  0.38939667  0.46340965
   0.68061378  0.46539930  0.52210677
   0.98675500  0.32859100  0.07437600
   0.32008800  0.32859100  0.07437600
   0.65342200  0.32859100  0.07437600
   0.98675500  0.66192500  0.07437600
   0.32008800  0.66192500  0.07437600
   0.65342200  0.66192500  0.07437600
   0.32008800  0.99525800  0.07437600
   0.65342200  0.99525800  0.07437600
   0.98675500  0.99525800  0.07437600
   0.20897700  0.10636900  0.17918600
   0.54231100  0.10636900  0.17918600
   0.87564400  0.10636900  0.17918600
   0.20897700  0.43970300  0.17918600
   0.54231100  0.43970300  0.17918600
   0.87564400  0.43970300  0.17918600
   0.20897700  0.77303600  0.17918600
   0.54231100  0.77303600  0.17918600
   0.87564400  0.77303600  0.17918600
   0.09604892  0.54563041  0.28267269
   0.43201856  0.88380115  0.28222887
   0.76195730  0.21344264  0.28557165
   0.09455906  0.21661081  0.28460456
   0.43029743  0.21467067  0.28470126
   0.09871537  0.88202335  0.28399860
   0.76648925  0.88142700  0.28399532
   0.43184770  0.54738740  0.28209457
   0.76434272  0.54692345  0.28221518
   0.32582720  0.66143900  0.38421609
   0.65374370  0.98680067  0.38869531
   0.31963697  0.32220463  0.38955167
   0.98999005  0.98825985  0.39048155
   0.32167510  0.98894707  0.39019444
   0.64252208  0.32532700  0.39282512
   0.99454248  0.66455405  0.38673092
   0.99919157  0.31454091  0.39350205
   0.65444901  0.66121065  0.38804305
Direct configuration=     6
   0.69131133  0.42440928  0.47230591
   0.91649505  0.39088835  0.46334502
   0.68105227  0.46579352  0.52217236
   0.98675500  0.32859100  0.07437600
   0.32008800  0.32859100  0.07437600
   0.65342200  0.32859100  0.07437600
   0.98675500  0.66192500  0.07437600
   0.32008800  0.66192500  0.07437600
   0.65342200  0.66192500  0.07437600
   0.32008800  0.99525800  0.07437600
   0.65342200  0.99525800  0.07437600
   0.98675500  0.99525800  0.07437600
   0.20897700  0.10636900  0.17918600
   0.54231100  0.10636900  0.17918600
   0.87564400  0.10636900  0.17918600
   0.20897700  0.43970300  0.17918600
   0.54231100  0.43970300  0.17918600
   0.87564400  0.43970300  0.17918600
   0.20897700  0.77303600  0.17918600
   0.54231100  0.77303600  0.17918600
   0.87564400  0.77303600  0.17918600
   0.09607758  0.54562854  0.28274284
   0.43198453  0.88369282  0.28228901
   0.76209015  0.21382961  0.28557687
   0.09455287  0.21652511  0.28467535
   0.43054238  0.21461841  0.28458838
   0.09852870  0.88190110  0.28388957
   0.76634156  0.88159276  0.28384746
   0.43175352  0.54731613  0.28222683
   0.76437206  0.54692634  0.28239031
   0.32565955  0.66128813  0.38445320
   0.65368246  0.98716594  0.38851416
   0.31956282  0.32216738  0.38928929
   0.98983145  0.98812948  0.39038013
   0.32167990  0.98883633  0.39001707
   0.64175633  0.32475131  0.39258194
   0.99461519  0.66440987  0.38677587
   0.99883466  0.31451449  0.39364747
   0.65478831  0.66168834  0.38787618
