 running on    8 total cores
 distrk:  each k-point on    8 cores,    1 groups
 distr:  one band on    2 cores,    4 groups
 using from now: INCAR     
 vasp.5.4.4 16052018 (build Apr 24 2014 20:13:14) complex standard
 Contain Constrained Minimization Technique (TS), Periodic NBO, VASPsol, libbeef, VASP2WANNIER90, Constrained Cell Relaxation
 POSCAR found type information on POSCAR  C  O  Pt
 POSCAR found :  3 types and      39 ions
 scaLAPACK will be used
 LDA part: xc-table for Pade appr. of Perdew
 POSCAR found type information on POSCAR  C  O  Pt
 POSCAR found :  3 types and      39 ions
 POSCAR, INCAR and KPOINTS ok, starting setup
 FFT: planning ...
 WAVECAR not read
 entering main loop
       N       E                     dE             d eps       ncg     rms          rms(c)
DAV:   1     0.242331511609E+04    0.24233E+04   -0.15953E+05  1824   0.129E+03
DAV:   2    -0.658059118106E+02   -0.24891E+04   -0.23139E+04  2144   0.286E+02
DAV:   3    -0.241184241834E+03   -0.17538E+03   -0.15929E+03  2176   0.689E+01
DAV:   4    -0.248496827030E+03   -0.73126E+01   -0.70679E+01  2328   0.135E+01
DAV:   5    -0.248738594959E+03   -0.24177E+00   -0.23945E+00  2640   0.242E+00    0.273E+01
RMM:   6    -0.245276452823E+03    0.34621E+01   -0.54931E+01  1831   0.149E+01    0.287E+01
RMM:   7    -0.240994729532E+03    0.42817E+01   -0.31721E+01  1830   0.887E+00    0.194E+01
RMM:   8    -0.244840157091E+03   -0.38454E+01   -0.89062E+00  1828   0.471E+00    0.232E+01
RMM:   9    -0.232006077072E+03    0.12834E+02   -0.40372E+00  1831   0.324E+00    0.869E+00
RMM:  10    -0.230905812464E+03    0.11003E+01   -0.13871E+00  1831   0.189E+00    0.508E+00
RMM:  11    -0.230500917471E+03    0.40489E+00   -0.39384E-01  1831   0.988E-01    0.300E+00
RMM:  12    -0.230376840549E+03    0.12408E+00   -0.18061E-01  1841   0.660E-01    0.202E+00
RMM:  13    -0.230358761848E+03    0.18079E-01   -0.13203E-01  1832   0.592E-01    0.180E+00
RMM:  14    -0.230317025581E+03    0.41736E-01   -0.77856E-02  1832   0.488E-01    0.811E-01
RMM:  15    -0.230313554544E+03    0.34710E-02   -0.32572E-02  1831   0.310E-01    0.646E-01
RMM:  16    -0.230308464662E+03    0.50899E-02   -0.93141E-03  1832   0.162E-01    0.343E-01
RMM:  17    -0.230306970302E+03    0.14944E-02   -0.24805E-03  1821   0.860E-02    0.152E-01
RMM:  18    -0.230307317523E+03   -0.34722E-03   -0.84532E-04  1767   0.497E-02    0.119E-01
RMM:  19    -0.230307461578E+03   -0.14405E-03   -0.39453E-04  1315   0.356E-02    0.534E-02
RMM:  20    -0.230307698461E+03   -0.23688E-03   -0.12708E-04  1020   0.207E-02    0.416E-02
RMM:  21    -0.230307866845E+03   -0.16838E-03   -0.53986E-05   992   0.132E-02    0.279E-02
RMM:  22    -0.230308009165E+03   -0.14232E-03   -0.28817E-05   949   0.898E-03    0.212E-02
RMM:  23    -0.230308309469E+03   -0.30030E-03   -0.47557E-05   991   0.103E-02    0.173E-02
RMM:  24    -0.230308512096E+03   -0.20263E-03   -0.29778E-05   811   0.769E-03    0.120E-02
RMM:  25    -0.230308698773E+03   -0.18668E-03   -0.24978E-05   816   0.717E-03    0.103E-02
RMM:  26    -0.230308842766E+03   -0.14399E-03   -0.15078E-05   614   0.582E-03    0.101E-02
RMM:  27    -0.230308975389E+03   -0.13262E-03   -0.13481E-05   582   0.552E-03    0.571E-03
RMM:  28    -0.230309048378E+03   -0.72989E-04   -0.65290E-06   374   0.461E-03
   1 F= -.23030905E+03 E0= -.23030540E+03  d E =-.230309E+03
 BRION: g(F)=  0.218E+00 g(S)=  0.000E+00
 bond charge predicted
       N       E                     dE             d eps       ncg     rms          rms(c)
DAV:   1    -0.230441824553E+03   -0.13285E+00   -0.20082E+01  1828   0.822E+00    0.534E-01
RMM:   2    -0.230476994309E+03   -0.35170E-01   -0.36903E-01  1833   0.130E+00    0.596E-01
RMM:   3    -0.230474834244E+03    0.21601E-02   -0.20821E-02  1891   0.259E-01    0.541E-01
RMM:   4    -0.230473342674E+03    0.14916E-02   -0.33948E-03  1902   0.982E-02    0.469E-01
RMM:   5    -0.230470665089E+03    0.26776E-02   -0.31213E-03  1831   0.933E-02    0.304E-01
RMM:   6    -0.230470331110E+03    0.33398E-03   -0.57230E-03  1831   0.129E-01    0.287E-01
RMM:   7    -0.230469073913E+03    0.12572E-02   -0.26166E-03  1826   0.865E-02    0.114E-01
RMM:   8    -0.230468908353E+03    0.16556E-03   -0.46140E-04  1430   0.381E-02    0.727E-02
RMM:   9    -0.230468854486E+03    0.53867E-04   -0.11580E-04   965   0.210E-02
   2 F= -.23046885E+03 E0= -.23046568E+03  d E =-.159806E+00
 BRION: g(F)=  0.261E+00 g(S)=  0.000E+00 retain N=  1 mean eig= 0.81
 eig:   0.811
 bond charge predicted
       N       E                     dE             d eps       ncg     rms          rms(c)
DAV:   1    -0.230528822652E+03   -0.59914E-01   -0.42591E+00  1840   0.390E+00    0.366E-01
RMM:   2    -0.230542759758E+03   -0.13937E-01   -0.15356E-01  1844   0.663E-01    0.367E-01
RMM:   3    -0.230540558557E+03    0.22012E-02   -0.58711E-03  1889   0.128E-01    0.291E-01
RMM:   4    -0.230541681376E+03   -0.11228E-02   -0.21913E-03  1838   0.772E-02    0.391E-01
RMM:   5    -0.230540919687E+03    0.76169E-03   -0.23848E-03  1826   0.783E-02    0.362E-01
RMM:   6    -0.230539121625E+03    0.17981E-02   -0.21205E-03  1824   0.770E-02    0.144E-01
RMM:   7    -0.230538844036E+03    0.27759E-03   -0.66620E-04  1663   0.432E-02    0.796E-02
RMM:   8    -0.230538737085E+03    0.10695E-03   -0.15007E-04  1002   0.223E-02    0.363E-02
RMM:   9    -0.230538721298E+03    0.15787E-04   -0.49208E-05   961   0.138E-02
   3 F= -.23053872E+03 E0= -.23053572E+03  d E =-.698668E-01
 BRION: g(F)=  0.144E+00 g(S)=  0.000E+00 retain N=  2 mean eig= 3.05
 eig:   0.535  5.567
 bond charge predicted
[mpiexec@node09] Sending Ctrl-C to processes as requested
[mpiexec@node09] Press Ctrl-C again to force abort
