<?xml version="1.0" encoding="ISO-8859-1"?>
<modeling>
 <generator>
  <i name="program" type="string"> vasp </i>
  <i name="version" type="string">5.4.4  </i>
  <i name="subversion" type="string">16052018 (build Apr 24 2014 20:13:14) complex standard parallel Constrained Minimization Technique (TS), Periodic NBO, VASPsol, libbeef, VASP2WANNIER90, Constrained Cell Relaxation </i>
  <i name="platform" type="string">Center for Computational Chemistry </i>
  <i name="user" type="string">phu </i>
  <i name="host" type="string">node09 </i>
  <i name="date" type="string">2025 09 27 </i>
  <i name="time" type="string">22:53:27 </i>
 </generator>
 <incar>
  <i type="string" name="SYSTEM"> metal</i>
  <i type="int" name="ISTART">     0</i>
  <i type="string" name="PREC">normal</i>
  <i type="string" name="ALGO">Fast</i>
  <i type="int" name="NSIM">     4</i>
  <i type="int" name="ISPIN">     1</i>
  <i type="int" name="NELMIN">     8</i>
  <i type="int" name="IBRION">     1</i>
  <i name="EDIFFG">     -0.05000000</i>
  <i type="int" name="NSW">  5000</i>
  <i type="int" name="ISIF">     2</i>
  <i type="int" name="ISYM">     0</i>
  <i name="ENCUT">    450.00000000</i>
  <i name="POTIM">      0.20000000</i>
  <i type="string" name="LREAL">A</i>
  <i type="int" name="ISMEAR">     1</i>
  <i name="SIGMA">      0.20000000</i>
  <i type="logical" name="LWAVE"> F  </i>
  <i type="logical" name="LCHARG"> F  </i>
  <v type="int" name="KPOINT_BSE">    -1     0     0     0</v>
  <i type="int" name="VOSKOWN">     0</i>
 </incar>
 <structure name="primitive_cell" >
  <crystal>
   <varray name="basis" >
    <v>       7.29695512      -4.21289900       0.00000000 </v>
    <v>       0.00000000       8.42579800       0.00000000 </v>
    <v>       0.00000000       0.00000000      21.87963500 </v>
   </varray>
   <i name="volume">   1345.21837528 </i>
   <varray name="rec_basis" >
    <v>       0.13704346       0.00000000       0.00000000 </v>
    <v>       0.06852173       0.11868312       0.00000000 </v>
    <v>       0.00000000       0.00000000       0.04570460 </v>
   </varray>
  </crystal>
  <varray name="positions" >
   <v>      -0.29618960       0.43123628       0.47284572 </v>
   <v>      -0.32432614       0.45809216      -0.47726574 </v>
   <v>      -0.09730079       0.38971259       0.46851379 </v>
   <v>      -0.35571455       0.32790643       0.39161562 </v>
   <v>      -0.34882678      -0.33417238       0.39107947 </v>
   <v>      -0.00599150      -0.33697514       0.38625677 </v>
   <v>      -0.00535655       0.32188089       0.39547236 </v>
   <v>       0.31981032       0.32318898       0.38466857 </v>
   <v>       0.32498894      -0.00899805       0.38707568 </v>
   <v>      -0.34720095      -0.01426082       0.38457669 </v>
   <v>      -0.23253894      -0.44631646       0.28471740 </v>
   <v>      -0.00807489      -0.00910365       0.38383502 </v>
   <v>       0.43695159       0.22077186       0.28500144 </v>
   <v>      -0.23610092       0.21278166       0.28484694 </v>
   <v>       0.32054693      -0.33445635       0.38866951 </v>
   <v>       0.43333616      -0.45328393       0.28252643 </v>
   <v>       0.09390332      -0.45137418       0.28164774 </v>
   <v>      -0.23684827      -0.11800281       0.27814389 </v>
   <v>       0.09568750      -0.11280145       0.27786097 </v>
   <v>       0.42794177      -0.11991813       0.28429938 </v>
   <v>       0.09884990       0.21570548       0.28233708 </v>
   <v>      -0.45768900       0.43970300       0.17918600 </v>
   <v>      -0.12435600       0.43970300       0.17918600 </v>
   <v>      -0.45768900       0.10636900       0.17918600 </v>
   <v>      -0.12435600      -0.22696400       0.17918600 </v>
   <v>       0.20897700       0.10636900       0.17918600 </v>
   <v>      -0.12435600       0.10636900       0.17918600 </v>
   <v>      -0.45768900      -0.22696400       0.17918600 </v>
   <v>       0.20897700      -0.22696400       0.17918600 </v>
   <v>       0.20897700       0.43970300       0.17918600 </v>
   <v>      -0.34657800       0.32859100       0.07437600 </v>
   <v>      -0.34657800      -0.33807500       0.07437600 </v>
   <v>      -0.01324500      -0.33807500       0.07437600 </v>
   <v>       0.32008800       0.32859100       0.07437600 </v>
   <v>      -0.01324500       0.32859100       0.07437600 </v>
   <v>       0.32008800      -0.00474200       0.07437600 </v>
   <v>      -0.34657800      -0.00474200       0.07437600 </v>
   <v>      -0.01324500      -0.00474200       0.07437600 </v>
   <v>       0.32008800      -0.33807500       0.07437600 </v>
  </varray>
 </structure>
 <varray name="primitive_index" >
  <v type="int" >        1 </v>
  <v type="int" >        3 </v>
  <v type="int" >        2 </v>
  <v type="int" >       36 </v>
  <v type="int" >       39 </v>
  <v type="int" >       37 </v>
  <v type="int" >       38 </v>
  <v type="int" >       33 </v>
  <v type="int" >       35 </v>
  <v type="int" >       32 </v>
  <v type="int" >       30 </v>
  <v type="int" >       34 </v>
  <v type="int" >       26 </v>
  <v type="int" >       24 </v>
  <v type="int" >       31 </v>
  <v type="int" >       29 </v>
  <v type="int" >       22 </v>
  <v type="int" >       28 </v>
  <v type="int" >       27 </v>
  <v type="int" >       23 </v>
  <v type="int" >       25 </v>
  <v type="int" >       17 </v>
  <v type="int" >       18 </v>
  <v type="int" >       14 </v>
  <v type="int" >       21 </v>
  <v type="int" >       13 </v>
  <v type="int" >       15 </v>
  <v type="int" >       20 </v>
  <v type="int" >       19 </v>
  <v type="int" >       16 </v>
  <v type="int" >        6 </v>
  <v type="int" >        9 </v>
  <v type="int" >        7 </v>
  <v type="int" >        5 </v>
  <v type="int" >        4 </v>
  <v type="int" >       10 </v>
  <v type="int" >       11 </v>
  <v type="int" >       12 </v>
  <v type="int" >        8 </v>
 </varray>
 <kpoints>
  <generation param="Gamma">
   <v type="int" name="divisions">       2        2        1 </v>
   <v name="usershift">      0.00000000       0.00000000       0.00000000 </v>
   <v name="genvec1">      0.50000000       0.00000000       0.00000000 </v>
   <v name="genvec2">     -0.00000000       0.50000000       0.00000000 </v>
   <v name="genvec3">      0.00000000       0.00000000       1.00000000 </v>
   <v name="shift">      0.00000000       0.00000000       0.00000000 </v>
  </generation>
  <varray name="kpointlist" >
   <v>       0.00000000       0.00000000       0.00000000 </v>
   <v>       0.50000000       0.00000000       0.00000000 </v>
   <v>      -0.00000000       0.50000000       0.00000000 </v>
   <v>       0.50000000       0.50000000       0.00000000 </v>
  </varray>
  <varray name="weights" >
   <v>       0.25000000 </v>
   <v>       0.25000000 </v>
   <v>       0.25000000 </v>
   <v>       0.25000000 </v>
  </varray>
 </kpoints>
 <parameters>
  <separator name="general" >
   <i type="string" name="SYSTEM">metal</i>
   <i type="logical" name="LCOMPAT"> F  </i>
  </separator>
  <separator name="electronic" >
   <i type="string" name="PREC">normal</i>
   <i name="ENMAX">    450.00000000</i>
   <i name="ENAUG">    644.87300000</i>
   <i name="EDIFF">      0.00010000</i>
   <i type="int" name="IALGO">    68</i>
   <i type="int" name="IWAVPR">    11</i>
   <i type="int" name="NBANDS">   228</i>
   <i name="NELECT">    376.00000000</i>
   <i type="int" name="TURBO">     0</i>
   <i type="int" name="IRESTART">     0</i>
   <i type="int" name="NREBOOT">     0</i>
   <i type="int" name="NMIN">     0</i>
   <i name="EREF">      0.00000000</i>
   <separator name="electronic smearing" >
    <i type="int" name="ISMEAR">     1</i>
    <i name="SIGMA">      0.20000000</i>
    <i name="KSPACING">      0.50000000</i>
    <i type="logical" name="KGAMMA"> T  </i>
   </separator>
   <separator name="electronic projectors" >
    <i type="logical" name="LREAL"> T  </i>
    <v name="ROPT">     -0.00050000     -0.00050000     -0.00050000</v>
    <i type="int" name="LMAXPAW">  -100</i>
    <i type="int" name="LMAXMIX">     2</i>
    <i type="logical" name="NLSPLINE"> F  </i>
   </separator>
   <separator name="electronic startup" >
    <i type="int" name="ISTART">     0</i>
    <i type="int" name="ICHARG">     2</i>
    <i type="int" name="INIWAV">     1</i>
   </separator>
   <separator name="electronic spin" >
    <i type="int" name="ISPIN">     1</i>
    <i type="logical" name="LNONCOLLINEAR"> F  </i>
    <v name="MAGMOM">      1.00000000      1.00000000      1.00000000      1.00000000      1.00000000      1.00000000      1.00000000      1.00000000      1.00000000      1.00000000      1.00000000      1.00000000      1.00000000      1.00000000      1.00000000      1.00000000      1.00000000      1.00000000      1.00000000      1.00000000
      1.00000000      1.00000000      1.00000000      1.00000000      1.00000000      1.00000000      1.00000000      1.00000000      1.00000000      1.00000000      1.00000000      1.00000000      1.00000000      1.00000000      1.00000000      1.00000000      1.00000000      1.00000000      1.00000000</v>
    <i name="NUPDOWN">     -1.00000000</i>
    <i type="logical" name="LSORBIT"> F  </i>
    <v name="SAXIS">      0.00000000      0.00000000      1.00000000</v>
    <i type="logical" name="LSPIRAL"> F  </i>
    <v name="QSPIRAL">      0.00000000      0.00000000      0.00000000</v>
    <i type="logical" name="LZEROZ"> F  </i>
   </separator>
   <separator name="electronic exchange-correlation" >
    <i type="logical" name="LASPH"> F  </i>
    <i type="logical" name="LMETAGGA"> F  </i>
   </separator>
   <separator name="electronic convergence" >
    <i type="int" name="NELM">    60</i>
    <i type="int" name="NELMDL">    -5</i>
    <i type="int" name="NELMIN">     8</i>
    <i name="ENINI">    450.00000000</i>
    <separator name="electronic convergence detail" >
     <i type="logical" name="LDIAG"> T  </i>
     <i type="logical" name="LSUBROT"> F  </i>
     <i name="WEIMIN">      0.00100000</i>
     <i name="EBREAK">      0.00000011</i>
     <i name="DEPER">      0.30000000</i>
     <i type="int" name="NRMM">     4</i>
     <i name="TIME">      0.40000000</i>
    </separator>
   </separator>
   <separator name="electronic mixer" >
    <i name="AMIX">      0.40000000</i>
    <i name="BMIX">      1.00000000</i>
    <i name="AMIN">      0.10000000</i>
    <i name="AMIX_MAG">      1.60000000</i>
    <i name="BMIX_MAG">      1.00000000</i>
    <separator name="electronic mixer details" >
     <i type="int" name="IMIX">     4</i>
     <i type="logical" name="MIXFIRST"> F  </i>
     <i type="int" name="MAXMIX">   -45</i>
     <i name="WC">    100.00000000</i>
     <i type="int" name="INIMIX">     1</i>
     <i type="int" name="MIXPRE">     1</i>
     <i type="int" name="MREMOVE">     5</i>
    </separator>
   </separator>
   <separator name="electronic dipolcorrection" >
    <i type="logical" name="LDIPOL"> F  </i>
    <i type="logical" name="LMONO"> F  </i>
    <i type="int" name="IDIPOL">     0</i>
    <i name="EPSILON">      1.00000000</i>
    <v name="DIPOL">   -100.00000000   -100.00000000   -100.00000000</v>
    <i name="EFIELD">      0.00000000</i>
   </separator>
  </separator>
  <separator name="grids" >
   <i type="int" name="NGX">    48</i>
   <i type="int" name="NGY">    48</i>
   <i type="int" name="NGZ">   120</i>
   <i type="int" name="NGXF">    96</i>
   <i type="int" name="NGYF">    96</i>
   <i type="int" name="NGZF">   240</i>
   <i type="logical" name="ADDGRID"> F  </i>
  </separator>
  <separator name="ionic" >
   <i type="int" name="NSW">  5000</i>
   <i type="int" name="IBRION">     1</i>
   <i type="int" name="MDALGO">     0</i>
   <i type="int" name="ISIF">     2</i>
   <i name="PSTRESS">      0.00000000</i>
   <i name="EDIFFG">     -0.05000000</i>
   <i type="int" name="NFREE">     0</i>
   <i name="POTIM">      0.20000000</i>
   <i name="SMASS">     -3.00000000</i>
   <i name="SCALEE">      1.00000000</i>
  </separator>
  <separator name="ionic md" >
   <i name="TEBEG">      0.00010000</i>
   <i name="TEEND">      0.00010000</i>
   <i type="int" name="NBLOCK">     1</i>
   <i type="int" name="KBLOCK">  5000</i>
   <i type="int" name="NPACO">   256</i>
   <i name="APACO">     16.00000000</i>
  </separator>
  <separator name="symmetry" >
   <i type="int" name="ISYM">     0</i>
   <i name="SYMPREC">      0.00001000</i>
  </separator>
  <separator name="dos" >
   <i type="int" name="LORBIT">     0</i>
   <v name="RWIGS">     -1.00000000     -1.00000000     -1.00000000</v>
   <i type="int" name="NEDOS">   301</i>
   <i name="EMIN">     10.00000000</i>
   <i name="EMAX">    -10.00000000</i>
   <i name="EFERMI">      0.00000000</i>
  </separator>
  <separator name="writing" >
   <i type="int" name="NWRITE">     2</i>
   <i type="logical" name="LWAVE"> F  </i>
   <i type="logical" name="LDOWNSAMPLE"> F  </i>
   <i type="logical" name="LCHARG"> F  </i>
   <i type="logical" name="LPARD"> F  </i>
   <i type="logical" name="LVTOT"> F  </i>
   <i type="logical" name="LVHAR"> F  </i>
   <i type="logical" name="LELF"> F  </i>
   <i type="logical" name="LOPTICS"> F  </i>
   <v name="STM">      0.00000000      0.00000000      0.00000000      0.00000000      0.00000000      0.00000000      0.00000000</v>
  </separator>
  <separator name="performance" >
   <i type="int" name="NPAR">     4</i>
   <i type="int" name="NSIM">     4</i>
   <i type="int" name="NBLK">    -1</i>
   <i type="logical" name="LPLANE"> T  </i>
   <i type="logical" name="LSCALAPACK"> T  </i>
   <i type="logical" name="LSCAAWARE"> F  </i>
   <i type="logical" name="LSCALU"> F  </i>
   <i type="logical" name="LASYNC"> F  </i>
   <i type="logical" name="LORBITALREAL"> F  </i>
  </separator>
  <separator name="miscellaneous" >
   <i type="int" name="IDIOT">     3</i>
   <i type="int" name="ISPECIAL">     0</i>
   <i type="logical" name="LMUSIC"> F  </i>
   <v name="POMASS">     12.01100000     16.00000000    195.08000000</v>
   <v name="DARWINR">      0.00000000      0.00000000      0.00000000</v>
   <v name="DARWINV">      1.00000000      1.00000000      1.00000000</v>
   <i type="logical" name="LCORR"> T  </i>
  </separator>
  <i type="logical" name="GGA_COMPAT"> T  </i>
  <i type="logical" name="LBERRY"> F  </i>
  <i type="int" name="ICORELEVEL">     0</i>
  <i type="logical" name="LDAU"> F  </i>
  <i type="int" name="I_CONSTRAINED_M">     0</i>
  <separator name="electronic exchange-correlation" >
   <i type="string" name="GGA">--</i>
   <i type="int" name="VOSKOWN">     0</i>
   <i type="logical" name="LHFCALC"> F  </i>
   <i type="string" name="PRECFOCK"></i>
   <i type="logical" name="LSYMGRAD"> F  </i>
   <i type="logical" name="LHFONE"> F  </i>
   <i type="logical" name="LRHFCALC"> F  </i>
   <i type="logical" name="LTHOMAS"> F  </i>
   <i type="logical" name="LMODELHF"> F  </i>
   <i name="ENCUT4O">     -1.00000000</i>
   <i type="int" name="EXXOEP">     0</i>
   <i type="int" name="FOURORBIT">     0</i>
   <i name="AEXX">      0.00000000</i>
   <i name="HFALPHA">      0.00000000</i>
   <i name="MCALPHA">      0.00000000</i>
   <i name="ALDAX">      1.00000000</i>
   <i name="AGGAX">      1.00000000</i>
   <i name="ALDAC">      1.00000000</i>
   <i name="AGGAC">      1.00000000</i>
   <i type="int" name="NKREDX">     1</i>
   <i type="int" name="NKREDY">     1</i>
   <i type="int" name="NKREDZ">     1</i>
   <i type="logical" name="SHIFTRED"> F  </i>
   <i type="logical" name="ODDONLY"> F  </i>
   <i type="logical" name="EVENONLY"> F  </i>
   <i type="int" name="LMAXFOCK">     0</i>
   <i type="int" name="NMAXFOCKAE">     0</i>
   <i type="logical" name="LFOCKAEDFT"> F  </i>
   <i name="HFSCREEN">      0.00000000</i>
   <i name="HFSCREENC">      0.00000000</i>
   <i type="int" name="NBANDSGWLOW">     0</i>
  </separator>
  <separator name="vdW DFT" >
   <i type="logical" name="LUSE_VDW"> F  </i>
   <i name="Zab_VDW">     -0.84910000</i>
   <i name="PARAM1">      0.12340000</i>
   <i name="PARAM2">      1.00000000</i>
   <i name="PARAM3">      0.00000000</i>
  </separator>
  <separator name="model GW" >
   <i type="int" name="MODEL_GW">     0</i>
   <i name="MODEL_EPS0">     20.69566731</i>
   <i name="MODEL_ALPHA">      1.00000000</i>
  </separator>
  <separator name="linear response parameters" >
   <i type="logical" name="LEPSILON"> F  </i>
   <i type="logical" name="LRPA"> F  </i>
   <i type="logical" name="LNABLA"> F  </i>
   <i type="logical" name="LVEL"> F  </i>
   <i type="int" name="KINTER">     0</i>
   <i name="CSHIFT">      0.10000000</i>
   <i name="OMEGAMAX">     -1.00000000</i>
   <i name="DEG_THRESHOLD">      0.00200000</i>
   <i name="RTIME">     -0.10000000</i>
   <i name="WPLASMAI">      0.00000000</i>
   <v name="DFIELD">      0.00000000      0.00000000      0.00000000</v>
   <v name="WPLASMA">      0.00000000      0.00000000      0.00000000      0.00000000      0.00000000      0.00000000      0.00000000      0.00000000      0.00000000</v>
  </separator>
  <separator name="orbital magnetization" >
   <i type="logical" name="NUCIND"> F  </i>
   <v name="MAGPOS">      0.00000000      0.00000000      0.00000000</v>
   <i type="logical" name="LNICSALL"> T  </i>
   <i type="logical" name="ORBITALMAG"> F  </i>
   <i type="logical" name="LMAGBLOCH"> F  </i>
   <i type="logical" name="LCHIMAG"> F  </i>
   <i type="logical" name="LGAUGE"> T  </i>
   <i type="int" name="MAGATOM">     0</i>
   <v name="MAGDIPOL">      0.00000000      0.00000000      0.00000000</v>
   <v name="AVECCONST">      0.00000000      0.00000000      0.00000000</v>
  </separator>
  <separator name="response functions" >
   <i type="logical" name="LADDER"> F  </i>
   <i type="logical" name="LRPAFORCE"> F  </i>
   <i type="logical" name="LFXC"> F  </i>
   <i type="logical" name="LHARTREE"> T  </i>
   <i type="int" name="IBSE">     0</i>
   <v type="int" name="KPOINT">    -1     0     0     0</v>
   <i type="logical" name="LTCTE"> F  </i>
   <i type="logical" name="LTETE"> F  </i>
   <i type="logical" name="LTRIPLET"> F  </i>
   <i type="logical" name="LFXCEPS"> F  </i>
   <i type="logical" name="LFXHEG"> F  </i>
   <i type="int" name="NATURALO">     2</i>
   <i type="logical" name="L2ORDER"> F  </i>
   <i type="logical" name="LMP2LT"> F  </i>
   <i type="logical" name="LUSEW"> F  </i>
   <i name="ENCUTGW">     -2.00000000</i>
   <i name="ENCUTGWSOFT">     -2.00000000</i>
   <i name="ENCUTLF">     -1.00000000</i>
   <i type="int" name="LMAXMP2">    -1</i>
   <i name="SCISSOR">      0.00000000</i>
   <i type="int" name="NOMEGA">     0</i>
   <i type="int" name="NOMEGAR">     0</i>
   <i type="int" name="NBANDSGW">    -1</i>
   <i type="int" name="NBANDSO">    -1</i>
   <i type="int" name="NBANDSV">    -1</i>
   <i type="int" name="NELM">     1</i>
   <i type="int" name="NELMHF">     1</i>
   <i type="int" name="DIM">     3</i>
   <i type="int" name="ANTIRES">     0</i>
   <i name="OMEGAMAX">    -30.00000000</i>
   <i name="OMEGAMIN">    -30.00000000</i>
   <i name="OMEGATL">   -200.00000000</i>
   <i type="int" name="OMEGAGRID">   140</i>
   <i name="CSHIFT">     -0.10000000</i>
   <i type="logical" name="SELFENERGY"> F  </i>
   <i type="logical" name="LSPECTRAL"> F  </i>
   <i type="logical" name="LSPECTRALGW"> F  </i>
   <i type="logical" name="LSINGLES"> F  </i>
   <i type="logical" name="LFERMIGW"> F  </i>
   <i type="logical" name="ODDONLYGW"> F  </i>
   <i type="logical" name="EVENONLYGW"> F  </i>
   <i type="int" name="NKREDLFX">     1</i>
   <i type="int" name="NKREDLFY">     1</i>
   <i type="int" name="NKREDLFZ">     1</i>
   <i type="int" name="MAXMEM">  2800</i>
   <i type="int" name="TELESCOPE">     0</i>
   <i type="int" name="TAUPAR">     1</i>
   <i type="int" name="OMEGAPAR">    -1</i>
   <i name="LAMBDA">      1.00000000</i>
  </separator>
  <separator name="External order field" >
   <i name="OFIELD_KAPPA">      0.00000000</i>
   <v name="OFIELD_K">      0.00000000      0.00000000      0.00000000</v>
   <i name="OFIELD_Q6_NEAR">      0.00000000</i>
   <i name="OFIELD_Q6_FAR">      0.00000000</i>
   <i name="OFIELD_A">      0.00000000</i>
  </separator>
  <separator name="solvation model" >
   <i type="logical" name="LSOL"> F  </i>
  </separator>
 </parameters>
 <atominfo>
  <atoms>      39 </atoms>
  <types>       3 </types>
  <array name="atoms" >
   <dimension dim="1">ion</dimension>
   <field type="string">element</field>
   <field type="int">atomtype</field>
   <set>
    <rc><c>C </c><c>   1</c></rc>
    <rc><c>O </c><c>   2</c></rc>
    <rc><c>O </c><c>   2</c></rc>
    <rc><c>Pt</c><c>   3</c></rc>
    <rc><c>Pt</c><c>   3</c></rc>
    <rc><c>Pt</c><c>   3</c></rc>
    <rc><c>Pt</c><c>   3</c></rc>
    <rc><c>Pt</c><c>   3</c></rc>
    <rc><c>Pt</c><c>   3</c></rc>
    <rc><c>Pt</c><c>   3</c></rc>
    <rc><c>Pt</c><c>   3</c></rc>
    <rc><c>Pt</c><c>   3</c></rc>
    <rc><c>Pt</c><c>   3</c></rc>
    <rc><c>Pt</c><c>   3</c></rc>
    <rc><c>Pt</c><c>   3</c></rc>
    <rc><c>Pt</c><c>   3</c></rc>
    <rc><c>Pt</c><c>   3</c></rc>
    <rc><c>Pt</c><c>   3</c></rc>
    <rc><c>Pt</c><c>   3</c></rc>
    <rc><c>Pt</c><c>   3</c></rc>
    <rc><c>Pt</c><c>   3</c></rc>
    <rc><c>Pt</c><c>   3</c></rc>
    <rc><c>Pt</c><c>   3</c></rc>
    <rc><c>Pt</c><c>   3</c></rc>
    <rc><c>Pt</c><c>   3</c></rc>
    <rc><c>Pt</c><c>   3</c></rc>
    <rc><c>Pt</c><c>   3</c></rc>
    <rc><c>Pt</c><c>   3</c></rc>
    <rc><c>Pt</c><c>   3</c></rc>
    <rc><c>Pt</c><c>   3</c></rc>
    <rc><c>Pt</c><c>   3</c></rc>
    <rc><c>Pt</c><c>   3</c></rc>
    <rc><c>Pt</c><c>   3</c></rc>
    <rc><c>Pt</c><c>   3</c></rc>
    <rc><c>Pt</c><c>   3</c></rc>
    <rc><c>Pt</c><c>   3</c></rc>
    <rc><c>Pt</c><c>   3</c></rc>
    <rc><c>Pt</c><c>   3</c></rc>
    <rc><c>Pt</c><c>   3</c></rc>
   </set>
  </array>
  <array name="atomtypes" >
   <dimension dim="1">type</dimension>
   <field type="int">atomspertype</field>
   <field type="string">element</field>
   <field>mass</field>
   <field>valence</field>
   <field type="string">pseudopotential</field>
   <set>
    <rc><c>   1</c><c>C </c><c>     12.01100000</c><c>      4.00000000</c><c> PAW_PBE C 08Apr2002                    </c></rc>
    <rc><c>   2</c><c>O </c><c>     16.00000000</c><c>      6.00000000</c><c> PAW_PBE O 08Apr2002                    </c></rc>
    <rc><c>  36</c><c>Pt</c><c>    195.08000000</c><c>     10.00000000</c><c>  PAW_PBE Pt 04Feb2005                  </c></rc>
   </set>
  </array>
 </atominfo>
 <structure name="initialpos" >
  <crystal>
   <varray name="basis" >
    <v>       7.29695512      -4.21289900       0.00000000 </v>
    <v>       0.00000000       8.42579800       0.00000000 </v>
    <v>       0.00000000       0.00000000      21.87963500 </v>
   </varray>
   <i name="volume">   1345.21837528 </i>
   <varray name="rec_basis" >
    <v>       0.13704346       0.00000000       0.00000000 </v>
    <v>       0.06852173       0.11868312       0.00000000 </v>
    <v>       0.00000000       0.00000000       0.04570460 </v>
   </varray>
  </crystal>
  <varray name="positions" >
   <v>       0.70381040       0.43123628       0.47284572 </v>
   <v>       0.90269921       0.38971259       0.46851379 </v>
   <v>       0.67567386       0.45809216       0.52273426 </v>
   <v>       0.98675500       0.32859100       0.07437600 </v>
   <v>       0.32008800       0.32859100       0.07437600 </v>
   <v>       0.65342200       0.32859100       0.07437600 </v>
   <v>       0.98675500       0.66192500       0.07437600 </v>
   <v>       0.32008800       0.66192500       0.07437600 </v>
   <v>       0.65342200       0.66192500       0.07437600 </v>
   <v>       0.32008800       0.99525800       0.07437600 </v>
   <v>       0.65342200       0.99525800       0.07437600 </v>
   <v>       0.98675500       0.99525800       0.07437600 </v>
   <v>       0.20897700       0.10636900       0.17918600 </v>
   <v>       0.54231100       0.10636900       0.17918600 </v>
   <v>       0.87564400       0.10636900       0.17918600 </v>
   <v>       0.20897700       0.43970300       0.17918600 </v>
   <v>       0.54231100       0.43970300       0.17918600 </v>
   <v>       0.87564400       0.43970300       0.17918600 </v>
   <v>       0.20897700       0.77303600       0.17918600 </v>
   <v>       0.54231100       0.77303600       0.17918600 </v>
   <v>       0.87564400       0.77303600       0.17918600 </v>
   <v>       0.09390332       0.54862582       0.28164774 </v>
   <v>       0.42794177       0.88008187       0.28429938 </v>
   <v>       0.76389908       0.21278166       0.28484694 </v>
   <v>       0.09884990       0.21570548       0.28233708 </v>
   <v>       0.43695159       0.22077186       0.28500144 </v>
   <v>       0.09568750       0.88719855       0.27786097 </v>
   <v>       0.76315173       0.88199719       0.27814389 </v>
   <v>       0.43333616       0.54671607       0.28252643 </v>
   <v>       0.76746106       0.55368354       0.28471740 </v>
   <v>       0.32054693       0.66554365       0.38866951 </v>
   <v>       0.65279905       0.98573918       0.38457669 </v>
   <v>       0.31981032       0.32318898       0.38466857 </v>
   <v>       0.99192511       0.99089635       0.38383502 </v>
   <v>       0.32498894       0.99100195       0.38707568 </v>
   <v>       0.64428545       0.32790643       0.39161562 </v>
   <v>       0.99400850       0.66302486       0.38625677 </v>
   <v>       0.99464345       0.32188089       0.39547236 </v>
   <v>       0.65117322       0.66582762       0.39107947 </v>
  </varray>
  <varray name="selective"  type="logical" >
   <v type="logical" >  T  T  T </v>
   <v type="logical" >  T  T  T </v>
   <v type="logical" >  T  T  T </v>
   <v type="logical" >  F  F  F </v>
   <v type="logical" >  F  F  F </v>
   <v type="logical" >  F  F  F </v>
   <v type="logical" >  F  F  F </v>
   <v type="logical" >  F  F  F </v>
   <v type="logical" >  F  F  F </v>
   <v type="logical" >  F  F  F </v>
   <v type="logical" >  F  F  F </v>
   <v type="logical" >  F  F  F </v>
   <v type="logical" >  F  F  F </v>
   <v type="logical" >  F  F  F </v>
   <v type="logical" >  F  F  F </v>
   <v type="logical" >  F  F  F </v>
   <v type="logical" >  F  F  F </v>
   <v type="logical" >  F  F  F </v>
   <v type="logical" >  F  F  F </v>
   <v type="logical" >  F  F  F </v>
   <v type="logical" >  F  F  F </v>
   <v type="logical" >  T  T  T </v>
   <v type="logical" >  T  T  T </v>
   <v type="logical" >  T  T  T </v>
   <v type="logical" >  T  T  T </v>
   <v type="logical" >  T  T  T </v>
   <v type="logical" >  T  T  T </v>
   <v type="logical" >  T  T  T </v>
   <v type="logical" >  T  T  T </v>
   <v type="logical" >  T  T  T </v>
   <v type="logical" >  T  T  T </v>
   <v type="logical" >  T  T  T </v>
   <v type="logical" >  T  T  T </v>
   <v type="logical" >  T  T  T </v>
   <v type="logical" >  T  T  T </v>
   <v type="logical" >  T  T  T </v>
   <v type="logical" >  T  T  T </v>
   <v type="logical" >  T  T  T </v>
   <v type="logical" >  T  T  T </v>
  </varray>
  <nose>
   <v>      -3.00000000       0.00000000       0.00010000       0.00010000 </v>
  </nose>
 </structure>
 <calculation>
  <scstep>
   <time name="dav">   10.17   10.26</time>
   <time name="total">   10.34   10.54</time>
   <energy>
    <i name="alphaZ">    975.10247152 </i>
    <i name="ewald">  91677.82674304 </i>
    <i name="hartreedc">-120765.42861730 </i>
    <i name="XCdc">    189.94222503 </i>
    <i name="pawpsdc">  24789.08602224 </i>
    <i name="pawaedc"> -23775.73976456 </i>
    <i name="eentropy">     -0.01259758 </i>
    <i name="bandstr">   2072.64447284 </i>
    <i name="atom">  27259.89416086 </i>
    <i name="e_fr_energy">   2423.31511609 </i>
    <i name="e_wo_entrp">   2423.32771366 </i>
    <i name="e_0_energy">   2423.31931528 </i>
   </energy>
  </scstep>
  <scstep>
   <time name="dav">   11.32   11.47</time>
   <time name="total">   11.32   11.47</time>
   <energy>
    <i name="e_fr_energy">    -65.80591181 </i>
    <i name="e_wo_entrp">    -65.78340305 </i>
    <i name="e_0_energy">    -65.79840889 </i>
   </energy>
  </scstep>
  <scstep>
   <time name="dav">   11.17   11.24</time>
   <time name="total">   11.17   11.24</time>
   <energy>
    <i name="e_fr_energy">   -241.18424183 </i>
    <i name="e_wo_entrp">   -241.17854631 </i>
    <i name="e_0_energy">   -241.18234332 </i>
   </energy>
  </scstep>
  <scstep>
   <time name="dav">   11.62   11.69</time>
   <time name="total">   11.62   11.69</time>
   <energy>
    <i name="e_fr_energy">   -248.49682703 </i>
    <i name="e_wo_entrp">   -248.49835925 </i>
    <i name="e_0_energy">   -248.49733777 </i>
   </energy>
  </scstep>
  <scstep>
   <time name="dav">   12.39   12.47</time>
   <time name="total">   12.83   12.92</time>
   <energy>
    <i name="e_fr_energy">   -248.73859496 </i>
    <i name="e_wo_entrp">   -248.74110181 </i>
    <i name="e_0_energy">   -248.73943058 </i>
   </energy>
  </scstep>
  <scstep>
   <time name="diag">    1.24    1.25</time>
   <time name="diis">    4.12    4.15</time>
   <time name="orth">    0.22    0.22</time>
   <time name="total">    6.11    6.15</time>
   <energy>
    <i name="e_fr_energy">   -245.27645282 </i>
    <i name="e_wo_entrp">   -245.11197428 </i>
    <i name="e_0_energy">   -245.22162664 </i>
   </energy>
  </scstep>
  <scstep>
   <time name="diag">    1.29    1.29</time>
   <time name="diis">    4.55    4.57</time>
   <time name="orth">    0.24    0.24</time>
   <time name="total">    6.69    6.73</time>
   <energy>
    <i name="e_fr_energy">   -240.99472953 </i>
    <i name="e_wo_entrp">   -240.90898636 </i>
    <i name="e_0_energy">   -240.96614848 </i>
   </energy>
  </scstep>
  <scstep>
   <time name="diag">    1.19    1.20</time>
   <time name="diis">    4.34    4.37</time>
   <time name="orth">    0.22    0.22</time>
   <time name="total">    6.25    6.29</time>
   <energy>
    <i name="e_fr_energy">   -244.84015709 </i>
    <i name="e_wo_entrp">   -244.74128351 </i>
    <i name="e_0_energy">   -244.80719923 </i>
   </energy>
  </scstep>
  <scstep>
   <time name="diag">    1.25    1.26</time>
   <time name="diis">    4.43    4.46</time>
   <time name="orth">    0.26    0.26</time>
   <time name="total">    6.51    6.55</time>
   <energy>
    <i name="e_fr_energy">   -232.00607707 </i>
    <i name="e_wo_entrp">   -231.96399202 </i>
    <i name="e_0_energy">   -231.99204872 </i>
   </energy>
  </scstep>
  <scstep>
   <time name="diag">    1.24    1.25</time>
   <time name="diis">    4.58    4.61</time>
   <time name="orth">    0.22    0.22</time>
   <time name="total">    6.57    6.61</time>
   <energy>
    <i name="e_fr_energy">   -230.90581246 </i>
    <i name="e_wo_entrp">   -230.90304274 </i>
    <i name="e_0_energy">   -230.90488922 </i>
   </energy>
  </scstep>
  <scstep>
   <time name="diag">    1.02    1.03</time>
   <time name="diis">    4.36    4.39</time>
   <time name="orth">    0.22    0.22</time>
   <time name="total">    6.09    6.13</time>
   <energy>
    <i name="e_fr_energy">   -230.50091747 </i>
    <i name="e_wo_entrp">   -230.47090621 </i>
    <i name="e_0_energy">   -230.49091372 </i>
   </energy>
  </scstep>
  <scstep>
   <time name="diag">    1.20    1.21</time>
   <time name="diis">    4.57    4.60</time>
   <time name="orth">    0.23    0.23</time>
   <time name="total">    6.55    6.59</time>
   <energy>
    <i name="e_fr_energy">   -230.37684055 </i>
    <i name="e_wo_entrp">   -230.35309899 </i>
    <i name="e_0_energy">   -230.36892669 </i>
   </energy>
  </scstep>
  <scstep>
   <time name="diag">    1.29    1.30</time>
   <time name="diis">    4.29    4.31</time>
   <time name="orth">    0.21    0.22</time>
   <time name="total">    6.26    6.30</time>
   <energy>
    <i name="e_fr_energy">   -230.35876185 </i>
    <i name="e_wo_entrp">   -230.34447505 </i>
    <i name="e_0_energy">   -230.35399958 </i>
   </energy>
  </scstep>
  <scstep>
   <time name="diag">    1.36    1.37</time>
   <time name="diis">    5.81    5.85</time>
   <time name="orth">    0.30    0.30</time>
   <time name="total">    8.04    8.09</time>
   <energy>
    <i name="e_fr_energy">   -230.31702558 </i>
    <i name="e_wo_entrp">   -230.30592158 </i>
    <i name="e_0_energy">   -230.31332425 </i>
   </energy>
  </scstep>
  <scstep>
   <time name="diag">    1.27    1.28</time>
   <time name="diis">    4.25    4.28</time>
   <time name="orth">    0.21    0.21</time>
   <time name="total">    6.25    6.29</time>
   <energy>
    <i name="e_fr_energy">   -230.31355454 </i>
    <i name="e_wo_entrp">   -230.30616515 </i>
    <i name="e_0_energy">   -230.31109141 </i>
   </energy>
  </scstep>
  <scstep>
   <time name="diag">    1.07    1.07</time>
   <time name="diis">    4.54    4.57</time>
   <time name="orth">    0.21    0.22</time>
   <time name="total">    6.30    6.34</time>
   <energy>
    <i name="e_fr_energy">   -230.30846466 </i>
    <i name="e_wo_entrp">   -230.29715363 </i>
    <i name="e_0_energy">   -230.30469432 </i>
   </energy>
  </scstep>
  <scstep>
   <time name="diag">    1.23    1.23</time>
   <time name="diis">    4.17    4.19</time>
   <time name="orth">    0.21    0.21</time>
   <time name="total">    6.11    6.15</time>
   <energy>
    <i name="e_fr_energy">   -230.30697030 </i>
    <i name="e_wo_entrp">   -230.29623082 </i>
    <i name="e_0_energy">   -230.30339048 </i>
   </energy>
  </scstep>
  <scstep>
   <time name="diag">    1.32    1.33</time>
   <time name="diis">    4.31    4.34</time>
   <time name="orth">    0.21    0.22</time>
   <time name="total">    6.39    6.43</time>
   <energy>
    <i name="e_fr_energy">   -230.30731752 </i>
    <i name="e_wo_entrp">   -230.29675644 </i>
    <i name="e_0_energy">   -230.30379716 </i>
   </energy>
  </scstep>
  <scstep>
   <time name="diag">    1.16    1.16</time>
   <time name="diis">    3.22    3.24</time>
   <time name="orth">    0.24    0.25</time>
   <time name="total">    5.15    5.17</time>
   <energy>
    <i name="e_fr_energy">   -230.30746158 </i>
    <i name="e_wo_entrp">   -230.29640790 </i>
    <i name="e_0_energy">   -230.30377702 </i>
   </energy>
  </scstep>
  <scstep>
   <time name="diag">    1.14    1.15</time>
   <time name="diis">    2.39    2.40</time>
   <time name="orth">    0.20    0.20</time>
   <time name="total">    4.18    4.21</time>
   <energy>
    <i name="e_fr_energy">   -230.30769846 </i>
    <i name="e_wo_entrp">   -230.29652165 </i>
    <i name="e_0_energy">   -230.30397286 </i>
   </energy>
  </scstep>
  <scstep>
   <time name="diag">    1.08    1.08</time>
   <time name="diis">    2.63    2.64</time>
   <time name="orth">    0.21    0.21</time>
   <time name="total">    4.37    4.40</time>
   <energy>
    <i name="e_fr_energy">   -230.30786684 </i>
    <i name="e_wo_entrp">   -230.29664873 </i>
    <i name="e_0_energy">   -230.30412747 </i>
   </energy>
  </scstep>
  <scstep>
   <time name="diag">    1.00    1.01</time>
   <time name="diis">    2.15    2.17</time>
   <time name="orth">    0.27    0.28</time>
   <time name="total">    3.91    3.93</time>
   <energy>
    <i name="e_fr_energy">   -230.30800917 </i>
    <i name="e_wo_entrp">   -230.29678318 </i>
    <i name="e_0_energy">   -230.30426717 </i>
   </energy>
  </scstep>
  <scstep>
   <time name="diag">    1.03    1.03</time>
   <time name="diis">    1.98    1.99</time>
   <time name="orth">    0.19    0.19</time>
   <time name="total">    3.63    3.65</time>
   <energy>
    <i name="e_fr_energy">   -230.30830947 </i>
    <i name="e_wo_entrp">   -230.29732400 </i>
    <i name="e_0_energy">   -230.30464764 </i>
   </energy>
  </scstep>
  <scstep>
   <time name="diag">    0.95    0.95</time>
   <time name="diis">    2.18    2.19</time>
   <time name="orth">    0.27    0.28</time>
   <time name="total">    3.94    3.97</time>
   <energy>
    <i name="e_fr_energy">   -230.30851210 </i>
    <i name="e_wo_entrp">   -230.29759742 </i>
    <i name="e_0_energy">   -230.30487387 </i>
   </energy>
  </scstep>
  <scstep>
   <time name="diag">    1.41    1.42</time>
   <time name="diis">    2.85    2.87</time>
   <time name="orth">    0.21    0.21</time>
   <time name="total">    5.01    5.04</time>
   <energy>
    <i name="e_fr_energy">   -230.30869877 </i>
    <i name="e_wo_entrp">   -230.29772020 </i>
    <i name="e_0_energy">   -230.30503925 </i>
   </energy>
  </scstep>
  <scstep>
   <time name="diag">    1.34    1.35</time>
   <time name="diis">    2.17    2.18</time>
   <time name="orth">    0.22    0.22</time>
   <time name="total">    4.22    4.25</time>
   <energy>
    <i name="e_fr_energy">   -230.30884277 </i>
    <i name="e_wo_entrp">   -230.29787742 </i>
    <i name="e_0_energy">   -230.30518765 </i>
   </energy>
  </scstep>
  <scstep>
   <time name="diag">    1.07    1.07</time>
   <time name="diis">    1.99    2.00</time>
   <time name="orth">    0.25    0.25</time>
   <time name="total">    3.78    3.81</time>
   <energy>
    <i name="e_fr_energy">   -230.30897539 </i>
    <i name="e_wo_entrp">   -230.29800055 </i>
    <i name="e_0_energy">   -230.30531711 </i>
   </energy>
  </scstep>
  <scstep>
   <time name="diag">    1.01    1.02</time>
   <time name="diis">    1.75    1.77</time>
   <time name="orth">    0.25    0.25</time>
   <time name="total">    3.16    3.18</time>
   <energy>
    <i name="alphaZ">    975.10247152 </i>
    <i name="ewald">  91677.82674304 </i>
    <i name="hartreedc">-120372.67499296 </i>
    <i name="XCdc">    178.55536264 </i>
    <i name="pawpsdc">  30132.44970628 </i>
    <i name="pawaedc"> -29218.68047076 </i>
    <i name="eentropy">     -0.01094420 </i>
    <i name="bandstr">   -862.77108480 </i>
    <i name="atom">  27259.89416086 </i>
    <i name="e_fr_energy">   -230.30904838 </i>
    <i name="e_wo_entrp">   -230.29810418 </i>
    <i name="e_0_energy">   -230.30540031 </i>
   </energy>
  </scstep>
  <structure>
   <crystal>
    <varray name="basis" >
     <v>       7.29695512      -4.21289900       0.00000000 </v>
     <v>       0.00000000       8.42579800       0.00000000 </v>
     <v>       0.00000000       0.00000000      21.87963500 </v>
    </varray>
    <i name="volume">   1345.21837528 </i>
    <varray name="rec_basis" >
     <v>       0.13704346       0.00000000       0.00000000 </v>
     <v>       0.06852173       0.11868312       0.00000000 </v>
     <v>       0.00000000       0.00000000       0.04570460 </v>
    </varray>
   </crystal>
   <varray name="positions" >
    <v>       0.70381040       0.43123628       0.47284572 </v>
    <v>       0.90269921       0.38971259       0.46851379 </v>
    <v>       0.67567386       0.45809216       0.52273426 </v>
    <v>       0.98675500       0.32859100       0.07437600 </v>
    <v>       0.32008800       0.32859100       0.07437600 </v>
    <v>       0.65342200       0.32859100       0.07437600 </v>
    <v>       0.98675500       0.66192500       0.07437600 </v>
    <v>       0.32008800       0.66192500       0.07437600 </v>
    <v>       0.65342200       0.66192500       0.07437600 </v>
    <v>       0.32008800       0.99525800       0.07437600 </v>
    <v>       0.65342200       0.99525800       0.07437600 </v>
    <v>       0.98675500       0.99525800       0.07437600 </v>
    <v>       0.20897700       0.10636900       0.17918600 </v>
    <v>       0.54231100       0.10636900       0.17918600 </v>
    <v>       0.87564400       0.10636900       0.17918600 </v>
    <v>       0.20897700       0.43970300       0.17918600 </v>
    <v>       0.54231100       0.43970300       0.17918600 </v>
    <v>       0.87564400       0.43970300       0.17918600 </v>
    <v>       0.20897700       0.77303600       0.17918600 </v>
    <v>       0.54231100       0.77303600       0.17918600 </v>
    <v>       0.87564400       0.77303600       0.17918600 </v>
    <v>       0.09390332       0.54862582       0.28164774 </v>
    <v>       0.42794177       0.88008187       0.28429938 </v>
    <v>       0.76389908       0.21278166       0.28484694 </v>
    <v>       0.09884990       0.21570548       0.28233708 </v>
    <v>       0.43695159       0.22077186       0.28500144 </v>
    <v>       0.09568750       0.88719855       0.27786097 </v>
    <v>       0.76315173       0.88199719       0.27814389 </v>
    <v>       0.43333616       0.54671607       0.28252643 </v>
    <v>       0.76746106       0.55368354       0.28471740 </v>
    <v>       0.32054693       0.66554365       0.38866951 </v>
    <v>       0.65279905       0.98573918       0.38457669 </v>
    <v>       0.31981032       0.32318898       0.38466857 </v>
    <v>       0.99192511       0.99089635       0.38383502 </v>
    <v>       0.32498894       0.99100195       0.38707568 </v>
    <v>       0.64428545       0.32790643       0.39161562 </v>
    <v>       0.99400850       0.66302486       0.38625677 </v>
    <v>       0.99464345       0.32188089       0.39547236 </v>
    <v>       0.65117322       0.66582762       0.39107947 </v>
   </varray>
  </structure>
  <varray name="forces" >
   <v>       0.21609652      -1.51416780      -0.50835551 </v>
   <v>       0.45619407       0.16790877      -0.07550560 </v>
   <v>       0.02191779       0.47037272       0.40760718 </v>
   <v>       0.00781529      -0.07277620       0.15854948 </v>
   <v>      -0.05542423      -0.06373068       0.17535516 </v>
   <v>       0.00527856      -0.00228595       0.16333066 </v>
   <v>       0.00121915       0.06394507       0.10516535 </v>
   <v>       0.00593343       0.02868877       0.19532567 </v>
   <v>       0.05004941      -0.01721303       0.15323554 </v>
   <v>       0.00523210      -0.02084490       0.08182559 </v>
   <v>       0.00171111       0.04359543       0.09762892 </v>
   <v>       0.00027687       0.03026829      -0.01584975 </v>
   <v>       0.26479769       0.14143561      -0.53760647 </v>
   <v>       0.00536131       0.04461313       0.15018454 </v>
   <v>       0.13834259       0.17748757      -0.43178162 </v>
   <v>      -0.00640248      -0.01827172      -0.11235714 </v>
   <v>       0.08050505      -0.12318028      -0.03809510 </v>
   <v>      -0.18582946      -0.04177327       0.02010508 </v>
   <v>       0.10434593      -0.03979905      -0.33920526 </v>
   <v>      -0.26151007       0.04107430      -0.27494650 </v>
   <v>      -0.12823736      -0.15738514      -0.80298027 </v>
   <v>       0.26767428      -0.36827676       0.43375959 </v>
   <v>       0.04124770       0.01836660      -0.64732402 </v>
   <v>       0.12276359       0.39952842      -0.10505565 </v>
   <v>      -0.29246919       0.77169337       0.29830845 </v>
   <v>      -0.02542857      -0.46691642      -0.63863390 </v>
   <v>       0.34415023      -0.64750687       1.14402971 </v>
   <v>      -0.08690329      -0.02983062       1.08821702 </v>
   <v>      -0.16384783       0.55722434       0.22070761 </v>
   <v>      -0.17555790      -0.19641354      -0.23647327 </v>
   <v>       0.04613469      -0.57464595      -0.27866479 </v>
   <v>       0.21994973       0.22153106       0.23769680 </v>
   <v>      -0.12886227       0.26304762       0.38125572 </v>
   <v>      -0.32119158      -0.00540950       0.28695199 </v>
   <v>      -0.37813686       0.22658701       0.02991352 </v>
   <v>      -0.25386990       0.25315705       0.06507136 </v>
   <v>       0.06742434       0.42649978      -0.20056392 </v>
   <v>      -0.25196182       0.10953118       0.00753246 </v>
   <v>       0.24121140      -0.09612841      -0.65835861 </v>
  </varray>
  <varray name="stress" >
   <v>     -41.94188387       1.29318299       1.35294766 </v>
   <v>       1.29318299     -44.14478714      -1.15929129 </v>
   <v>       1.35294757      -1.15929129      -1.41330758 </v>
  </varray>
  <energy>
   <i name="e_fr_energy">   -230.30904838 </i>
   <i name="e_wo_entrp">   -230.30540031 </i>
   <i name="e_0_energy">     -0.01094420 </i>
  </energy>
  <time name="totalsc">  194.39  196.34</time>
 </calculation>
 <calculation>
  <scstep>
   <time name="dav">    8.67    8.75</time>
   <time name="total">    9.19    9.46</time>
   <energy>
    <i name="alphaZ">    975.10247152 </i>
    <i name="ewald">  91661.06129586 </i>
    <i name="hartreedc">-120358.53876322 </i>
    <i name="XCdc">    178.45157331 </i>
    <i name="pawpsdc">  30132.71204167 </i>
    <i name="pawaedc"> -29218.94587667 </i>
    <i name="eentropy">     -0.00877874 </i>
    <i name="bandstr">   -860.16994914 </i>
    <i name="atom">  27259.89416086 </i>
    <i name="e_fr_energy">   -230.44182455 </i>
    <i name="e_wo_entrp">   -230.43304581 </i>
    <i name="e_0_energy">   -230.43889831 </i>
   </energy>
  </scstep>
  <scstep>
   <time name="diag">    1.19    1.20</time>
   <time name="diis">    4.04    4.07</time>
   <time name="orth">    0.21    0.21</time>
   <time name="total">    6.00    6.04</time>
   <energy>
    <i name="e_fr_energy">   -230.47699431 </i>
    <i name="e_wo_entrp">   -230.46690128 </i>
    <i name="e_0_energy">   -230.47362997 </i>
   </energy>
  </scstep>
  <scstep>
   <time name="diag">    1.35    1.36</time>
   <time name="diis">    4.22    4.25</time>
   <time name="orth">    0.23    0.24</time>
   <time name="total">    6.40    6.44</time>
   <energy>
    <i name="e_fr_energy">   -230.47483424 </i>
    <i name="e_wo_entrp">   -230.46750152 </i>
    <i name="e_0_energy">   -230.47239000 </i>
   </energy>
  </scstep>
  <scstep>
   <time name="diag">    1.24    1.25</time>
   <time name="diis">    5.11    5.15</time>
   <time name="orth">    0.23    0.23</time>
   <time name="total">    7.14    7.19</time>
   <energy>
    <i name="e_fr_energy">   -230.47334267 </i>
    <i name="e_wo_entrp">   -230.46122961 </i>
    <i name="e_0_energy">   -230.46930498 </i>
   </energy>
  </scstep>
  <scstep>
   <time name="diag">    1.28    1.29</time>
   <time name="diis">    4.56    4.59</time>
   <time name="orth">    0.26    0.26</time>
   <time name="total">    6.70    6.74</time>
   <energy>
    <i name="e_fr_energy">   -230.47066509 </i>
    <i name="e_wo_entrp">   -230.46202930 </i>
    <i name="e_0_energy">   -230.46778649 </i>
   </energy>
  </scstep>
  <scstep>
   <time name="diag">    1.48    1.49</time>
   <time name="diis">    4.10    4.13</time>
   <time name="orth">    0.20    0.20</time>
   <time name="total">    6.27    6.30</time>
   <energy>
    <i name="e_fr_energy">   -230.47033111 </i>
    <i name="e_wo_entrp">   -230.46024228 </i>
    <i name="e_0_energy">   -230.46696817 </i>
   </energy>
  </scstep>
  <scstep>
   <time name="diag">    1.45    1.46</time>
   <time name="diis">    3.68    3.81</time>
   <time name="orth">    0.20    0.20</time>
   <time name="total">    5.84    5.98</time>
   <energy>
    <i name="e_fr_energy">   -230.46907391 </i>
    <i name="e_wo_entrp">   -230.45958734 </i>
    <i name="e_0_energy">   -230.46591172 </i>
   </energy>
  </scstep>
  <scstep>
   <time name="diag">    1.05    1.06</time>
   <time name="diis">    2.65    2.67</time>
   <time name="orth">    0.20    0.20</time>
   <time name="total">    4.35    4.37</time>
   <energy>
    <i name="e_fr_energy">   -230.46890835 </i>
    <i name="e_wo_entrp">   -230.45897000 </i>
    <i name="e_0_energy">   -230.46559557 </i>
   </energy>
  </scstep>
  <scstep>
   <time name="diag">    0.89    0.90</time>
   <time name="diis">    3.15    3.17</time>
   <time name="orth">    0.22    0.22</time>
   <time name="total">    4.38    4.41</time>
   <energy>
    <i name="alphaZ">    975.10247152 </i>
    <i name="ewald">  91661.06129586 </i>
    <i name="hartreedc">-120352.23792297 </i>
    <i name="XCdc">    178.38497084 </i>
    <i name="pawpsdc">  30119.18455343 </i>
    <i name="pawaedc"> -29205.37193940 </i>
    <i name="eentropy">     -0.00953246 </i>
    <i name="bandstr">   -866.47691218 </i>
    <i name="atom">  27259.89416086 </i>
    <i name="e_fr_energy">   -230.46885449 </i>
    <i name="e_wo_entrp">   -230.45932203 </i>
    <i name="e_0_energy">   -230.46567700 </i>
   </energy>
  </scstep>
  <structure>
   <crystal>
    <varray name="basis" >
     <v>       7.29695512      -4.21289900       0.00000000 </v>
     <v>       0.00000000       8.42579800       0.00000000 </v>
     <v>       0.00000000       0.00000000      21.87963500 </v>
    </varray>
    <i name="volume">   1345.21837528 </i>
    <varray name="rec_basis" >
     <v>       0.13704346       0.00000000       0.00000000 </v>
     <v>       0.06852173       0.11868312       0.00000000 </v>
     <v>       0.00000000       0.00000000       0.04570460 </v>
    </varray>
   </crystal>
   <varray name="positions" >
    <v>       0.70438188       0.42805421       0.47239737 </v>
    <v>       0.90390563       0.39070035       0.46844719 </v>
    <v>       0.67573182       0.45919841       0.52309375 </v>
    <v>       0.98675500       0.32859100       0.07437600 </v>
    <v>       0.32008800       0.32859100       0.07437600 </v>
    <v>       0.65342200       0.32859100       0.07437600 </v>
    <v>       0.98675500       0.66192500       0.07437600 </v>
    <v>       0.32008800       0.66192500       0.07437600 </v>
    <v>       0.65342200       0.66192500       0.07437600 </v>
    <v>       0.32008800       0.99525800       0.07437600 </v>
    <v>       0.65342200       0.99525800       0.07437600 </v>
    <v>       0.98675500       0.99525800       0.07437600 </v>
    <v>       0.20897700       0.10636900       0.17918600 </v>
    <v>       0.54231100       0.10636900       0.17918600 </v>
    <v>       0.87564400       0.10636900       0.17918600 </v>
    <v>       0.20897700       0.43970300       0.17918600 </v>
    <v>       0.54231100       0.43970300       0.17918600 </v>
    <v>       0.87564400       0.43970300       0.17918600 </v>
    <v>       0.20897700       0.77303600       0.17918600 </v>
    <v>       0.54231100       0.77303600       0.17918600 </v>
    <v>       0.87564400       0.77303600       0.17918600 </v>
    <v>       0.09461119       0.54813632       0.28203030 </v>
    <v>       0.42805085       0.88017848       0.28372846 </v>
    <v>       0.76422373       0.21385900       0.28475429 </v>
    <v>       0.09807646       0.21708612       0.28260017 </v>
    <v>       0.43688434       0.21966889       0.28443819 </v>
    <v>       0.09659761       0.88617066       0.27886997 </v>
    <v>       0.76292192       0.88181396       0.27910366 </v>
    <v>       0.43290286       0.54777560       0.28272109 </v>
    <v>       0.76699679       0.55300157       0.28450883 </v>
    <v>       0.32066894       0.66428858       0.38842373 </v>
    <v>       0.65338072       0.98653737       0.38478633 </v>
    <v>       0.31946954       0.32362103       0.38500482 </v>
    <v>       0.99107571       0.99045926       0.38408810 </v>
    <v>       0.32398895       0.99102089       0.38710207 </v>
    <v>       0.64361408       0.32815054       0.39167302 </v>
    <v>       0.99418681       0.66409080       0.38607988 </v>
    <v>       0.99397713       0.32179858       0.39547900 </v>
    <v>       0.65181111       0.66592641       0.39049882 </v>
   </varray>
  </structure>
  <varray name="forces" >
   <v>       0.03799746      -0.73981460       2.00941127 </v>
   <v>       0.30604978       0.34525055       0.10757605 </v>
   <v>       0.44726685      -0.37277406      -1.92584545 </v>
   <v>       0.01016648      -0.06589284       0.15528395 </v>
   <v>      -0.05037502      -0.06001140       0.16572802 </v>
   <v>       0.00280271      -0.00426441       0.15565108 </v>
   <v>       0.00336105       0.06170726       0.11189940 </v>
   <v>       0.00291702       0.02655733       0.18370341 </v>
   <v>       0.04219685      -0.01672863       0.15910418 </v>
   <v>       0.00467941      -0.02028376       0.06936742 </v>
   <v>       0.00162837       0.04505400       0.10496952 </v>
   <v>       0.00153145       0.02782061       0.00222088 </v>
   <v>       0.18386418       0.11061717      -0.43137015 </v>
   <v>       0.02183832       0.03546585       0.08227127 </v>
   <v>       0.11867523       0.12164986      -0.35632743 </v>
   <v>      -0.00091806      -0.02039329      -0.11355498 </v>
   <v>       0.06513579      -0.09173954      -0.03071135 </v>
   <v>      -0.15325487      -0.03289521       0.02731822 </v>
   <v>       0.05923504      -0.03000628      -0.31925553 </v>
   <v>      -0.19219393       0.02655918      -0.25158528 </v>
   <v>      -0.07865809      -0.10397049      -0.65186041 </v>
   <v>       0.19925231      -0.27033771       0.34439037 </v>
   <v>       0.08101416       0.03334095      -0.45264929 </v>
   <v>       0.08182542       0.31238458      -0.07269392 </v>
   <v>      -0.23403401       0.52652003       0.26846521 </v>
   <v>      -0.09709989      -0.28912722      -0.45135747 </v>
   <v>       0.22966301      -0.45923430       0.84641828 </v>
   <v>      -0.01730687      -0.01528386       0.80334235 </v>
   <v>      -0.12598629       0.37235333       0.16972701 </v>
   <v>      -0.14734521      -0.17102075      -0.22591040 </v>
   <v>       0.05871097      -0.42277389      -0.25229415 </v>
   <v>       0.11614602       0.25764586       0.20208286 </v>
   <v>      -0.08198450       0.17073376       0.27011050 </v>
   <v>      -0.25263456       0.06105393       0.29574195 </v>
   <v>      -0.26478151       0.17252254       0.00317831 </v>
   <v>      -0.35786617       0.15309794      -0.20579189 </v>
   <v>       0.04485158       0.33017796      -0.13533440 </v>
   <v>      -0.25527876       0.07831761      -0.07258889 </v>
   <v>       0.18890829      -0.08227806      -0.58883052 </v>
  </varray>
  <varray name="stress" >
   <v>     -42.68101243       1.69208848       2.30030086 </v>
   <v>       1.69208841     -45.16663454      -2.00746226 </v>
   <v>       2.30030082      -2.00746228      -4.49535031 </v>
  </varray>
  <energy>
   <i name="e_fr_energy">   -230.46885449 </i>
   <i name="e_wo_entrp">   -230.46567700 </i>
   <i name="e_0_energy">     -0.00953246 </i>
  </energy>
  <time name="totalsc">   69.47   73.85</time>
 </calculation>
 <calculation>
  <scstep>
   <time name="dav">    8.54    8.63</time>
   <time name="total">    8.99   11.80</time>
   <energy>
    <i name="alphaZ">    975.10247152 </i>
    <i name="ewald">  91672.78517184 </i>
    <i name="hartreedc">-120361.46412350 </i>
    <i name="XCdc">    178.47310768 </i>
    <i name="pawpsdc">  30119.16944911 </i>
    <i name="pawaedc"> -29205.35630322 </i>
    <i name="eentropy">     -0.00938145 </i>
    <i name="bandstr">   -869.12337550 </i>
    <i name="atom">  27259.89416086 </i>
    <i name="e_fr_energy">   -230.52882265 </i>
    <i name="e_wo_entrp">   -230.51944120 </i>
    <i name="e_0_energy">   -230.52569550 </i>
   </energy>
  </scstep>
  <scstep>
   <time name="diag">    1.09    1.10</time>
   <time name="diis">    3.99    4.01</time>
   <time name="orth">    0.28    0.28</time>
   <time name="total">    5.87    5.91</time>
   <energy>
    <i name="e_fr_energy">   -230.54275976 </i>
    <i name="e_wo_entrp">   -230.53383289 </i>
    <i name="e_0_energy">   -230.53978414 </i>
   </energy>
  </scstep>
  <scstep>
   <time name="diag">    1.04    1.05</time>
   <time name="diis">    3.66    3.69</time>
   <time name="orth">    0.20    0.20</time>
   <time name="total">    5.38    5.41</time>
   <energy>
    <i name="e_fr_energy">   -230.54055856 </i>
    <i name="e_wo_entrp">   -230.53154100 </i>
    <i name="e_0_energy">   -230.53755271 </i>
   </energy>
  </scstep>
  <scstep>
   <time name="diag">    1.14    1.15</time>
   <time name="diis">    3.75    3.77</time>
   <time name="orth">    0.20    0.20</time>
   <time name="total">    5.58    5.62</time>
   <energy>
    <i name="e_fr_energy">   -230.54168138 </i>
    <i name="e_wo_entrp">   -230.53050045 </i>
    <i name="e_0_energy">   -230.53795440 </i>
   </energy>
  </scstep>
  <scstep>
   <time name="diag">    1.18    1.19</time>
   <time name="diis">    4.14    4.17</time>
   <time name="orth">    0.25    0.25</time>
   <time name="total">    6.10    6.14</time>
   <energy>
    <i name="e_fr_energy">   -230.54091969 </i>
    <i name="e_wo_entrp">   -230.53449097 </i>
    <i name="e_0_energy">   -230.53877678 </i>
   </energy>
  </scstep>
  <scstep>
   <time name="diag">    1.29    1.30</time>
   <time name="diis">    3.77    3.80</time>
   <time name="orth">    0.20    0.21</time>
   <time name="total">    5.74    5.78</time>
   <energy>
    <i name="e_fr_energy">   -230.53912162 </i>
    <i name="e_wo_entrp">   -230.52895745 </i>
    <i name="e_0_energy">   -230.53573357 </i>
   </energy>
  </scstep>
  <scstep>
   <time name="diag">    1.01    1.02</time>
   <time name="diis">    3.10    3.12</time>
   <time name="orth">    0.20    0.20</time>
   <time name="total">    4.75    4.78</time>
   <energy>
    <i name="e_fr_energy">   -230.53884404 </i>
    <i name="e_wo_entrp">   -230.53022014 </i>
    <i name="e_0_energy">   -230.53596940 </i>
   </energy>
  </scstep>
  <scstep>
   <time name="diag">    0.94    0.95</time>
   <time name="diis">    2.13    2.14</time>
   <time name="orth">    0.26    0.26</time>
   <time name="total">    3.85    3.87</time>
   <energy>
    <i name="e_fr_energy">   -230.53873709 </i>
    <i name="e_wo_entrp">   -230.52966335 </i>
    <i name="e_0_energy">   -230.53571251 </i>
   </energy>
  </scstep>
  <scstep>
   <time name="diag">    1.64    1.65</time>
   <time name="diis">    2.40    2.41</time>
   <time name="orth">    0.26    0.26</time>
   <time name="total">    4.43    4.45</time>
   <energy>
    <i name="alphaZ">    975.10247152 </i>
    <i name="ewald">  91672.78517184 </i>
    <i name="hartreedc">-120366.64873891 </i>
    <i name="XCdc">    178.54289831 </i>
    <i name="pawpsdc">  30121.12808326 </i>
    <i name="pawaedc"> -29207.30706750 </i>
    <i name="eentropy">     -0.00900280 </i>
    <i name="bandstr">   -864.02669788 </i>
    <i name="atom">  27259.89416086 </i>
    <i name="e_fr_energy">   -230.53872130 </i>
    <i name="e_wo_entrp">   -230.52971850 </i>
    <i name="e_0_energy">   -230.53572036 </i>
   </energy>
  </scstep>
  <structure>
   <crystal>
    <varray name="basis" >
     <v>       7.29695512      -4.21289900       0.00000000 </v>
     <v>       0.00000000       8.42579800       0.00000000 </v>
     <v>       0.00000000       0.00000000      21.87963500 </v>
    </varray>
    <i name="volume">   1345.21837528 </i>
    <varray name="rec_basis" >
     <v>       0.13704346       0.00000000       0.00000000 </v>
     <v>       0.06852173       0.11868312       0.00000000 </v>
     <v>       0.00000000       0.00000000       0.04570460 </v>
    </varray>
   </crystal>
   <varray name="positions" >
    <v>       0.70442407       0.42736385       0.47314153 </v>
    <v>       0.90424548       0.39120229       0.46848703 </v>
    <v>       0.67622848       0.45908825       0.52238054 </v>
    <v>       0.98675500       0.32859100       0.07437600 </v>
    <v>       0.32008800       0.32859100       0.07437600 </v>
    <v>       0.65342200       0.32859100       0.07437600 </v>
    <v>       0.98675500       0.66192500       0.07437600 </v>
    <v>       0.32008800       0.66192500       0.07437600 </v>
    <v>       0.65342200       0.66192500       0.07437600 </v>
    <v>       0.32008800       0.99525800       0.07437600 </v>
    <v>       0.65342200       0.99525800       0.07437600 </v>
    <v>       0.98675500       0.99525800       0.07437600 </v>
    <v>       0.20897700       0.10636900       0.17918600 </v>
    <v>       0.54231100       0.10636900       0.17918600 </v>
    <v>       0.87564400       0.10636900       0.17918600 </v>
    <v>       0.20897700       0.43970300       0.17918600 </v>
    <v>       0.54231100       0.43970300       0.17918600 </v>
    <v>       0.87564400       0.43970300       0.17918600 </v>
    <v>       0.20897700       0.77303600       0.17918600 </v>
    <v>       0.54231100       0.77303600       0.17918600 </v>
    <v>       0.87564400       0.77303600       0.17918600 </v>
    <v>       0.09483245       0.54798697       0.28215784 </v>
    <v>       0.42814081       0.88025552       0.28356083 </v>
    <v>       0.76431459       0.21420485       0.28472736 </v>
    <v>       0.09781658       0.21746252       0.28269960 </v>
    <v>       0.43677652       0.21933693       0.28427103 </v>
    <v>       0.09685264       0.88585655       0.27918343 </v>
    <v>       0.76290270       0.88178965       0.27940117 </v>
    <v>       0.43276296       0.54806373       0.28278394 </v>
    <v>       0.76683317       0.55275530       0.28442517 </v>
    <v>       0.32073413       0.66391461       0.38833030 </v>
    <v>       0.65350969       0.98684963       0.38486117 </v>
    <v>       0.31937850       0.32373970       0.38510485 </v>
    <v>       0.99079517       0.99037771       0.38419763 </v>
    <v>       0.32369492       0.99103978       0.38710324 </v>
    <v>       0.64321669       0.32809907       0.39159680 </v>
    <v>       0.99423662       0.66443322       0.38602976 </v>
    <v>       0.99369366       0.32173216       0.39545212 </v>
    <v>       0.65202088       0.66595217       0.39028076 </v>
   </varray>
  </structure>
  <varray name="forces" >
   <v>       0.37080078      -1.57877949      -0.58349285 </v>
   <v>       0.34093154       0.31728940       0.10164471 </v>
   <v>       0.01689540       0.42802801       0.48784014 </v>
   <v>       0.01117519      -0.06420535       0.15481384 </v>
   <v>      -0.05001045      -0.05945094       0.16618346 </v>
   <v>       0.00054714      -0.00532425       0.15258207 </v>
   <v>       0.00437458       0.06091647       0.11135820 </v>
   <v>       0.00026161       0.02549851       0.18093166 </v>
   <v>       0.03917632      -0.01727042       0.15802119 </v>
   <v>       0.00367268      -0.01920386       0.06862545 </v>
   <v>       0.00185016       0.04670803       0.10860505 </v>
   <v>       0.00333790       0.02795093       0.00924302 </v>
   <v>       0.16143032       0.10196222      -0.39424523 </v>
   <v>       0.02539070       0.03388432       0.06079123 </v>
   <v>       0.11430922       0.10828823      -0.32784248 </v>
   <v>      -0.00028181      -0.02119770      -0.11113534 </v>
   <v>       0.05838180      -0.08225935      -0.02825164 </v>
   <v>      -0.14208424      -0.03078602       0.03066974 </v>
   <v>       0.04591955      -0.02815947      -0.31148597 </v>
   <v>      -0.17321274       0.02181501      -0.24323718 </v>
   <v>      -0.06405230      -0.09011870      -0.60438224 </v>
   <v>       0.17847264      -0.23705507       0.31489495 </v>
   <v>       0.08712310       0.03112510      -0.39844919 </v>
   <v>       0.06402693       0.28147578      -0.06359815 </v>
   <v>      -0.21291264       0.46093251       0.25817655 </v>
   <v>      -0.11228259      -0.23939624      -0.40061347 </v>
   <v>       0.20275736      -0.40450976       0.75056140 </v>
   <v>       0.00387327      -0.01156212       0.72492804 </v>
   <v>      -0.11607072       0.31802585       0.14455229 </v>
   <v>      -0.13600132      -0.15966614      -0.21716046 </v>
   <v>       0.05848998      -0.37156363      -0.23687351 </v>
   <v>       0.08622680       0.26435233       0.19542690 </v>
   <v>      -0.07135869       0.15275640       0.24028465 </v>
   <v>      -0.23325059       0.07368397       0.29947585 </v>
   <v>      -0.23227002       0.15786345      -0.00310437 </v>
   <v>      -0.28982198       0.20574684      -0.02915816 </v>
   <v>       0.03422243       0.29519033      -0.12431054 </v>
   <v>      -0.25735545       0.08393261      -0.05726009 </v>
   <v>       0.17731813      -0.07691780      -0.58500949 </v>
  </varray>
  <varray name="stress" >
   <v>     -42.79224835       1.42645792       1.63794410 </v>
   <v>       1.42645797     -44.99232708      -1.09990896 </v>
   <v>       1.63794404      -1.09990910      -1.84951150 </v>
  </varray>
  <energy>
   <i name="e_fr_energy">   -230.53872130 </i>
   <i name="e_wo_entrp">   -230.53572036 </i>
   <i name="e_0_energy">     -0.00900280 </i>
  </energy>
  <time name="totalsc">   60.24   67.14</time>
 </calculation>
 <calculation>
