 vasp.5.4.4 16052018 (build Apr 24 2014 20:13:14) complex standard
 Contain Constrained Minimization Technique (TS), Periodic NBO, VASPsol, libbeef, VASP2WANNIER90, Constrained Cell Relaxation
 executed on Center for Computational Chemistry by phu@node13 date 2025.09.27 23:49:55
 running on    8 total cores
 distrk:  each k-point on    8 cores,    1 groups
 distr:  one band on NCORES_PER_BAND=   2 cores,    4 groups


--------------------------------------------------------------------------------------------------------


 INCAR:
 POTCAR:   PAW_PBE C 08Apr2002                    
 POTCAR:   PAW_PBE O 08Apr2002                    
 POTCAR:    PAW_PBE Pt 04Feb2005                  
 POTCAR:   PAW_PBE C 08Apr2002                    
   VRHFIN =C: s2p2                                                              
   LEXCH  = PE                                                                  
   EATOM  =   147.1560 eV,   10.8157 Ry                                         
                                                                                
   TITEL  = PAW_PBE C 08Apr2002                                                 
   LULTRA =        F    use ultrasoft PP ?                                      
   IUNSCR =        0    unscreen: 0-lin 1-nonlin 2-no                           
   RPACOR =     .000    partial core radius                                     
   POMASS =   12.011; ZVAL   =    4.000    mass and valenz                      
   RCORE  =    1.500    outmost cutoff radius                                   
   RWIGS  =    1.630; RWIGS  =     .863    wigner-seitz radius (au A)           
   ENMAX  =  400.000; ENMIN  =  300.000 eV                                      
   ICORE  =        2    local potential                                         
   LCOR   =        T    correct aug charges                                     
   LPAW   =        T    paw PP                                                  
   EAUG   =  644.873                                                            
   DEXC   =     .000                                                            
   RMAX   =    2.266    core radius for proj-oper                               
   RAUG   =    1.300    factor for augmentation sphere                          
   RDEP   =    1.501    radius for radial grids                                 
   RDEPT  =    1.300    core radius for aug-charge                              
   QCUT   =   -5.516; QGAM   =   11.032    optimization parameters              
                                                                                
   Description                                                                  
     l     E      TYP  RCUT    TYP  RCUT                                        
     0   .000     23  1.200                                                     
     0   .000     23  1.200                                                     
     1   .000     23  1.500                                                     
     1  2.500     23  1.500                                                     
     2   .000      7  1.500                                                     
  local pseudopotential read in
  atomic valenz-charges read in
  non local Contribution for L=           0  read in
    real space projection operators read in
  non local Contribution for L=           0  read in
    real space projection operators read in
  non local Contribution for L=           1  read in
    real space projection operators read in
  non local Contribution for L=           1  read in
    real space projection operators read in
    PAW grid and wavefunctions read in
 
   number of l-projection  operators is LMAX  =           4
   number of lm-projection operators is LMMAX =           8
 
 POTCAR:   PAW_PBE O 08Apr2002                    
   VRHFIN =O: s2p4                                                              
   LEXCH  = PE                                                                  
   EATOM  =   432.3788 eV,   31.7789 Ry                                         
                                                                                
   TITEL  = PAW_PBE O 08Apr2002                                                 
   LULTRA =        F    use ultrasoft PP ?                                      
   IUNSCR =        0    unscreen: 0-lin 1-nonlin 2-no                           
   RPACOR =     .000    partial core radius                                     
   POMASS =   16.000; ZVAL   =    6.000    mass and valenz                      
   RCORE  =    1.520    outmost cutoff radius                                   
   RWIGS  =    1.550; RWIGS  =     .820    wigner-seitz radius (au A)           
   ENMAX  =  400.000; ENMIN  =  300.000 eV                                      
   ICORE  =        2    local potential                                         
   LCOR   =        T    correct aug charges                                     
   LPAW   =        T    paw PP                                                  
   EAUG   =  605.392                                                            
   DEXC   =     .000                                                            
   RMAX   =    2.264    core radius for proj-oper                               
   RAUG   =    1.300    factor for augmentation sphere                          
   RDEP   =    1.550    radius for radial grids                                 
   QCUT   =   -5.520; QGAM   =   11.041    optimization parameters              
                                                                                
   Description                                                                  
     l     E      TYP  RCUT    TYP  RCUT                                        
     0   .000     23  1.200                                                     
     0  -.700     23  1.200                                                     
     1   .000     23  1.520                                                     
     1   .600     23  1.520                                                     
     2   .000      7  1.500                                                     
  local pseudopotential read in
  atomic valenz-charges read in
  non local Contribution for L=           0  read in
    real space projection operators read in
  non local Contribution for L=           0  read in
    real space projection operators read in
  non local Contribution for L=           1  read in
    real space projection operators read in
  non local Contribution for L=           1  read in
    real space projection operators read in
    PAW grid and wavefunctions read in
 
   number of l-projection  operators is LMAX  =           4
   number of lm-projection operators is LMMAX =           8
 
 POTCAR:    PAW_PBE Pt 04Feb2005                  
   VRHFIN =Pt: s1d9                                                             
   LEXCH  = PE                                                                  
   EATOM  =   729.1182 eV,   53.5887 Ry                                         
                                                                                
   TITEL  = PAW_PBE Pt 04Feb2005                                                
   LULTRA =        F    use ultrasoft PP ?                                      
   IUNSCR =        1    unscreen: 0-lin 1-nonlin 2-no                           
   RPACOR =    2.330    partial core radius                                     
   POMASS =  195.080; ZVAL   =   10.000    mass and valenz                      
   RCORE  =    2.600    outmost cutoff radius                                   
   RWIGS  =    2.750; RWIGS  =    1.455    wigner-seitz radius (au A)           
   ENMAX  =  230.283; ENMIN  =  172.712 eV                                      
   ICORE  =        3    local potential                                         
   LCOR   =        T    correct aug charges                                     
   LPAW   =        T    paw PP                                                  
   EAUG   =  358.966                                                            
   DEXC   =     .000                                                            
   RMAX   =    3.038    core radius for proj-oper                               
   RAUG   =    1.300    factor for augmentation sphere                          
   RDEP   =    2.761    radius for radial grids                                 
   QCUT   =   -4.114; QGAM   =    8.228    optimization parameters              
                                                                                
   Description                                                                  
     l     E      TYP  RCUT    TYP  RCUT                                        
     2   .000     23  2.500                                                     
     2   .000     23  2.500                                                     
     0   .000     23  2.500                                                     
     0   .000     23  2.500                                                     
     1  -.200     23  2.600                                                     
     1  1.500     23  2.600                                                     
     3   .000     23  2.500                                                     
  local pseudopotential read in
  partial core-charges read in
  atomic valenz-charges read in
  non local Contribution for L=           2  read in
    real space projection operators read in
  non local Contribution for L=           2  read in
    real space projection operators read in
  non local Contribution for L=           0  read in
    real space projection operators read in
  non local Contribution for L=           0  read in
    real space projection operators read in
  non local Contribution for L=           1  read in
    real space projection operators read in
  non local Contribution for L=           1  read in
    real space projection operators read in
    PAW grid and wavefunctions read in
 
   number of l-projection  operators is LMAX  =           6
   number of lm-projection operators is LMMAX =          18
 
 Optimization of the real space projectors (new method)

 maximal supplied QI-value         = 25.13
 optimisation between [QCUT,QGAM] = [ 10.81, 21.61] = [ 32.71,130.83] Ry 
 Optimized for a Real-space Cutoff    1.23 Angstroem

   l    n(q)    QCUT    max X(q) W(low)/X(q) W(high)/X(q)  e(spline) 
   0      8    10.807     5.582    0.53E-04    0.84E-04    0.44E-07
   0      8    10.807    69.432    0.35E-03    0.71E-03    0.24E-06
   1      7    10.807     2.780    0.44E-04    0.88E-04    0.89E-07
   1      7    10.807     4.549    0.14E-03    0.28E-03    0.13E-06
 Optimization of the real space projectors (new method)

 maximal supplied QI-value         = 24.76
 optimisation between [QCUT,QGAM] = [ 10.64, 21.54] = [ 31.73,129.89] Ry 
 Optimized for a Real-space Cutoff    1.23 Angstroem

   l    n(q)    QCUT    max X(q) W(low)/X(q) W(high)/X(q)  e(spline) 
   0      8    10.645     4.192    0.69E-04    0.93E-04    0.58E-07
   0      8    10.645     8.473    0.40E-03    0.65E-03    0.17E-06
   1      7    10.645     2.474    0.80E-04    0.12E-03    0.30E-07
   1      7    10.645     3.912    0.24E-03    0.53E-03    0.16E-06
 Optimization of the real space projectors (new method)

 maximal supplied QI-value         = 14.36
 optimisation between [QCUT,QGAM] = [ 10.77, 21.69] = [ 32.49,131.70] Ry 
 Optimized for a Real-space Cutoff    1.46 Angstroem

   l    n(q)    QCUT    max X(q) W(low)/X(q) W(high)/X(q)  e(spline) 
   2      9    10.771     3.903    0.38E-04    0.12E-03    0.82E-07
   2      9    10.771    18.372    0.13E-03    0.32E-03    0.28E-06
   0     10    10.771    13.697    0.11E-04    0.86E-05    0.85E-08
   0     10    10.771    65.529    0.40E-04    0.12E-03    0.14E-06
   1      9    10.771     7.604    0.48E-04    0.31E-04    0.38E-07
   1      9    10.771    12.136    0.35E-03    0.16E-03    0.23E-06
 PAW_PBE C 08Apr2002                    :
 energy of atom  1       EATOM= -147.1560
 kinetic energy error for atom=    0.0116 (will be added to EATOM!!)
 PAW_PBE O 08Apr2002                    :
 energy of atom  2       EATOM= -432.3788
 kinetic energy error for atom=    0.0389 (will be added to EATOM!!)
  PAW_PBE Pt 04Feb2005                  :
 energy of atom  3       EATOM= -729.1182
 kinetic energy error for atom=    0.0051 (will be added to EATOM!!)
 
 
 POSCAR: C    O    Pt                            
  positions in direct lattice
  No initial velocities read in
 exchange correlation table for  LEXCH =        8
   RHO(1)=    0.500       N(1)  =     2000
   RHO(2)=  100.500       N(2)  =     4000

 VTST: version 3.2, (02/03/18)

 CHAIN: initializing optimizer
 
 OPT: Using VASP QUASI-newton optimizer
 CHAIN: Read ICHAIN            0
 
 POSCAR: C    O    Pt                            
  positions in direct lattice
  No initial velocities read in
 


--------------------------------------------------------------------------------------------------------


 ion  position               nearest neighbor table
   1  0.700  0.439  0.480-   3 1.16   2 1.97  36 2.11
   2  0.904  0.389  0.468-   1 1.97  38 2.03  36 2.61  37 2.70
   3  0.672  0.466  0.530-   1 1.16
   4  0.987  0.329  0.074-  15 2.81  16 2.81  12 2.81   5 2.81  11 2.81   6 2.81  18 2.81   8 2.81
                             7 2.81
   5  0.320  0.329  0.074-  13 2.81  10 2.81   4 2.81  12 2.81  16 2.81  17 2.81   8 2.81   9 2.81
                             6 2.81
   6  0.653  0.329  0.074-  14 2.81  18 2.81  11 2.81   4 2.81  17 2.81   7 2.81  10 2.81   9 2.81
                             5 2.81
   7  0.987  0.662  0.074-  18 2.81  21 2.81  19 2.81  12 2.81   8 2.81  10 2.81   9 2.81   6 2.81
                             4 2.81
   8  0.320  0.662  0.074-  16 2.81  19 2.81  10 2.81   7 2.81  20 2.81   4 2.81  11 2.81   5 2.81
                             9 2.81
   9  0.653  0.662  0.074-  17 2.81  20 2.81  21 2.81  11 2.81  12 2.81   7 2.81   6 2.81   5 2.81
                             8 2.81
  10  0.320  0.995  0.074-  13 2.81  19 2.81   5 2.81   8 2.81  12 2.81   7 2.81  14 2.81   6 2.81
                            11 2.81
  11  0.653  0.995  0.074-  14 2.81  20 2.81  15 2.81   9 2.81   6 2.81  12 2.81   4 2.81   8 2.81
                            10 2.81
  12  0.987  0.995  0.074-  15 2.81  21 2.81  13 2.81   7 2.81   4 2.81  10 2.81   5 2.81  11 2.81
                             9 2.81
  13  0.209  0.106  0.179-  27 2.73  10 2.81   5 2.81  12 2.81  19 2.81  15 2.81  21 2.81  16 2.81
                            17 2.81  14 2.81  26 2.84  25 2.90
  14  0.542  0.106  0.179-  23 2.73  24 2.73   6 2.81  11 2.81  20 2.81  15 2.81  10 2.81  18 2.81
                            19 2.81  17 2.81  13 2.81  26 2.82
  15  0.876  0.106  0.179-  24 2.71  28 2.76   4 2.81  12 2.81  11 2.81  21 2.81  13 2.81  20 2.81
                            14 2.81  16 2.81  18 2.81  25 2.88
  16  0.209  0.440  0.179-  22 2.73   8 2.81   4 2.81  19 2.81  18 2.81   5 2.81  15 2.81  20 2.81
                            13 2.81  17 2.81  29 2.85  25 2.87
  17  0.542  0.440  0.179-  29 2.80   9 2.81  20 2.81  21 2.81  18 2.81   6 2.81   5 2.81  14 2.81
                            13 2.81  16 2.81  26 2.82  30 2.85
  18  0.876  0.440  0.179-  24 2.74  22 2.76   7 2.81   6 2.81  21 2.81  19 2.81  16 2.81  17 2.81
                             4 2.81  14 2.81  15 2.81  30 2.84
  19  0.209  0.773  0.179-  23 2.72  27 2.72  22 2.74  10 2.81   8 2.81   7 2.81  16 2.81  13 2.81
                            21 2.81  18 2.81  14 2.81  20 2.81
  20  0.542  0.773  0.179-  23 2.74  28 2.77   9 2.81  11 2.81  17 2.81  14 2.81  15 2.81  21 2.81
                             8 2.81  16 2.81  19 2.81  29 2.84
  21  0.876  0.773  0.179-  27 2.75  28 2.78   7 2.81  12 2.81   9 2.81  18 2.81  15 2.81  19 2.81
                            13 2.81  17 2.81  20 2.81  30 2.83
  22  0.101  0.552  0.280-  16 2.73  19 2.74  31 2.75  18 2.76  25 2.78  23 2.78  27 2.80  30 2.83
                            24 2.84  29 2.84  37 2.92  38 3.02
  23  0.429  0.884  0.280-  19 2.72  14 2.73  20 2.74  27 2.76  32 2.78  31 2.78  22 2.78  26 2.81
                            24 2.81  28 2.82  29 2.87  35 2.87
  24  0.766  0.215  0.280-  15 2.71  14 2.73  18 2.74  28 2.76  25 2.77  32 2.78  23 2.81  26 2.82
                            22 2.84  30 2.85  36 2.98  38 3.01
  25  0.097  0.221  0.288-  33 2.70  38 2.71  34 2.76  24 2.77  22 2.78  29 2.81  28 2.81  26 2.85
                            27 2.86  16 2.87  15 2.88  13 2.90
  26  0.434  0.219  0.285-  33 2.75  29 2.76  36 2.77  35 2.80  23 2.81  30 2.81  27 2.81  24 2.82
                            17 2.82  14 2.82  13 2.84  25 2.85
  27  0.101  0.884  0.280-  19 2.72  13 2.73  21 2.75  23 2.76  22 2.80  30 2.81  26 2.81  28 2.85
                            35 2.86  25 2.86  34 2.88  37 2.89
  28  0.764  0.886  0.282-  32 2.66  39 2.76  24 2.76  15 2.76  20 2.77  21 2.78  29 2.81  25 2.81
                            30 2.81  23 2.82  27 2.85  34 2.86
  29  0.437  0.548  0.285-  31 2.70  39 2.72  33 2.75  30 2.75  26 2.76  17 2.80  28 2.81  25 2.81
                            20 2.84  22 2.84  16 2.85  23 2.87
  30  0.766  0.553  0.286-  39 2.71  29 2.75  26 2.81  27 2.81  28 2.81  21 2.83  22 2.83  18 2.84
                            37 2.85  17 2.85  24 2.85  36 2.88
  31  0.321  0.660  0.382-  29 2.70  22 2.75  23 2.78  32 2.79  37 2.79  39 2.81  33 2.81  35 2.82
                            38 2.83
  32  0.655  0.986  0.381-  28 2.66  39 2.69  23 2.78  34 2.78  24 2.78  31 2.79  38 2.84  35 2.87
                            36 2.88
  33  0.320  0.326  0.387-  38 2.69  25 2.70  36 2.72  29 2.75  26 2.75  34 2.80  35 2.80  31 2.81
                            39 2.86
  34  0.989  0.994  0.389-  38 2.69  37 2.75  25 2.76  39 2.77  32 2.78  35 2.78  33 2.80  28 2.86
                            27 2.88
  35  0.319  0.994  0.389-  36 2.72  37 2.72  34 2.78  33 2.80  26 2.80  31 2.82  27 2.86  23 2.87
                            32 2.87
  36  0.639  0.319  0.392-   1 2.11   2 2.61  35 2.72  33 2.72  26 2.77  39 2.87  30 2.88  32 2.88
                            24 2.98  37 2.99  38 3.03
  37  0.996  0.671  0.391-   2 2.70  35 2.72  34 2.75  31 2.79  39 2.84  30 2.85  27 2.89  22 2.92
                            36 2.99  38 2.99
  38  0.997  0.316  0.393-   2 2.03  34 2.69  33 2.69  25 2.71  31 2.83  32 2.84  37 2.99  24 3.01
                            22 3.02  36 3.03
  39  0.658  0.668  0.385-  32 2.69  30 2.71  29 2.72  28 2.76  34 2.77  31 2.81  37 2.84  33 2.86
                            36 2.87
 

IMPORTANT INFORMATION: All symmetrisations will be switched off!
NOSYMM: (Re-)initialisation of all symmetry stuff for point group C_1.

 
 
 KPOINTS: mesh auto                               

Automatic generation of k-mesh.
Space group operators:
 irot       det(A)        alpha          n_x          n_y          n_z        tau_x        tau_y        tau_z
    1     1.000000     0.000000     1.000000     0.000000     0.000000     0.000000     0.000000     0.000000
 
 Subroutine IBZKPT returns following result:
 ===========================================
 
 Found      4 irreducible k-points:
 
 Following reciprocal coordinates:
            Coordinates               Weight
  0.000000  0.000000  0.000000      1.000000
  0.500000  0.000000  0.000000      1.000000
 -0.000000  0.500000  0.000000      1.000000
  0.500000  0.500000  0.000000      1.000000
 
 Following cartesian coordinates:
            Coordinates               Weight
  0.000000  0.000000  0.000000      1.000000
  0.068522  0.000000  0.000000      1.000000
  0.034261  0.059342  0.000000      1.000000
  0.102783  0.059342  0.000000      1.000000
 


--------------------------------------------------------------------------------------------------------




 Dimension of arrays:
   k-points           NKPTS =      4   k-points in BZ     NKDIM =      4   number of bands    NBANDS=    228
   number of dos      NEDOS =    301   number of ions     NIONS =     39
   non local maximal  LDIM  =      6   non local SUM 2l+1 LMDIM =     18
   total plane-waves  NPLWV = 276480
   max r-space proj   IRMAX =   2756   max aug-charges    IRDMAX=  12646
   dimension x,y,z NGX =    48 NGY =   48 NGZ =  120
   dimension x,y,z NGXF=    96 NGYF=   96 NGZF=  240
   support grid    NGXF=    96 NGYF=   96 NGZF=  240
   ions per type =               1   2  36
   NGX,Y,Z   is equivalent  to a cutoff of   9.47,  9.47,  9.12 a.u.
   NGXF,Y,Z  is equivalent  to a cutoff of  18.94, 18.94, 18.24 a.u.

 SYSTEM =  metal                                   
 POSCAR =  C    O    Pt                            

 Startparameter for this run:
   NWRITE =      2    write-flag & timer
   PREC   = normal    normal or accurate (medium, high low for compatibility)
   ISTART =      0    job   : 0-new  1-cont  2-samecut
   ICHARG =      2    charge: 1-file 2-atom 10-const
   ISPIN  =      1    spin polarized calculation?
   LNONCOLLINEAR =      F non collinear calculations
   LSORBIT =      F    spin-orbit coupling
   INIWAV =      1    electr: 0-lowe 1-rand  2-diag
   LASPH  =      F    aspherical Exc in radial PAW
   METAGGA=      F    non-selfconsistent MetaGGA calc.

 Electronic Relaxation 1
   ENCUT  =  450.0 eV  33.07 Ry    5.75 a.u.  14.57 14.57 37.84*2*pi/ulx,y,z
   ENINI  =  450.0     initial cutoff
   ENAUG  =  644.9 eV  augmentation charge cutoff
   NELM   =     60;   NELMIN=  8; NELMDL= -5     # of ELM steps 
   EDIFF  = 0.1E-03   stopping-criterion for ELM
   LREAL  =      T    real-space projection
   NLSPLINE    = F    spline interpolate recip. space projectors
   LCOMPAT=      F    compatible to vasp.4.4
   GGA_COMPAT  = T    GGA compatible to vasp.4.4-vasp.4.6
   LMAXPAW     = -100 max onsite density
   LMAXMIX     =    2 max onsite mixed and CHGCAR
   VOSKOWN=      0    Vosko Wilk Nusair interpolation
   ROPT   =   -0.00050  -0.00050  -0.00050
 Ionic relaxation
   EDIFFG = -.5E-01   stopping-criterion for IOM
   NSW    =   5000    number of steps for IOM
   NBLOCK =      1;   KBLOCK =   5000    inner block; outer block 
   IBRION =      1    ionic relax: 0-MD 1-quasi-New 2-CG
   NFREE  =      0    steps in history (QN), initial steepest desc. (CG)
   ISIF   =      2    stress and relaxation
   IWAVPR =     11    prediction:  0-non 1-charg 2-wave 3-comb
   ISYM   =      0    0-nonsym 1-usesym 2-fastsym
   LCORR  =      T    Harris-Foulkes like correction to forces

   POTIM  = 0.2000    time-step for ionic-motion
   TEIN   =    0.0    initial temperature
   TEBEG  =    0.0;   TEEND  =   0.0 temperature during run
   SMASS  =  -3.00    Nose mass-parameter (am)
   estimated Nose-frequenzy (Omega)   =  0.10E-29 period in steps =****** mass=  -0.162E-26a.u.
   SCALEE = 1.0000    scale energy and forces
   NPACO  =    256;   APACO  = 16.0  distance and # of slots for P.C.
   PSTRESS=    0.0 pullay stress

  Mass of Ions in am
   POMASS =  12.01 16.00195.08
  Ionic Valenz
   ZVAL   =   4.00  6.00 10.00
  Atomic Wigner-Seitz radii
   RWIGS  =  -1.00 -1.00 -1.00
  virtual crystal weights 
   VCA    =   1.00  1.00  1.00
   NELECT =     376.0000    total number of electrons
   NUPDOWN=      -1.0000    fix difference up-down

 DOS related values:
   EMIN   =  10.00;   EMAX   =-10.00  energy-range for DOS
   EFERMI =   0.00
   ISMEAR =     1;   SIGMA  =   0.20  broadening in eV -4-tet -1-fermi 0-gaus

 Electronic relaxation 2 (details)
   IALGO  =     68    algorithm
   LDIAG  =      T    sub-space diagonalisation (order eigenvalues)
   LSUBROT=      F    optimize rotation matrix (better conditioning)
   TURBO    =      0    0=normal 1=particle mesh
   IRESTART =      0    0=no restart 2=restart with 2 vectors
   NREBOOT  =      0    no. of reboots
   NMIN     =      0    reboot dimension
   EREF     =   0.00    reference energy to select bands
   IMIX   =      4    mixing-type and parameters
     AMIX     =   0.40;   BMIX     =  1.00
     AMIX_MAG =   1.60;   BMIX_MAG =  1.00
     AMIN     =   0.10
     WC   =   100.;   INIMIX=   1;  MIXPRE=   1;  MAXMIX= -45

 Intra band minimization:
   WEIMIN = 0.0010     energy-eigenvalue tresh-hold
   EBREAK =  0.11E-06  absolut break condition
   DEPER  =   0.30     relativ break condition  

   TIME   =   0.40     timestep for ELM

  volume/ion in A,a.u.               =      34.49       232.77
  Fermi-wavevector in a.u.,A,eV,Ry     =   1.070385  2.022734 15.588510  1.145723
  Thomas-Fermi vector in A             =   2.206093
 
 Write flags
   LWAVE        =      F    write WAVECAR
   LDOWNSAMPLE  =      F    k-point downsampling of WAVECAR
   LCHARG       =      F    write CHGCAR
   LVTOT        =      F    write LOCPOT, total local potential
   LVHAR        =      F    write LOCPOT, Hartree potential only
   LELF         =      F    write electronic localiz. function (ELF)
   LORBIT       =      0    0 simple, 1 ext, 2 COOP (PROOUT), +10 PAW based schemes


 Dipole corrections
   LMONO  =      F    monopole corrections only (constant potential shift)
   LDIPOL =      F    correct potential (dipole corrections)
   IDIPOL =      0    1-x, 2-y, 3-z, 4-all directions 
   EPSILON=  1.0000000 bulk dielectric constant

 Exchange correlation treatment:
   GGA     =    --    GGA type
   LEXCH   =     8    internal setting for exchange type
   VOSKOWN=      0    Vosko Wilk Nusair interpolation
   LHFCALC =     F    Hartree Fock is set to
   LHFONE  =     F    Hartree Fock one center treatment
   AEXX    =    0.0000 exact exchange contribution

 Linear response parameters
   LEPSILON=     F    determine dielectric tensor
   LRPA    =     F    only Hartree local field effects (RPA)
   LNABLA  =     F    use nabla operator in PAW spheres
   LVEL    =     F    velocity operator in full k-point grid
   LINTERFAST=   F  fast interpolation
   KINTER  =     0    interpolate to denser k-point grid
   CSHIFT  =0.1000    complex shift for real part using Kramers Kronig
   OMEGAMAX=  -1.0    maximum frequency
   DEG_THRESHOLD= 0.2000000E-02 threshold for treating states as degnerate
   RTIME   =   -0.100 relaxation time in fs
  (WPLASMAI=    0.000 imaginary part of plasma frequency in eV, 0.658/RTIME)
   DFIELD  = 0.0000000 0.0000000 0.0000000 field for delta impulse in time
 
 Orbital magnetization related:
   ORBITALMAG=     F  switch on orbital magnetization
   LCHIMAG   =     F  perturbation theory with respect to B field
   DQ        =  0.001000  dq finite difference perturbation B field
   LLRAUG    =     F  two centre corrections for induced B field



--------------------------------------------------------------------------------------------------------


 quasi-Newton-method for relaxation of ions
   using selective dynamics as specified on POSCAR
 charge density and potential will be updated during run
 non-spin polarized calculation
 RMM-DIIS sequential band-by-band and
  variant of blocked Davidson during initial phase
 perform sub-space diagonalisation
    before iterative eigenvector-optimisation
 modified Broyden-mixing scheme, WC =      100.0
 initial mixing is a Kerker type mixing with AMIX =  0.4000 and BMIX =      1.0000
 Hartree-type preconditioning will be used
 using additional bands           40
 real space projection scheme for non local part
 use partial core corrections
 calculate Harris-corrections to forces 
   (improved forces if not selfconsistent)
 use gradient corrections 
 use of overlap-Matrix (Vanderbilt PP)
 Methfessel and Paxton  Order N= 1 SIGMA  =   0.20


--------------------------------------------------------------------------------------------------------


  energy-cutoff  :      450.00
  volume of cell :     1345.22
      direct lattice vectors                 reciprocal lattice vectors
     7.296955120 -4.212899000  0.000000000     0.137043463  0.000000000  0.000000000
     0.000000000  8.425798000  0.000000000     0.068521732  0.118683121  0.000000000
     0.000000000  0.000000000 21.879635000     0.000000000  0.000000000  0.045704602

  length of vectors
     8.425798004  8.425798000 21.879635000     0.137043463  0.137043463  0.045704602


 
 k-points in units of 2pi/SCALE and weight: mesh auto                               
   0.00000000  0.00000000  0.00000000       0.250
   0.06852173  0.00000000  0.00000000       0.250
   0.03426087  0.05934156  0.00000000       0.250
   0.10278260  0.05934156  0.00000000       0.250
 
 k-points in reciprocal lattice and weights: mesh auto                               
   0.00000000  0.00000000  0.00000000       0.250
   0.50000000  0.00000000  0.00000000       0.250
  -0.00000000  0.50000000  0.00000000       0.250
   0.50000000  0.50000000  0.00000000       0.250
 
 position of ions in fractional coordinates (direct lattice) 
   0.70026169  0.43871563  0.47972811
   0.90357691  0.38863906  0.46815856
   0.67212515  0.46557151  0.52961664
   0.98675500  0.32859100  0.07437600
   0.32008800  0.32859100  0.07437600
   0.65342200  0.32859100  0.07437600
   0.98675500  0.66192500  0.07437600
   0.32008800  0.66192500  0.07437600
   0.65342200  0.66192500  0.07437600
   0.32008800  0.99525800  0.07437600
   0.65342200  0.99525800  0.07437600
   0.98675500  0.99525800  0.07437600
   0.20897700  0.10636900  0.17918600
   0.54231100  0.10636900  0.17918600
   0.87564400  0.10636900  0.17918600
   0.20897700  0.43970300  0.17918600
   0.54231100  0.43970300  0.17918600
   0.87564400  0.43970300  0.17918600
   0.20897700  0.77303600  0.17918600
   0.54231100  0.77303600  0.17918600
   0.87564400  0.77303600  0.17918600
   0.10142430  0.55213755  0.28017704
   0.42890820  0.88389319  0.27959164
   0.76551930  0.21450292  0.27955534
   0.09650007  0.22089466  0.28817514
   0.43380983  0.21899404  0.28497411
   0.10120087  0.88444142  0.27989225
   0.76431876  0.88620717  0.28189309
   0.43657764  0.54789261  0.28516597
   0.76618329  0.55327924  0.28583034
   0.32050800  0.66011640  0.38222518
   0.65548553  0.98602144  0.38145389
   0.32008865  0.32638368  0.38667077
   0.98874362  0.99379701  0.38898172
   0.31870283  0.99357661  0.38856985
   0.63864474  0.31855998  0.39179206
   0.99590896  0.67091612  0.39089833
   0.99678354  0.31632015  0.39346792
   0.65797870  0.66799267  0.38488049
 
 position of ions in cartesian coordinates  (Angst):
   5.10977813  0.74639749 10.49627600
   6.59336017 -0.53208408 10.24313838
   4.90446703  1.09121616 11.58781887
   7.20030695 -1.38845776  1.62731973
   2.33566777  1.42014298  1.62731973
   4.76799101  0.01584050  1.62731973
   7.20030695  1.42014719  1.62731973
   2.33566777  4.22874793  1.62731973
   4.76799101  2.82444545  1.62731973
   2.33566777  7.03734445  1.62731973
   4.76799101  5.63304198  1.62731973
   7.20030695  4.22874371  1.62731973
   1.52489579  0.01584471  3.92052428
   3.95721903 -1.38845776  3.92052428
   6.38953497 -2.79275602  3.92052428
   1.52489579  2.82444966  3.92052428
   3.95721903  1.42014719  3.92052428
   6.38953497  0.01584893  3.92052428
   1.52489579  5.63304619  3.92052428
   3.95721903  4.22874371  3.92052428
   6.38953497  2.82444545  3.92052428
   0.74008858  4.22490909  6.13017143
   3.12972390  5.64055853  6.11736297
   5.58596001 -1.41769721  6.11656872
   0.70415667  1.45466875  6.30516693
   3.16549089  0.01760254  6.23512953
   0.73845822  7.02577572  6.12394027
   5.57719967  4.24700490  6.16771793
   3.18568743  2.77717498  6.23932724
   5.59080507  1.43396629  6.25386356
   2.33873249  4.21173961  8.36294738
   4.78304849  5.54652310  8.34607180
   2.33567251  1.40154178  8.46021541
   7.21481784  4.20805586  8.51077810
   2.32556027  7.02901297  8.50176650
   4.66016199 -0.00642370  8.57226718
   7.26710302  1.45733979  8.55271275
   7.27348479 -1.53409875  8.60893442
   4.80124102  2.85637349  8.42104465
 


--------------------------------------------------------------------------------------------------------


 k-point  1 :   0.0000 0.0000 0.0000  plane waves:   29241
 k-point  2 :   0.5000 0.0000 0.0000  plane waves:   29108
 k-point  3 :  -0.0000 0.5000 0.0000  plane waves:   29108
 k-point  4 :   0.5000 0.5000 0.0000  plane waves:   29108

 maximum and minimum number of plane-waves per node :     14624    14548

 maximum number of plane-waves:     29241
 maximum index in each direction: 
   IXMAX=   14   IYMAX=   14   IZMAX=   37
   IXMIN=  -15   IYMIN=  -15   IZMIN=  -37


 real space projection operators:
  total allocation   :      13564.58 KBytes
  max/ min on nodes  :       6788.23       6776.34


 parallel 3D FFT for wavefunctions:
    minimum data exchange during FFTs selected (reduces bandwidth)
 parallel 3D FFT for charge:
    minimum data exchange during FFTs selected (reduces bandwidth)


 total amount of memory used by VASP MPI-rank0   131957. kBytes
=======================================================================

   base      :      30000. kBytes
   nonlr-proj:      10149. kBytes
   fftplans  :      13556. kBytes
   grid      :      23353. kBytes
   one-center:        311. kBytes
   wavefun   :      54588. kBytes
 
     INWAV:  cpu time    0.0001: real time    0.0001
 Broyden mixing: mesh for mixing (old mesh)
   NGX = 29   NGY = 29   NGZ = 75
  (NGX  = 96   NGY  = 96   NGZ  =240)
  gives a total of  63075 points

 initial charge density was supplied:
 charge density of overlapping atoms calculated
 number of electron     376.0000000 magnetization 
 keeping initial charge density in first step


--------------------------------------------------------------------------------------------------------


 Maximum index for non-local projection operator         1319
 Maximum index for augmentation-charges         1558 (set IRDMAX)


--------------------------------------------------------------------------------------------------------


 First call to EWALD:  gamma=   0.161
 Maximum number of real-space cells 4x 4x 2
 Maximum number of reciprocal cells 2x 2x 5

    FEWALD:  cpu time    0.0025: real time    0.0025


--------------------------------------- Iteration      1(   1)  ---------------------------------------


    POTLOK:  cpu time    0.2130: real time    0.2874
    SETDIJ:  cpu time    0.0115: real time    0.0116
     EDDAV:  cpu time   15.1859: real time   15.4508
       DOS:  cpu time    0.0011: real time    0.0011
    --------------------------------------------
      LOOP:  cpu time   15.4115: real time   15.7509

 eigenvalue-minimisations  :  1824
 total energy-change (2. order) : 0.2419265E+04  (-0.1595014E+05)
 number of electron     376.0000000 magnetization 
 augmentation part      376.0000000 magnetization 

 Free energy of the ion-electron system (eV)
  ---------------------------------------------------
  alpha Z        PSCENC =       975.10247152
  Ewald energy   TEWEN  =     91443.91268817
  -Hartree energ DENC   =   -120534.41955254
  -exchange      EXHF   =         0.00000000
  -V(xc)+E(xc)   XCENC  =       189.64411251
  PAW double counting   =     24789.08602224   -23775.73976456
  entropy T*S    EENTRO =        -0.00330243
  eigenvalues    EBANDS =      2071.78777739
  atomic energy  EATOM  =     27259.89416086
  Solvation  Ediel_sol  =         0.00000000
  ---------------------------------------------------
  free energy    TOTEN  =      2419.26461316 eV

  energy without entropy =     2419.26791559  energy(sigma->0) =     2419.26571397


--------------------------------------------------------------------------------------------------------




--------------------------------------- Iteration      1(   2)  ---------------------------------------


     EDDAV:  cpu time   17.5804: real time   17.7107
       DOS:  cpu time    0.0010: real time    0.0010
    --------------------------------------------
      LOOP:  cpu time   17.5814: real time   17.7117

 eigenvalue-minimisations  :  2112
 total energy-change (2. order) :-0.2482189E+04  (-0.2303141E+04)
 number of electron     376.0000000 magnetization 
 augmentation part      376.0000000 magnetization 

 Free energy of the ion-electron system (eV)
  ---------------------------------------------------
  alpha Z        PSCENC =       975.10247152
  Ewald energy   TEWEN  =     91443.91268817
  -Hartree energ DENC   =   -120534.41955254
  -exchange      EXHF   =         0.00000000
  -V(xc)+E(xc)   XCENC  =       189.64411251
  PAW double counting   =     24789.08602224   -23775.73976456
  entropy T*S    EENTRO =        -0.02229292
  eigenvalues    EBANDS =      -410.38242780
  atomic energy  EATOM  =     27259.89416086
  Solvation  Ediel_sol  =         0.00000000
  ---------------------------------------------------
  free energy    TOTEN  =       -62.92458252 eV

  energy without entropy =      -62.90228960  energy(sigma->0) =      -62.91715155


--------------------------------------------------------------------------------------------------------




--------------------------------------- Iteration      1(   3)  ---------------------------------------


     EDDAV:  cpu time   18.1810: real time   18.3127
       DOS:  cpu time    0.0012: real time    0.0012
    --------------------------------------------
      LOOP:  cpu time   18.1821: real time   18.3139

 eigenvalue-minimisations  :  2184
 total energy-change (2. order) :-0.1774298E+03  (-0.1612649E+03)
 number of electron     376.0000000 magnetization 
 augmentation part      376.0000000 magnetization 

 Free energy of the ion-electron system (eV)
  ---------------------------------------------------
  alpha Z        PSCENC =       975.10247152
  Ewald energy   TEWEN  =     91443.91268817
  -Hartree energ DENC   =   -120534.41955254
  -exchange      EXHF   =         0.00000000
  -V(xc)+E(xc)   XCENC  =       189.64411251
  PAW double counting   =     24789.08602224   -23775.73976456
  entropy T*S    EENTRO =         0.00271994
  eigenvalues    EBANDS =      -587.83719935
  atomic energy  EATOM  =     27259.89416086
  Solvation  Ediel_sol  =         0.00000000
  ---------------------------------------------------
  free energy    TOTEN  =      -240.35434120 eV

  energy without entropy =     -240.35706114  energy(sigma->0) =     -240.35524785


--------------------------------------------------------------------------------------------------------




--------------------------------------- Iteration      1(   4)  ---------------------------------------


     EDDAV:  cpu time   18.4090: real time   18.5456
       DOS:  cpu time    0.0011: real time    0.0011
    --------------------------------------------
      LOOP:  cpu time   18.4102: real time   18.5467

 eigenvalue-minimisations  :  2288
 total energy-change (2. order) :-0.7597664E+01  (-0.7301646E+01)
 number of electron     376.0000000 magnetization 
 augmentation part      376.0000000 magnetization 

 Free energy of the ion-electron system (eV)
  ---------------------------------------------------
  alpha Z        PSCENC =       975.10247152
  Ewald energy   TEWEN  =     91443.91268817
  -Hartree energ DENC   =   -120534.41955254
  -exchange      EXHF   =         0.00000000
  -V(xc)+E(xc)   XCENC  =       189.64411251
  PAW double counting   =     24789.08602224   -23775.73976456
  entropy T*S    EENTRO =         0.00614052
  eigenvalues    EBANDS =      -595.43828428
  atomic energy  EATOM  =     27259.89416086
  Solvation  Ediel_sol  =         0.00000000
  ---------------------------------------------------
  free energy    TOTEN  =      -247.95200556 eV

  energy without entropy =     -247.95814608  energy(sigma->0) =     -247.95405240


--------------------------------------------------------------------------------------------------------




--------------------------------------- Iteration      1(   5)  ---------------------------------------


     EDDAV:  cpu time   19.1428: real time   19.2865
       DOS:  cpu time    0.0011: real time    0.0011
    CHARGE:  cpu time    0.6506: real time    0.6553
    MIXING:  cpu time    0.0120: real time    0.0121
    --------------------------------------------
      LOOP:  cpu time   19.8066: real time   19.9551

 eigenvalue-minimisations  :  2320
 total energy-change (2. order) :-0.2295130E+00  (-0.2277000E+00)
 number of electron     376.0000042 magnetization 
 augmentation part      105.8203923 magnetization 

 Broyden mixing:
  rms(total) = 0.27211E+01    rms(broyden)= 0.27207E+01
  rms(prec ) = 0.30353E+01
  weight for this iteration     100.00

 Free energy of the ion-electron system (eV)
  ---------------------------------------------------
  alpha Z        PSCENC =       975.10247152
  Ewald energy   TEWEN  =     91443.91268817
  -Hartree energ DENC   =   -120534.41955254
  -exchange      EXHF   =         0.00000000
  -V(xc)+E(xc)   XCENC  =       189.64411251
  PAW double counting   =     24789.08602224   -23775.73976456
  entropy T*S    EENTRO =         0.00605562
  eigenvalues    EBANDS =      -595.66771235
  atomic energy  EATOM  =     27259.89416086
  Solvation  Ediel_sol  =         0.00000000
  ---------------------------------------------------
  free energy    TOTEN  =      -248.18151852 eV

  energy without entropy =     -248.18757415  energy(sigma->0) =     -248.18353706


--------------------------------------------------------------------------------------------------------




--------------------------------------- Iteration      1(   6)  ---------------------------------------


    POTLOK:  cpu time    0.2101: real time    0.2118
    SETDIJ:  cpu time    0.0127: real time    0.0128
    EDDIAG:  cpu time    2.4356: real time    2.4528
  RMM-DIIS:  cpu time    8.9392: real time    9.0090
    ORTHCH:  cpu time    0.3306: real time    0.3328
       DOS:  cpu time    0.0012: real time    0.0012
    CHARGE:  cpu time    0.7795: real time    0.7856
    MIXING:  cpu time    0.0084: real time    0.0084
    --------------------------------------------
      LOOP:  cpu time   12.7172: real time   12.8145

 eigenvalue-minimisations  :  1833
 total energy-change (2. order) : 0.1753307E+01  (-0.5321068E+01)
 number of electron     376.0000038 magnetization 
 augmentation part      112.9124380 magnetization 

 Broyden mixing:
  rms(total) = 0.29800E+01    rms(broyden)= 0.29790E+01
  rms(prec ) = 0.39666E+01
  weight for this iteration     100.00

 eigenvalues of (default mixing * dielectric matrix)
  average eigenvalue GAMMA=   0.4825
  0.4825

 Free energy of the ion-electron system (eV)
  ---------------------------------------------------
  alpha Z        PSCENC =       975.10247152
  Ewald energy   TEWEN  =     91443.91268817
  -Hartree energ DENC   =   -120066.34767361
  -exchange      EXHF   =         0.00000000
  -V(xc)+E(xc)   XCENC  =       182.51704620
  PAW double counting   =     26730.75215310   -25771.07866382
  entropy T*S    EENTRO =        -0.17080447
  eigenvalues    EBANDS =     -1001.00958972
  atomic energy  EATOM  =     27259.89416086
  Solvation  Ediel_sol  =         0.00000000
  ---------------------------------------------------
  free energy    TOTEN  =      -246.42821176 eV

  energy without entropy =     -246.25740729  energy(sigma->0) =     -246.37127694


--------------------------------------------------------------------------------------------------------




--------------------------------------- Iteration      1(   7)  ---------------------------------------


    POTLOK:  cpu time    0.2070: real time    0.2086
    SETDIJ:  cpu time    0.0108: real time    0.0108
    EDDIAG:  cpu time    2.4794: real time    2.5013
  RMM-DIIS:  cpu time    8.7321: real time    8.8001
    ORTHCH:  cpu time    0.3087: real time    0.3108
       DOS:  cpu time    0.0012: real time    0.0012
    CHARGE:  cpu time    0.6567: real time    0.6616
    MIXING:  cpu time    0.0066: real time    0.0067
    --------------------------------------------
      LOOP:  cpu time   12.4025: real time   12.5012

 eigenvalue-minimisations  :  1830
 total energy-change (2. order) : 0.6030523E+01  (-0.3232972E+01)
 number of electron     376.0000056 magnetization 
 augmentation part      111.3136850 magnetization 

 Broyden mixing:
  rms(total) = 0.19352E+01    rms(broyden)= 0.19343E+01
  rms(prec ) = 0.30312E+01
  weight for this iteration     100.00

 eigenvalues of (default mixing * dielectric matrix)
  average eigenvalue GAMMA=   0.6254
  0.9954  0.2554

 Free energy of the ion-electron system (eV)
  ---------------------------------------------------
  alpha Z        PSCENC =       975.10247152
  Ewald energy   TEWEN  =     91443.91268817
  -Hartree energ DENC   =   -120267.17828474
  -exchange      EXHF   =         0.00000000
  -V(xc)+E(xc)   XCENC  =       180.17926091
  PAW double counting   =     27376.96284960   -26424.59552332
  entropy T*S    EENTRO =        -0.08565074
  eigenvalues    EBANDS =      -784.58966137
  atomic energy  EATOM  =     27259.89416086
  Solvation  Ediel_sol  =         0.00000000
  ---------------------------------------------------
  free energy    TOTEN  =      -240.39768910 eV

  energy without entropy =     -240.31203836  energy(sigma->0) =     -240.36913885


--------------------------------------------------------------------------------------------------------




--------------------------------------- Iteration      1(   8)  ---------------------------------------


    POTLOK:  cpu time    0.1873: real time    0.1886
    SETDIJ:  cpu time    0.0113: real time    0.0114
    EDDIAG:  cpu time    2.4901: real time    2.5079
  RMM-DIIS:  cpu time    8.0344: real time    8.1005
    ORTHCH:  cpu time    0.2960: real time    0.2989
       DOS:  cpu time    0.0011: real time    0.0011
    CHARGE:  cpu time    0.5751: real time    0.5804
    MIXING:  cpu time    0.0058: real time    0.0058
    --------------------------------------------
      LOOP:  cpu time   11.6011: real time   11.6947

 eigenvalue-minimisations  :  1828
 total energy-change (2. order) :-0.5025022E+01  (-0.9052127E+00)
 number of electron     376.0000045 magnetization 
 augmentation part      112.1306399 magnetization 

 Broyden mixing:
  rms(total) = 0.23597E+01    rms(broyden)= 0.23596E+01
  rms(prec ) = 0.44360E+01
  weight for this iteration     100.00

 eigenvalues of (default mixing * dielectric matrix)
  average eigenvalue GAMMA=   0.5538
  1.2234  0.2884  0.1496

 Free energy of the ion-electron system (eV)
  ---------------------------------------------------
  alpha Z        PSCENC =       975.10247152
  Ewald energy   TEWEN  =     91443.91268817
  -Hartree energ DENC   =   -120198.61780140
  -exchange      EXHF   =         0.00000000
  -V(xc)+E(xc)   XCENC  =       179.01347212
  PAW double counting   =     28114.24988567   -27173.63645945
  entropy T*S    EENTRO =        -0.12997569
  eigenvalues    EBANDS =      -845.21115268
  atomic energy  EATOM  =     27259.89416086
  Solvation  Ediel_sol  =         0.00000000
  ---------------------------------------------------
  free energy    TOTEN  =      -245.42271087 eV

  energy without entropy =     -245.29273518  energy(sigma->0) =     -245.37938564


--------------------------------------------------------------------------------------------------------




--------------------------------------- Iteration      1(   9)  ---------------------------------------


    POTLOK:  cpu time    0.1788: real time    0.1807
    SETDIJ:  cpu time    0.0094: real time    0.0095
    EDDIAG:  cpu time    2.2748: real time    2.2969
  RMM-DIIS:  cpu time    7.8108: real time    7.8666
    ORTHCH:  cpu time    0.2968: real time    0.2987
       DOS:  cpu time    0.0011: real time    0.0011
    CHARGE:  cpu time    0.5808: real time    0.5852
    MIXING:  cpu time    0.0060: real time    0.0060
    --------------------------------------------
      LOOP:  cpu time   11.1586: real time   11.2447

 eigenvalue-minimisations  :  1831
 total energy-change (2. order) : 0.1393125E+02  (-0.4194085E+00)
 number of electron     376.0000046 magnetization 
 augmentation part      112.7165457 magnetization 

 Broyden mixing:
  rms(total) = 0.85211E+00    rms(broyden)= 0.85174E+00
  rms(prec ) = 0.12197E+01
  weight for this iteration     100.00

 eigenvalues of (default mixing * dielectric matrix)
  average eigenvalue GAMMA=   0.5267
  1.3127  0.3344  0.3344  0.1251

 Free energy of the ion-electron system (eV)
  ---------------------------------------------------
  alpha Z        PSCENC =       975.10247152
  Ewald energy   TEWEN  =     91443.91268817
  -Hartree energ DENC   =   -120162.39385469
  -exchange      EXHF   =         0.00000000
  -V(xc)+E(xc)   XCENC  =       178.43842153
  PAW double counting   =     28752.07310704   -27821.42875422
  entropy T*S    EENTRO =        -0.03480081
  eigenvalues    EBANDS =      -857.05489921
  atomic energy  EATOM  =     27259.89416086
  Solvation  Ediel_sol  =         0.00000000
  ---------------------------------------------------
  free energy    TOTEN  =      -231.49145979 eV

  energy without entropy =     -231.45665898  energy(sigma->0) =     -231.47985952


--------------------------------------------------------------------------------------------------------




--------------------------------------- Iteration      1(  10)  ---------------------------------------


    POTLOK:  cpu time    0.1694: real time    0.1704
    SETDIJ:  cpu time    0.0102: real time    0.0103
    EDDIAG:  cpu time    1.7697: real time    1.7814
  RMM-DIIS:  cpu time    8.3757: real time    8.4430
    ORTHCH:  cpu time    0.3231: real time    0.3259
       DOS:  cpu time    0.0012: real time    0.0012
    CHARGE:  cpu time    0.7929: real time    0.8012
    MIXING:  cpu time    0.0080: real time    0.0081
    --------------------------------------------
      LOOP:  cpu time   11.4502: real time   11.5416

 eigenvalue-minimisations  :  1830
 total energy-change (2. order) : 0.1086805E+01  (-0.1274567E+00)
 number of electron     376.0000046 magnetization 
 augmentation part      112.7762419 magnetization 

 Broyden mixing:
  rms(total) = 0.50734E+00    rms(broyden)= 0.50729E+00
  rms(prec ) = 0.67804E+00
  weight for this iteration     100.00

 eigenvalues of (default mixing * dielectric matrix)
  average eigenvalue GAMMA=   0.5626
  1.4201  0.6120  0.4009  0.2518  0.1284

 Free energy of the ion-electron system (eV)
  ---------------------------------------------------
  alpha Z        PSCENC =       975.10247152
  Ewald energy   TEWEN  =     91443.91268817
  -Hartree energ DENC   =   -120159.22849426
  -exchange      EXHF   =         0.00000000
  -V(xc)+E(xc)   XCENC  =       178.35775601
  PAW double counting   =     29042.49908335   -28115.82949272
  entropy T*S    EENTRO =        -0.01246282
  eigenvalues    EBANDS =      -855.10036492
  atomic energy  EATOM  =     27259.89416086
  Solvation  Ediel_sol  =         0.00000000
  ---------------------------------------------------
  free energy    TOTEN  =      -230.40465480 eV

  energy without entropy =     -230.39219198  energy(sigma->0) =     -230.40050053


--------------------------------------------------------------------------------------------------------




--------------------------------------- Iteration      1(  11)  ---------------------------------------


    POTLOK:  cpu time    0.2060: real time    0.2081
    SETDIJ:  cpu time    0.0116: real time    0.0120
    EDDIAG:  cpu time    2.5168: real time    2.5415
  RMM-DIIS:  cpu time    8.6501: real time    8.7113
    ORTHCH:  cpu time    0.3291: real time    0.3311
       DOS:  cpu time    0.0012: real time    0.0012
    CHARGE:  cpu time    0.7576: real time    0.7628
    MIXING:  cpu time    0.0072: real time    0.0073
    --------------------------------------------
      LOOP:  cpu time   12.4796: real time   12.5752

 eigenvalue-minimisations  :  1830
 total energy-change (2. order) : 0.3464176E+00  (-0.4048981E-01)
 number of electron     376.0000045 magnetization 
 augmentation part      112.9252268 magnetization 

 Broyden mixing:
  rms(total) = 0.32543E+00    rms(broyden)= 0.32515E+00
  rms(prec ) = 0.41560E+00
  weight for this iteration     100.00

 eigenvalues of (default mixing * dielectric matrix)
  average eigenvalue GAMMA=   0.5787
  1.5335  0.8399  0.3720  0.3720  0.1272  0.2275

 Free energy of the ion-electron system (eV)
  ---------------------------------------------------
  alpha Z        PSCENC =       975.10247152
  Ewald energy   TEWEN  =     91443.91268817
  -Hartree energ DENC   =   -120149.80610551
  -exchange      EXHF   =         0.00000000
  -V(xc)+E(xc)   XCENC  =       178.36722584
  PAW double counting   =     29373.01118438   -28450.52919552
  entropy T*S    EENTRO =        -0.03436867
  eigenvalues    EBANDS =      -859.97629828
  atomic energy  EATOM  =     27259.89416086
  Solvation  Ediel_sol  =         0.00000000
  ---------------------------------------------------
  free energy    TOTEN  =      -230.05823720 eV

  energy without entropy =     -230.02386853  energy(sigma->0) =     -230.04678098


--------------------------------------------------------------------------------------------------------




--------------------------------------- Iteration      1(  12)  ---------------------------------------


    POTLOK:  cpu time    0.2018: real time    0.2033
    SETDIJ:  cpu time    0.0101: real time    0.0102
    EDDIAG:  cpu time    2.4276: real time    2.4442
  RMM-DIIS:  cpu time    8.4497: real time    8.5138
    ORTHCH:  cpu time    0.2606: real time    0.2623
       DOS:  cpu time    0.0011: real time    0.0011
    CHARGE:  cpu time    0.4932: real time    0.4965
    MIXING:  cpu time    0.0064: real time    0.0064
    --------------------------------------------
      LOOP:  cpu time   11.8504: real time   11.9378

 eigenvalue-minimisations  :  1843
 total energy-change (2. order) : 0.1389713E+00  (-0.1655207E-01)
 number of electron     376.0000044 magnetization 
 augmentation part      112.9658613 magnetization 

 Broyden mixing:
  rms(total) = 0.21051E+00    rms(broyden)= 0.21048E+00
  rms(prec ) = 0.27499E+00
  weight for this iteration     100.00

 eigenvalues of (default mixing * dielectric matrix)
  average eigenvalue GAMMA=   0.6690
  1.8389  1.0462  0.7067  0.4500  0.1276  0.2388  0.2745

 Free energy of the ion-electron system (eV)
  ---------------------------------------------------
  alpha Z        PSCENC =       975.10247152
  Ewald energy   TEWEN  =     91443.91268817
  -Hartree energ DENC   =   -120141.42549842
  -exchange      EXHF   =         0.00000000
  -V(xc)+E(xc)   XCENC  =       178.33020521
  PAW double counting   =     29589.26153538   -28669.37652115
  entropy T*S    EENTRO =        -0.01729004
  eigenvalues    EBANDS =      -865.60101743
  atomic energy  EATOM  =     27259.89416086
  Solvation  Ediel_sol  =         0.00000000
  ---------------------------------------------------
  free energy    TOTEN  =      -229.91926589 eV

  energy without entropy =     -229.90197585  energy(sigma->0) =     -229.91350254


--------------------------------------------------------------------------------------------------------




--------------------------------------- Iteration      1(  13)  ---------------------------------------


    POTLOK:  cpu time    0.1672: real time    0.1685
    SETDIJ:  cpu time    0.0099: real time    0.0099
    EDDIAG:  cpu time    2.0157: real time    2.0303
  RMM-DIIS:  cpu time    6.9514: real time    7.0012
    ORTHCH:  cpu time    0.3371: real time    0.3392
       DOS:  cpu time    0.0012: real time    0.0012
    CHARGE:  cpu time    0.9318: real time    0.9382
    MIXING:  cpu time    0.0084: real time    0.0085
    --------------------------------------------
      LOOP:  cpu time   10.4226: real time   10.4970

 eigenvalue-minimisations  :  1830
 total energy-change (2. order) : 0.1017438E-01  (-0.1229555E-01)
 number of electron     376.0000044 magnetization 
 augmentation part      112.9560302 magnetization 

 Broyden mixing:
  rms(total) = 0.18079E+00    rms(broyden)= 0.18077E+00
  rms(prec ) = 0.22440E+00
  weight for this iteration     100.00

 eigenvalues of (default mixing * dielectric matrix)
  average eigenvalue GAMMA=   0.6946
  2.0527  1.0424  1.0424  0.4007  0.4007  0.1276  0.2633  0.2272

 Free energy of the ion-electron system (eV)
  ---------------------------------------------------
  alpha Z        PSCENC =       975.10247152
  Ewald energy   TEWEN  =     91443.91268817
  -Hartree energ DENC   =   -120143.08972359
  -exchange      EXHF   =         0.00000000
  -V(xc)+E(xc)   XCENC  =       178.21766251
  PAW double counting   =     29872.00036993   -28955.46696383
  entropy T*S    EENTRO =        -0.00724611
  eigenvalues    EBANDS =      -860.47251098
  atomic energy  EATOM  =     27259.89416086
  Solvation  Ediel_sol  =         0.00000000
  ---------------------------------------------------
  free energy    TOTEN  =      -229.90909151 eV

  energy without entropy =     -229.90184541  energy(sigma->0) =     -229.90667614


--------------------------------------------------------------------------------------------------------




--------------------------------------- Iteration      1(  14)  ---------------------------------------


    POTLOK:  cpu time    0.1995: real time    0.2010
    SETDIJ:  cpu time    0.0112: real time    0.0113
    EDDIAG:  cpu time    2.2585: real time    2.2733
  RMM-DIIS:  cpu time    7.3976: real time    7.4465
    ORTHCH:  cpu time    0.2934: real time    0.2952
       DOS:  cpu time    0.0012: real time    0.0012
    CHARGE:  cpu time    0.7165: real time    0.7215
    MIXING:  cpu time    0.0066: real time    0.0067
    --------------------------------------------
      LOOP:  cpu time   10.8845: real time   10.9567

 eigenvalue-minimisations  :  1832
 total energy-change (2. order) : 0.4100046E-01  (-0.8178717E-02)
 number of electron     376.0000045 magnetization 
 augmentation part      112.9414112 magnetization 

 Broyden mixing:
  rms(total) = 0.86816E-01    rms(broyden)= 0.86798E-01
  rms(prec ) = 0.11212E+00
  weight for this iteration     100.00

 eigenvalues of (default mixing * dielectric matrix)
  average eigenvalue GAMMA=   0.7377
  2.4364  1.2721  0.9494  0.6214  0.4383  0.1276  0.3139  0.2543  0.2259

 Free energy of the ion-electron system (eV)
  ---------------------------------------------------
  alpha Z        PSCENC =       975.10247152
  Ewald energy   TEWEN  =     91443.91268817
  -Hartree energ DENC   =   -120146.85701908
  -exchange      EXHF   =         0.00000000
  -V(xc)+E(xc)   XCENC  =       178.16347169
  PAW double counting   =     30012.45648017   -29097.53314565
  entropy T*S    EENTRO =        -0.00705515
  eigenvalues    EBANDS =      -855.00014360
  atomic energy  EATOM  =     27259.89416086
  Solvation  Ediel_sol  =         0.00000000
  ---------------------------------------------------
  free energy    TOTEN  =      -229.86809106 eV

  energy without entropy =     -229.86103591  energy(sigma->0) =     -229.86573934


--------------------------------------------------------------------------------------------------------




--------------------------------------- Iteration      1(  15)  ---------------------------------------


    POTLOK:  cpu time    0.1871: real time    0.1885
    SETDIJ:  cpu time    0.0106: real time    0.0107
    EDDIAG:  cpu time    2.1640: real time    2.1785
  RMM-DIIS:  cpu time    7.0873: real time    7.1315
    ORTHCH:  cpu time    0.2945: real time    0.2962
       DOS:  cpu time    0.0012: real time    0.0012
    CHARGE:  cpu time    0.6438: real time    0.6479
    MIXING:  cpu time    0.0068: real time    0.0068
    --------------------------------------------
      LOOP:  cpu time   10.3953: real time   10.4612

 eigenvalue-minimisations  :  1830
 total energy-change (2. order) : 0.5626279E-02  (-0.3175875E-02)
 number of electron     376.0000045 magnetization 
 augmentation part      112.9465240 magnetization 

 Broyden mixing:
  rms(total) = 0.65476E-01    rms(broyden)= 0.65461E-01
  rms(prec ) = 0.79885E-01
  weight for this iteration     100.00

 eigenvalues of (default mixing * dielectric matrix)
  average eigenvalue GAMMA=   0.7108
  2.5059  1.2714  0.8346  0.8024  0.4049  0.4049  0.1276  0.2804  0.2514  0.2250

 Free energy of the ion-electron system (eV)
  ---------------------------------------------------
  alpha Z        PSCENC =       975.10247152
  Ewald energy   TEWEN  =     91443.91268817
  -Hartree energ DENC   =   -120146.22785187
  -exchange      EXHF   =         0.00000000
  -V(xc)+E(xc)   XCENC  =       178.15172425
  PAW double counting   =     30111.41001552   -29197.55913642
  entropy T*S    EENTRO =        -0.00780660
  eigenvalues    EBANDS =      -854.53873021
  atomic energy  EATOM  =     27259.89416086
  Solvation  Ediel_sol  =         0.00000000
  ---------------------------------------------------
  free energy    TOTEN  =      -229.86246478 eV

  energy without entropy =     -229.85465817  energy(sigma->0) =     -229.85986258


--------------------------------------------------------------------------------------------------------




--------------------------------------- Iteration      1(  16)  ---------------------------------------


    POTLOK:  cpu time    0.1504: real time    0.1514
    SETDIJ:  cpu time    0.0108: real time    0.0108
    EDDIAG:  cpu time    2.1213: real time    2.1365
  RMM-DIIS:  cpu time    7.1002: real time    7.1537
    ORTHCH:  cpu time    0.2796: real time    0.2815
       DOS:  cpu time    0.0014: real time    0.0014
    CHARGE:  cpu time    0.6998: real time    0.7047
    MIXING:  cpu time    0.0083: real time    0.0084
    --------------------------------------------
      LOOP:  cpu time   10.3719: real time   10.4485

 eigenvalue-minimisations  :  1830
 total energy-change (2. order) : 0.6330615E-02  (-0.8923087E-03)
 number of electron     376.0000045 magnetization 
 augmentation part      112.9493977 magnetization 

 Broyden mixing:
  rms(total) = 0.27209E-01    rms(broyden)= 0.27199E-01
  rms(prec ) = 0.33461E-01
  weight for this iteration     100.00

 eigenvalues of (default mixing * dielectric matrix)
  average eigenvalue GAMMA=   0.6949
  2.4869  1.2434  0.8430  0.8430  0.5928  0.4477  0.1276  0.3190  0.2704  0.2240
  0.2465

 Free energy of the ion-electron system (eV)
  ---------------------------------------------------
  alpha Z        PSCENC =       975.10247152
  Ewald energy   TEWEN  =     91443.91268817
  -Hartree energ DENC   =   -120147.00877705
  -exchange      EXHF   =         0.00000000
  -V(xc)+E(xc)   XCENC  =       178.16121705
  PAW double counting   =     30127.38946553   -29213.69101669
  entropy T*S    EENTRO =        -0.00724004
  eigenvalues    EBANDS =      -853.60910351
  atomic energy  EATOM  =     27259.89416086
  Solvation  Ediel_sol  =         0.00000000
  ---------------------------------------------------
  free energy    TOTEN  =      -229.85613416 eV

  energy without entropy =     -229.84889412  energy(sigma->0) =     -229.85372081


--------------------------------------------------------------------------------------------------------




--------------------------------------- Iteration      1(  17)  ---------------------------------------


    POTLOK:  cpu time    0.1859: real time    0.1874
    SETDIJ:  cpu time    0.0135: real time    0.0135
    EDDIAG:  cpu time    2.0964: real time    2.1116
  RMM-DIIS:  cpu time    6.6927: real time    6.7441
    ORTHCH:  cpu time    0.3411: real time    0.3433
       DOS:  cpu time    0.0011: real time    0.0011
    CHARGE:  cpu time    0.6179: real time    0.6219
    MIXING:  cpu time    0.0067: real time    0.0067
    --------------------------------------------
      LOOP:  cpu time    9.9550: real time   10.0296

 eigenvalue-minimisations  :  1820
 total energy-change (2. order) : 0.5896364E-03  (-0.2161336E-03)
 number of electron     376.0000045 magnetization 
 augmentation part      112.9471805 magnetization 

 Broyden mixing:
  rms(total) = 0.17822E-01    rms(broyden)= 0.17819E-01
  rms(prec ) = 0.21366E-01
  weight for this iteration     100.00

 eigenvalues of (default mixing * dielectric matrix)
  average eigenvalue GAMMA=   0.7312
  2.4765  1.2734  1.2734  1.0039  0.7926  0.1276  0.4122  0.3955  0.3001  0.2606
  0.2226  0.2355

 Free energy of the ion-electron system (eV)
  ---------------------------------------------------
  alpha Z        PSCENC =       975.10247152
  Ewald energy   TEWEN  =     91443.91268817
  -Hartree energ DENC   =   -120147.90724222
  -exchange      EXHF   =         0.00000000
  -V(xc)+E(xc)   XCENC  =       178.16618783
  PAW double counting   =     30125.14539452   -29211.38804326
  entropy T*S    EENTRO =        -0.00808838
  eigenvalues    EBANDS =      -852.77307357
  atomic energy  EATOM  =     27259.89416086
  Solvation  Ediel_sol  =         0.00000000
  ---------------------------------------------------
  free energy    TOTEN  =      -229.85554453 eV

  energy without entropy =     -229.84745614  energy(sigma->0) =     -229.85284840


--------------------------------------------------------------------------------------------------------




--------------------------------------- Iteration      1(  18)  ---------------------------------------


    POTLOK:  cpu time    0.1578: real time    0.1589
    SETDIJ:  cpu time    0.0105: real time    0.0106
    EDDIAG:  cpu time    2.2022: real time    2.2179
  RMM-DIIS:  cpu time    7.2673: real time    7.3171
    ORTHCH:  cpu time    0.3156: real time    0.3173
       DOS:  cpu time    0.0012: real time    0.0012
    CHARGE:  cpu time    0.7116: real time    0.7164
    MIXING:  cpu time    0.0092: real time    0.0092
    --------------------------------------------
      LOOP:  cpu time   10.6754: real time   10.7487

 eigenvalue-minimisations  :  1803
 total energy-change (2. order) :-0.1269497E-03  (-0.9069590E-04)
 number of electron     376.0000045 magnetization 
 augmentation part      112.9426561 magnetization 

 Broyden mixing:
  rms(total) = 0.14330E-01    rms(broyden)= 0.14325E-01
  rms(prec ) = 0.17840E-01
  weight for this iteration     100.00

 eigenvalues of (default mixing * dielectric matrix)
  average eigenvalue GAMMA=   0.7404
  2.5298  1.4173  1.4173  1.0782  0.7923  0.4542  0.4542  0.1276  0.3467  0.2982
  0.2538  0.2225  0.2335

 Free energy of the ion-electron system (eV)
  ---------------------------------------------------
  alpha Z        PSCENC =       975.10247152
  Ewald energy   TEWEN  =     91443.91268817
  -Hartree energ DENC   =   -120149.24738174
  -exchange      EXHF   =         0.00000000
  -V(xc)+E(xc)   XCENC  =       178.17101090
  PAW double counting   =     30122.81433084   -29208.96559721
  entropy T*S    EENTRO =        -0.00751286
  eigenvalues    EBANDS =      -851.52984197
  atomic energy  EATOM  =     27259.89416086
  Solvation  Ediel_sol  =         0.00000000
  ---------------------------------------------------
  free energy    TOTEN  =      -229.85567148 eV

  energy without entropy =     -229.84815862  energy(sigma->0) =     -229.85316719


--------------------------------------------------------------------------------------------------------




--------------------------------------- Iteration      1(  19)  ---------------------------------------


    POTLOK:  cpu time    0.2028: real time    0.2042
    SETDIJ:  cpu time    0.0112: real time    0.0112
    EDDIAG:  cpu time    2.2820: real time    2.2977
  RMM-DIIS:  cpu time    6.0749: real time    6.1176
    ORTHCH:  cpu time    0.3001: real time    0.3021
       DOS:  cpu time    0.0012: real time    0.0012
    --------------------------------------------
      LOOP:  cpu time    8.8720: real time    8.9340

 eigenvalue-minimisations  :  1298
 total energy-change (2. order) :-0.1212260E-04  (-0.3846501E-04)
 number of electron     376.0000045 magnetization 
 augmentation part      112.9426561 magnetization 

 Free energy of the ion-electron system (eV)
  ---------------------------------------------------
  alpha Z        PSCENC =       975.10247152
  Ewald energy   TEWEN  =     91443.91268817
  -Hartree energ DENC   =   -120150.05332764
  -exchange      EXHF   =         0.00000000
  -V(xc)+E(xc)   XCENC  =       178.17756271
  PAW double counting   =     30124.44183193   -29210.57968547
  entropy T*S    EENTRO =        -0.00826889
  eigenvalues    EBANDS =      -850.74311680
  atomic energy  EATOM  =     27259.89416086
  Solvation  Ediel_sol  =         0.00000000
  ---------------------------------------------------
  free energy    TOTEN  =      -229.85568360 eV

  energy without entropy =     -229.84741471  energy(sigma->0) =     -229.85292730


--------------------------------------------------------------------------------------------------------




 average (electrostatic) potential at core
  the test charge radii are     0.6991  0.7215  1.2059
  (the norm of the test charge is              1.0000)
       1 -56.2637       2 -74.5267       3 -76.3540       4 -72.3071       5 -72.3262
       6 -72.3096       7 -72.3182       8 -72.3180       9 -72.3240      10 -72.2995
      11 -72.2996      12 -72.3101      13 -72.8730      14 -73.0244      15 -72.9844
      16 -72.9513      17 -72.9591      18 -73.0129      19 -73.0663      20 -72.9886
      21 -72.9950      22 -72.9496      23 -73.0290      24 -72.9502      25 -73.0183
      26 -72.9954      27 -73.0033      28 -73.0435      29 -73.0075      30 -72.8656
      31 -72.4582      32 -72.4897      33 -72.5699      34 -72.4440      35 -72.3540
      36 -73.0652      37 -72.3934      38 -73.0158      39 -72.5277
 
 
 
 E-fermi :   1.1037     XC(G=0):  -6.6238     alpha+bet : -6.8913


 k-point     1 :       0.0000    0.0000    0.0000
  band No.  band energies     occupation 
      1     -22.1808      2.00000
      2     -16.5129      2.00000
      3      -8.2672      2.00000
      4      -8.0556      2.00000
      5      -6.8325      2.00000
      6      -5.9021      2.00000
      7      -5.8310      2.00000
      8      -5.7565      2.00000
      9      -5.7330      2.00000
     10      -5.7163      2.00000
     11      -5.6791      2.00000
     12      -5.6429      2.00000
     13      -5.5851      2.00000
     14      -5.5069      2.00000
     15      -5.3167      2.00000
     16      -5.1959      2.00000
     17      -5.1397      2.00000
     18      -5.0986      2.00000
     19      -5.0865      2.00000
     20      -5.0468      2.00000
     21      -5.0352      2.00000
     22      -4.9798      2.00000
     23      -4.6947      2.00000
     24      -4.6428      2.00000
     25      -4.6053      2.00000
     26      -4.5795      2.00000
     27      -4.5489      2.00000
     28      -4.5070      2.00000
     29      -4.4440      2.00000
     30      -4.4227      2.00000
     31      -4.3936      2.00000
     32      -4.3584      2.00000
     33      -4.3330      2.00000
     34      -4.2528      2.00000
     35      -4.1846      2.00000
     36      -4.1826      2.00000
     37      -4.1493      2.00000
     38      -4.1267      2.00000
     39      -4.0827      2.00000
     40      -4.0713      2.00000
     41      -4.0626      2.00000
     42      -4.0405      2.00000
     43      -4.0278      2.00000
     44      -4.0176      2.00000
     45      -4.0022      2.00000
     46      -3.9903      2.00000
     47      -3.5706      2.00000
     48      -3.5370      2.00000
     49      -3.5059      2.00000
     50      -3.4415      2.00000
     51      -3.4286      2.00000
     52      -3.4097      2.00000
     53      -3.3696      2.00000
     54      -3.3579      2.00000
     55      -3.3325      2.00000
     56      -3.2828      2.00000
     57      -3.2760      2.00000
     58      -3.2270      2.00000
     59      -3.1824      2.00000
     60      -3.1334      2.00000
     61      -2.8820      2.00000
     62      -2.7797      2.00000
     63      -2.7158      2.00000
     64      -2.6434      2.00000
     65      -2.6045      2.00000
     66      -2.5814      2.00000
     67      -2.5403      2.00000
     68      -2.5288      2.00000
     69      -2.4928      2.00000
     70      -2.4725      2.00000
     71      -2.4644      2.00000
     72      -2.4455      2.00000
     73      -2.4264      2.00000
     74      -2.4131      2.00000
     75      -2.4056      2.00000
     76      -2.3909      2.00000
     77      -2.3752      2.00000
     78      -2.3462      2.00000
     79      -2.3421      2.00000
     80      -2.3339      2.00000
     81      -2.3023      2.00000
     82      -2.2892      2.00000
     83      -2.2707      2.00000
     84      -2.2597      2.00000
     85      -2.2156      2.00000
     86      -2.1708      2.00000
     87      -2.1509      2.00000
     88      -2.1113      2.00000
     89      -2.0810      2.00000
     90      -2.0683      2.00000
     91      -2.0550      2.00000
     92      -2.0463      2.00000
     93      -2.0126      2.00000
     94      -2.0019      2.00000
     95      -1.9591      2.00000
     96      -1.9267      2.00000
     97      -1.8986      2.00000
     98      -1.8308      2.00000
     99      -1.7980      2.00000
    100      -1.7599      2.00000
    101      -1.7022      2.00000
    102      -1.6284      2.00000
    103      -1.6249      2.00000
    104      -1.6077      2.00000
    105      -1.5855      2.00000
    106      -1.5400      2.00000
    107      -1.5383      2.00000
    108      -1.5213      2.00000
    109      -1.5074      2.00000
    110      -1.4938      2.00000
    111      -1.4866      2.00000
    112      -1.4821      2.00000
    113      -1.4455      2.00000
    114      -1.3696      2.00000
    115      -1.2851      2.00000
    116      -1.1978      2.00000
    117      -1.1286      2.00000
    118      -1.0889      2.00000
    119      -1.0361      2.00000
    120      -0.9867      2.00000
    121      -0.9756      2.00000
    122      -0.9429      2.00000
    123      -0.9137      2.00000
    124      -0.8928      2.00000
    125      -0.8432      2.00000
    126      -0.8138      2.00000
    127      -0.8000      2.00000
    128      -0.7388      2.00000
    129      -0.6817      2.00000
    130      -0.6726      2.00000
    131      -0.6640      2.00000
    132      -0.6543      2.00000
    133      -0.6045      2.00000
    134      -0.5775      2.00000
    135      -0.4931      2.00000
    136      -0.4292      2.00000
    137      -0.4171      2.00000
    138      -0.3770      2.00000
    139      -0.3709      2.00000
    140      -0.3573      2.00000
    141      -0.2740      2.00000
    142      -0.2618      2.00000
    143      -0.2203      2.00000
    144      -0.1804      2.00000
    145      -0.1634      2.00000
    146      -0.1586      2.00000
    147      -0.0908      2.00000
    148      -0.0578      2.00000
    149      -0.0288      2.00000
    150       0.0382      2.00000
    151       0.0563      2.00000
    152       0.0993      2.00000
    153       0.1171      2.00000
    154       0.1435      2.00000
    155       0.1541      2.00000
    156       0.1865      2.00000
    157       0.2127      2.00000
    158       0.2381      2.00000
    159       0.2787      2.00000
    160       0.3013      2.00000
    161       0.3091      2.00000
    162       0.3232      2.00000
    163       0.3374      2.00000
    164       0.3521      2.00000
    165       0.3683      2.00000
    166       0.3931      2.00001
    167       0.3932      2.00001
    168       0.4306      2.00002
    169       0.4645      2.00006
    170       0.4719      2.00007
    171       0.5051      2.00019
    172       0.5264      2.00035
    173       0.5601      2.00083
    174       0.5943      2.00188
    175       0.6347      2.00450
    176       0.6382      2.00484
    177       0.6616      2.00765
    178       0.6926      2.01333
    179       0.7030      2.01583
    180       0.7254      2.02234
    181       0.7542      2.03306
    182       0.7787      2.04383
    183       0.8050      2.05590
    184       0.8154      2.06033
    185       0.8213      2.06267
    186       0.8332      2.06674
    187       0.8392      2.06837
    188       0.8412      2.06882
    189       0.8455      2.06970
    190       0.8564      2.07087
    191       0.8680      2.07021
    192       0.8821      2.06599
    193       0.8864      2.06384
    194       0.9136      2.03834
    195       0.9461      1.97373
    196       1.1014      1.01947
    197       1.1254      0.81731
    198       1.1827      0.38559
    199       1.2142      0.20476
    200       1.2242      0.15741
    201       1.2532      0.04912
    202       1.2749     -0.00624
    203       1.2820     -0.01997
    204       1.3669     -0.06865
    205       1.4552     -0.03221
    206       1.9632     -0.00000
    207       2.0079     -0.00000
    208       2.0866     -0.00000
    209       2.1101     -0.00000
    210       2.1700     -0.00000
    211       2.4100     -0.00000
    212       3.5014     -0.00000
    213       3.9730     -0.00000
    214       4.3694     -0.00000
    215       4.4049     -0.00000
    216       4.4444     -0.00000
    217       4.5868     -0.00000
    218       4.8384     -0.00000
    219       5.2968     -0.00000
    220       5.6472     -0.00000
    221       5.8416     -0.00000
    222       5.8701     -0.00000
    223       5.9055     -0.00000
    224       5.9182     -0.00000
    225       5.9698     -0.00000
    226       6.0631     -0.00000
    227       6.5463     -0.00000
    228       6.8149      0.00000

 k-point     2 :       0.5000    0.0000    0.0000
  band No.  band energies     occupation 
      1     -22.1807      2.00000
      2     -16.5125      2.00000
      3      -8.1568      2.00000
      4      -7.3082      2.00000
      5      -7.2710      2.00000
      6      -6.0967      2.00000
      7      -6.0240      2.00000
      8      -5.8768      2.00000
      9      -5.8629      2.00000
     10      -5.6173      2.00000
     11      -5.4510      2.00000
     12      -5.3756      2.00000
     13      -5.2896      2.00000
     14      -5.1883      2.00000
     15      -5.0220      2.00000
     16      -4.9746      2.00000
     17      -4.9491      2.00000
     18      -4.9147      2.00000
     19      -4.8947      2.00000
     20      -4.8654      2.00000
     21      -4.8564      2.00000
     22      -4.8281      2.00000
     23      -4.7960      2.00000
     24      -4.7887      2.00000
     25      -4.7575      2.00000
     26      -4.7499      2.00000
     27      -4.7176      2.00000
     28      -4.6626      2.00000
     29      -4.6097      2.00000
     30      -4.5402      2.00000
     31      -4.4135      2.00000
     32      -4.3767      2.00000
     33      -4.3520      2.00000
     34      -4.3168      2.00000
     35      -4.2997      2.00000
     36      -4.1366      2.00000
     37      -4.0817      2.00000
     38      -4.0432      2.00000
     39      -4.0056      2.00000
     40      -3.9966      2.00000
     41      -3.9763      2.00000
     42      -3.9255      2.00000
     43      -3.8604      2.00000
     44      -3.7794      2.00000
     45      -3.7329      2.00000
     46      -3.6973      2.00000
     47      -3.6917      2.00000
     48      -3.6317      2.00000
     49      -3.6089      2.00000
     50      -3.5957      2.00000
     51      -3.4485      2.00000
     52      -3.4323      2.00000
     53      -3.3943      2.00000
     54      -3.3625      2.00000
     55      -3.3502      2.00000
     56      -3.3177      2.00000
     57      -3.2143      2.00000
     58      -3.2005      2.00000
     59      -3.1788      2.00000
     60      -3.1237      2.00000
     61      -3.1081      2.00000
     62      -3.0817      2.00000
     63      -3.0407      2.00000
     64      -3.0184      2.00000
     65      -2.9633      2.00000
     66      -2.9303      2.00000
     67      -2.9141      2.00000
     68      -2.8596      2.00000
     69      -2.8241      2.00000
     70      -2.7937      2.00000
[...]
     89      -2.1639      2.00000
     90      -2.1508      2.00000
     91      -2.1368      2.00000
     92      -2.1037      2.00000
     93      -2.0491      2.00000
     94      -2.0151      2.00000
     95      -1.9655      2.00000
     96      -1.9359      2.00000
     97      -1.9117      2.00000
     98      -1.8975      2.00000
     99      -1.8542      2.00000
    100      -1.8384      2.00000
    101      -1.7782      2.00000
    102      -1.7506      2.00000
    103      -1.7423      2.00000
    104      -1.7273      2.00000
    105      -1.6949      2.00000
    106      -1.6737      2.00000
    107      -1.6586      2.00000
    108      -1.6428      2.00000
    109      -1.5900      2.00000
    110      -1.5470      2.00000
    111      -1.5336      2.00000
    112      -1.4747      2.00000
    113      -1.4434      2.00000
    114      -1.3734      2.00000
    115      -1.3204      2.00000
    116      -1.2763      2.00000
    117      -1.2226      2.00000
    118      -1.1915      2.00000
    119      -1.1430      2.00000
    120      -1.0958      2.00000
    121      -1.0563      2.00000
    122      -1.0444      2.00000
    123      -1.0316      2.00000
    124      -1.0075      2.00000
    125      -0.9878      2.00000
    126      -0.9669      2.00000
    127      -0.9406      2.00000
    128      -0.9377      2.00000
    129      -0.9191      2.00000
    130      -0.8934      2.00000
    131      -0.8592      2.00000
    132      -0.8149      2.00000
    133      -0.7762      2.00000
    134      -0.7480      2.00000
    135      -0.7177      2.00000
    136      -0.7031      2.00000
    137      -0.6851      2.00000
    138      -0.6483      2.00000
    139      -0.6047      2.00000
    140      -0.5703      2.00000
    141      -0.5035      2.00000
    142      -0.4692      2.00000
    143      -0.3941      2.00000
    144      -0.3073      2.00000
    145      -0.2792      2.00000
    146      -0.2038      2.00000
    147      -0.1804      2.00000
    148      -0.1432      2.00000
    149      -0.1151      2.00000
    150      -0.0819      2.00000
    151      -0.0330      2.00000
    152       0.0367      2.00000
    153       0.0502      2.00000
    154       0.0690      2.00000
    155       0.0934      2.00000
    156       0.1035      2.00000
    157       0.1233      2.00000
    158       0.1569      2.00000
    159       0.1990      2.00000
    160       0.2131      2.00000
    161       0.2606      2.00000
    162       0.2994      2.00000
    163       0.3200      2.00000
    164       0.3506      2.00000
    165       0.3600      2.00000
    166       0.4019      2.00001
    167       0.5033      2.00021
    168       0.5741      2.00131
    169       0.5957      2.00217
    170       0.6253      2.00411
    171       0.6461      2.00624
    172       0.6868      2.01313
    173       0.7084      2.01864
    174       0.7871      2.05001
    175       0.7925      2.05251
    176       0.8059      2.05847
    177       0.8529      2.07091
    178       0.8745      2.06711
    179       0.9160      2.02732
    180       0.9247      2.01173
    181       0.9439      1.96609
    182       1.0099      1.67557
    183       1.0502      1.39743
    184       1.0915      1.06041
    185       1.0976      1.00955
    186       1.1102      0.90286
    187       1.1366      0.68523
    188       1.1450      0.61927
    189       1.1644      0.47576
    190       1.1821      0.35738
    191       1.3069     -0.05778
    192       1.3372     -0.07058
    193       1.3605     -0.06897
    194       1.3836     -0.06168
    195       1.4284     -0.04169
    196       1.4902     -0.01830
    197       1.5894     -0.00284
    198       1.7216     -0.00010
    199       1.8219     -0.00000
    200       1.9890     -0.00000
    201       2.2439     -0.00000
    202       2.3225     -0.00000
    203       2.7928     -0.00000
    204       2.9449     -0.00000
    205       2.9514     -0.00000
    206       2.9818     -0.00000
    207       3.0047     -0.00000
    208       3.2109     -0.00000
    209       3.3861     -0.00000
    210       3.5181     -0.00000
    211       3.5609     -0.00000
    212       3.6042     -0.00000
    213       3.7431     -0.00000
    214       3.8122     -0.00000
    215       3.9744     -0.00000
    216       4.1761     -0.00000
    217       4.2304     -0.00000
    218       4.4073     -0.00000
    219       4.4621     -0.00000
    220       4.6093     -0.00000
    221       4.6576     -0.00000
    222       4.8220     -0.00000
    223       5.1379     -0.00000
    224       5.5126     -0.00000
    225       5.9337     -0.00000
    226       6.5204     -0.00000
    227       6.5602      0.00000
    228       6.6193      0.00000


--------------------------------------------------------------------------------------------------------


 soft charge-density along one line, spin component           1
         0         1         2         3         4         5         6         7         8         9
 total charge-density along one line
 
 pseudopotential strength for first ion, spin component:           1
 10.094   0.015   0.004   0.010   0.000  -0.004  -0.009  -0.000
  0.015  -0.002  -0.000  -0.000  -0.000  -0.000  -0.000   0.000
  0.004  -0.000  -4.246  -0.007   0.001  -0.010  -0.002   0.000
  0.010  -0.000  -0.007  -4.260   0.003  -0.002  -0.015   0.000
  0.000  -0.000   0.001   0.003  -4.244   0.000   0.000  -0.009
 -0.004  -0.000  -0.010  -0.002   0.000  -0.770  -0.000   0.000
 -0.009  -0.000  -0.002  -0.015   0.000  -0.000  -0.770   0.000
 -0.000   0.000   0.000   0.000  -0.009   0.000   0.000  -0.770
 total augmentation occupancy for first ion, spin component:           1
  1.632  -0.846   0.014  -0.000  -0.058   0.037   0.080  -0.022
 -0.846   1.181  -0.226  -0.525   0.077  -0.090  -0.219   0.027
  0.014  -0.226   0.854   0.200   0.005   0.116   0.057  -0.005
 -0.000  -0.525   0.200   1.301  -0.000   0.057   0.241  -0.008
 -0.058   0.077   0.005  -0.000   0.785  -0.005  -0.008   0.097
  0.037  -0.090   0.116   0.057  -0.005   0.021   0.023  -0.003
  0.080  -0.219   0.057   0.241  -0.008   0.023   0.068  -0.005
 -0.022   0.027  -0.005  -0.008   0.097  -0.003  -0.005   0.013


------------------------ aborting loop because EDIFF is reached ----------------------------------------


    CHARGE:  cpu time    0.9736: real time    0.9808
    FORLOC:  cpu time    0.0583: real time    0.0586
    FORNL :  cpu time    4.2202: real time    4.2498
    STRESS:  cpu time   12.9910: real time   13.3223
    FORCOR:  cpu time    0.2386: real time    0.2408
    FORHAR:  cpu time    0.1028: real time    0.1035
    MIXING:  cpu time    0.0075: real time    0.0075
    OFIELD:  cpu time    0.0001: real time    0.0001

  FORCE on cell =-STRESS in cart. coord.  units (eV):
  Direction    XX          YY          ZZ          XY          YZ          ZX
  --------------------------------------------------------------------------------------
  Alpha Z   975.10247   975.10247   975.10247
  Ewald  111044.87635111035.51520************  -197.56473   254.76170   -88.27977
  Hartree117802.45899117765.94013************  -130.80310   107.79167   -53.72420
  E(xc)   -1665.96352 -1665.66964 -1673.27439    -0.45384     0.76304    -0.22333
  Local  ************************239476.52683   318.43709  -337.99387   136.02125
  n-local   124.03419   123.21066    91.14111    -1.12034     0.56120     0.12355
  augment  1895.71951  1893.37383  1932.10890     2.58142    -4.26768     0.96620
  Kinetic  5524.57950  5513.72362  5599.34514     9.69785   -22.55481     6.56297
  Fock        0.00000     0.00000     0.00000     0.00000     0.00000     0.00000
  -------------------------------------------------------------------------------------
  Total     -35.66294   -38.47306    -4.18928     0.77435    -0.93874     1.44668
  in kB     -42.47515   -45.82205    -4.98950     0.92226    -1.11806     1.72302
  external pressure =      -31.10 kB  Pullay stress =        0.00 kB


 VOLUME and BASIS-vectors are now :
 -----------------------------------------------------------------------------
  energy-cutoff  :      450.00
  volume of cell :     1345.22
      direct lattice vectors                 reciprocal lattice vectors
     7.296955120 -4.212899000  0.000000000     0.137043463  0.000000000  0.000000000
     0.000000000  8.425798000  0.000000000     0.068521732  0.118683121  0.000000000
     0.000000000  0.000000000 21.879635000     0.000000000  0.000000000  0.045704602

  length of vectors
     8.425798004  8.425798000 21.879635000     0.137043463  0.137043463  0.045704602


 FORCES acting on ions
    electron-ion (+dipol)            ewald-force                    non-local-force                 convergence-correction
 -----------------------------------------------------------------------------------------------
   0.206E+02 0.221E+02 -.883E+03   -.217E+02 -.268E+02 0.872E+03   0.938E+00 0.386E+01 0.108E+02   0.133E-03 -.821E-04 0.150E-01
   -.845E+02 0.505E+02 -.159E+04   0.866E+02 -.470E+02 0.161E+04   -.162E+01 -.316E+01 -.230E+02   0.845E-02 0.232E-02 0.581E-02
   0.570E+02 -.112E+03 -.153E+04   -.639E+02 0.135E+03 0.159E+04   0.713E+01 -.229E+02 -.566E+02   0.573E-02 -.122E-01 -.789E-02
   -.455E+00 0.566E+00 0.234E+04   0.402E+00 -.571E+00 -.234E+04   0.252E-01 -.350E-01 -.121E+01   0.466E-01 -.221E-01 0.261E-01
   0.347E+00 0.339E+00 0.234E+04   -.382E+00 -.363E+00 -.234E+04   -.556E-02 -.373E-01 -.113E+01   -.157E-01 0.254E-01 0.358E-01
   0.340E+00 -.339E+00 0.234E+04   -.381E+00 0.321E+00 -.234E+04   0.216E-01 -.126E-01 -.116E+01   -.185E-01 0.182E-01 0.193E-01
   0.237E+00 -.178E-01 0.234E+04   -.236E+00 0.759E-01 -.234E+04   0.119E-01 0.235E-01 -.119E+01   0.893E-03 -.209E-01 0.146E-01
   0.276E+00 0.765E+00 0.234E+04   -.270E+00 -.701E+00 -.234E+04   0.608E-02 0.137E-01 -.128E+01   -.111E-01 -.607E-01 0.223E-01
   0.218E+00 0.576E+00 0.234E+04   -.177E+00 -.570E+00 -.234E+04   0.151E-01 0.117E-01 -.122E+01   -.449E-01 -.137E-01 0.194E-01
   0.305E+00 -.123E+01 0.234E+04   -.220E+00 0.106E+01 -.234E+04   -.722E-01 0.983E-01 -.110E+01   -.118E-02 0.353E-01 0.134E-01
   -.471E+00 -.182E+00 0.234E+04   0.456E+00 0.250E+00 -.234E+04   -.343E-02 -.300E-01 -.125E+01   0.149E-01 -.442E-02 0.807E-02
   -.818E+00 -.504E+00 0.234E+04   0.810E+00 0.498E+00 -.234E+04   -.182E-02 -.397E-02 -.105E+01   0.290E-01 0.430E-01 0.167E-01
   -.368E+00 -.743E+01 0.850E+03   0.252E+00 0.738E+01 -.850E+03   0.692E-01 0.846E-01 -.277E+00   0.147E-01 0.606E-01 0.828E-02
   -.487E+00 -.561E+01 0.863E+03   0.332E+00 0.561E+01 -.863E+03   0.152E+00 0.988E-01 -.348E+00   0.978E-03 0.269E-01 0.316E-01
   -.734E+01 -.167E+01 0.859E+03   0.743E+01 0.151E+01 -.859E+03   0.649E-01 0.132E+00 -.370E+00   0.452E-01 0.186E-01 0.184E-01
   0.483E+00 0.756E+01 0.858E+03   -.489E+00 -.765E+01 -.857E+03   -.105E-01 0.519E-02 -.283E+00   0.110E-01 -.284E-01 0.619E-02
   0.151E+01 0.283E+01 0.858E+03   -.157E+01 -.282E+01 -.858E+03   0.148E+00 -.740E-01 -.290E+00   -.472E-01 0.128E-01 0.147E-01
   0.202E+01 -.390E+00 0.863E+03   -.204E+01 0.392E+00 -.862E+03   -.178E-01 0.646E-01 -.417E+00   0.149E-01 -.206E-01 0.334E-01
   0.268E+01 -.645E+00 0.865E+03   -.262E+01 0.828E+00 -.865E+03   -.132E+00 -.872E-01 -.499E+00   -.721E-03 -.324E-01 0.331E-01
   0.915E+00 0.352E+01 0.864E+03   -.886E+00 -.348E+01 -.864E+03   0.178E-01 -.467E-01 -.507E+00   -.277E-01 -.397E-01 0.245E-01
   -.475E+00 0.251E+01 0.863E+03   0.551E+00 -.233E+01 -.863E+03   0.166E-01 -.176E+00 -.434E+00   -.115E-01 0.237E-02 0.296E-01
   0.502E+00 0.540E+01 -.636E+03   -.640E+00 -.547E+01 0.636E+03   0.936E-01 0.453E-01 0.693E+00   0.866E-02 -.229E-01 -.314E-01
   -.412E+00 0.455E+00 -.621E+03   0.398E+00 -.346E+00 0.620E+03   0.702E-01 -.149E+00 0.554E+00   -.784E-02 -.132E-01 -.281E-03
   -.247E+01 -.279E+01 -.649E+03   0.230E+01 0.313E+01 0.649E+03   0.131E+00 -.275E+00 0.514E+00   0.190E-01 0.475E-02 -.337E-01
   -.534E+01 0.105E+02 -.665E+03   0.487E+01 -.976E+01 0.666E+03   0.427E+00 -.783E+00 -.768E+00   0.234E-01 0.242E-01 -.361E-01
   0.945E+01 -.778E+00 -.645E+03   -.878E+01 0.674E+00 0.645E+03   -.686E+00 0.948E-01 -.124E-01   -.835E-02 0.251E-01 -.346E-01
   -.577E+01 -.122E+02 -.633E+03   0.565E+01 0.121E+02 0.633E+03   0.938E-01 0.108E+00 0.541E+00   0.223E-02 0.280E-02 -.124E-01
   -.280E+01 -.270E+01 -.620E+03   0.289E+01 0.271E+01 0.619E+03   -.121E+00 -.110E-01 0.625E+00   -.278E-02 -.161E-02 -.173E-01
   0.425E+01 -.422E+00 -.632E+03   -.422E+01 0.309E+00 0.631E+03   -.805E-01 0.216E+00 0.248E+00   -.221E-01 -.143E-01 -.323E-01
   0.361E+01 0.427E+01 -.648E+03   -.360E+01 -.452E+01 0.648E+03   -.130E+00 0.225E+00 0.896E-01   0.259E-03 -.521E-02 -.173E-01
   -.308E+02 -.554E+01 -.213E+04   0.311E+02 0.583E+01 0.213E+04   -.123E+00 -.313E+00 0.161E+01   -.924E-02 -.786E-02 -.307E-01
   0.210E+02 0.238E+02 -.211E+04   -.212E+02 -.243E+02 0.211E+04   0.232E+00 0.692E+00 0.160E+01   -.384E-02 -.103E-01 -.170E-01
   0.303E+02 -.137E+02 -.214E+04   -.307E+02 0.135E+02 0.214E+04   0.210E+00 0.168E+00 0.122E+01   0.518E-02 0.163E-01 -.541E-02
   -.181E+01 -.234E+01 -.218E+04   0.179E+01 0.205E+01 0.218E+04   -.311E-01 0.364E+00 0.101E+01   0.392E-02 -.144E-02 -.569E-02
   0.547E+01 0.181E+02 -.217E+04   -.562E+01 -.184E+02 0.217E+04   0.240E+00 0.236E+00 0.973E+00   -.783E-02 -.823E-02 -.644E-02
   0.689E+02 0.663E+02 -.199E+04   -.718E+02 -.643E+02 0.199E+04   0.266E+01 -.177E+01 -.353E+01   0.247E-01 0.841E-03 0.278E-01
   -.542E+02 -.474E+02 -.209E+04   0.556E+02 0.498E+02 0.208E+04   -.145E+01 -.250E+01 0.203E+01   0.255E-02 -.122E-01 0.508E-02
   -.601E+02 0.916E+02 -.206E+04   0.603E+02 -.923E+02 0.206E+04   -.313E+00 0.707E+00 -.105E+01   0.852E-02 0.193E-01 0.881E-02
   0.206E+02 -.674E+02 -.211E+04   -.203E+02 0.684E+02 0.211E+04   -.336E+00 -.895E+00 0.140E+01   -.107E-01 -.850E-02 -.605E-03
 -----------------------------------------------------------------------------------------------
   -.763E+01 0.262E+02 0.749E+02   -.320E-13 -.284E-12 -.909E-12   0.764E+01 -.260E+02 -.751E+02   0.397E-01 -.223E-01 0.149E+00
 
 
 POSITION                                       TOTAL-FORCE (eV/Angst)
 -----------------------------------------------------------------------------------
      5.06826      0.63846     10.43477        -0.148317     -0.833676     -0.238452
      6.64754     -0.50843     10.21896         0.556286      0.333482      0.074156
      4.94097      1.07456     11.50673         0.198610     -0.023490     -0.135973
      7.20031     -1.38846      1.62732         0.018008     -0.065015      0.142820
      2.33567      1.42014      1.62732        -0.057318     -0.039484      0.156719
      4.76799      0.01584      1.62732        -0.039698     -0.015823      0.154893
      7.20031      1.42015      1.62732         0.012194      0.057304      0.148445
      2.33567      4.22875      1.62732         0.000155      0.013543      0.119285
      4.76799      2.82445      1.62732         0.009821      0.000575      0.149569
      2.33567      7.03734      1.62732         0.010818     -0.037360      0.053661
      4.76799      5.63304      1.62732        -0.004460      0.030519      0.089565
      7.20031      4.22874      1.62732         0.018504      0.029076      0.049620
      1.52490      0.01584      3.92052        -0.033371      0.089799      0.005219
      3.95722     -1.38846      3.92052        -0.002051      0.128081     -0.195316
      6.38953     -2.79276      3.92052         0.203096     -0.015193     -0.168687
      1.52490      2.82445      3.92052        -0.007224     -0.117405     -0.059427
      3.95722      1.42015      3.92052         0.035699     -0.056314     -0.009433
      6.38953      0.01585      3.92052        -0.022820      0.043301     -0.014868
      1.52490      5.63305      3.92052        -0.072078      0.060384     -0.308611
      3.95722      4.22874      3.92052         0.017141     -0.053429     -0.277863
      6.38953      2.82445      3.92052         0.079888      0.003153     -0.266478
      0.70967      4.21545      6.17901        -0.037208     -0.051761      0.222003
      3.14248      5.63721      6.15020         0.047511     -0.056300      0.118461
      5.58366     -1.37687      6.19042        -0.027932      0.063897      0.363978
      0.69660      1.45342      6.25069        -0.023155     -0.009710     -0.130930
      3.17114      0.00458      6.21341        -0.025747      0.012198     -0.017066
      0.71653      7.03238      6.18262        -0.023248     -0.026148      0.127080
      5.59848      4.22159      6.15543        -0.032511     -0.006762      0.126813
      3.16384      2.79827      6.18547        -0.077539      0.085505     -0.050904
      5.60321      1.40249      6.21931        -0.120744     -0.033440     -0.117143
      2.34448      4.22362      8.40337         0.127218     -0.037370      0.235152
      4.76462      5.59922      8.38926        -0.039247      0.186124      0.277817
      2.33706      1.39538      8.48149        -0.114194      0.053235     -0.063731
      7.21495      4.18909      8.50733        -0.045744      0.069285     -0.029449
      2.33004      7.01098      8.48491         0.076543     -0.015185     -0.042777
      4.66950      0.06003      8.65382        -0.224732      0.199066     -0.151958
      7.26293      1.44448      8.50737        -0.058287     -0.093153     -0.235255
      7.23790     -1.48878      8.64081        -0.085191      0.021583     -0.039184
      4.80003      2.84829      8.45318        -0.088675      0.106907     -0.061749
 -----------------------------------------------------------------------------------
    total drift:                                0.045313      0.130719      0.010895
  FORCES: max atom, RMS     0.879701    0.226586
  Number: max atom                 1
  FORCE total and by dimension    1.415029    0.833676


--------------------------------------------------------------------------------------------------------



  FREE ENERGIE OF THE ION-ELECTRON SYSTEM (eV)
  ---------------------------------------------------
  free  energy   TOTEN  =      -230.68050005 eV

  energy  without entropy=     -230.66274394  energy(sigma->0) =     -230.67458135
 
 d Force = 0.4372759E-01[ 0.307E-01, 0.568E-01]  d Energy = 0.4380908E-01-0.815E-04
 d Force =-0.2285567E+02[-0.230E+02,-0.228E+02]  d Ewald  =-0.2285588E+02 0.211E-03


--------------------------------------------------------------------------------------------------------


    POTLOK:  cpu time    0.2127: real time    0.2790


--------------------------------------------------------------------------------------------------------


 stress matrix after NEB project (eV)
    -35.66294      0.77435      1.44668
      0.77435    -38.47306     -0.93874
      1.44668     -0.93874     -4.18928
  FORCES: max atom, RMS     0.879701    0.226586
  FORCE total and by dimension    1.415029    0.833676
  Stress total and by dimension   52.694583   38.473059
 Quasi-Newton relaxation of ions (Broydens 2nd method)
  g(Force)  = 0.386E-01   g(Stress)= 0.000E+00

 retain information from N=  2 steps
 eigenvalues of (default step * inverse Hessian matrix)
  average eigenvalue of G=   2.1120
 eigenvalue spectrum of G is  1.5702  2.6538
  RESET_HESSIAN           0


--------------------------------------------------------------------------------------------------------


    WAVPRE:  cpu time    0.0788: real time    0.3147
    FEWALD:  cpu time    0.0010: real time    0.0010

 real space projection operators:
  total allocation   :      13557.44 KBytes
  max/ min on nodes  :       6787.88       6769.56

    ORTHCH:  cpu time    1.7534: real time    1.7987
     LOOP+:  cpu time  121.6157: real time  123.7195


--------------------------------------- Iteration      6(   1)  ---------------------------------------


    POTLOK:  cpu time    0.2126: real time    0.2272
    SETDIJ:  cpu time    0.0110: real time    0.0117
