 running on    8 total cores
 distrk:  each k-point on    8 cores,    1 groups
 distr:  one band on    2 cores,    4 groups
 using from now: INCAR     
 vasp.5.4.4 16052018 (build Apr 24 2014 20:13:14) complex standard
 Contain Constrained Minimization Technique (TS), Periodic NBO, VASPsol, libbeef, VASP2WANNIER90, Constrained Cell Relaxation
 POSCAR found type information on POSCAR  C  O  Pt
 POSCAR found :  3 types and      39 ions
 scaLAPACK will be used
 LDA part: xc-table for Pade appr. of Perdew
 POSCAR found type information on POSCAR  C  O  Pt
 POSCAR found :  3 types and      39 ions
 POSCAR, INCAR and KPOINTS ok, starting setup
 FFT: planning ...
 WAVECAR not read
 entering main loop
       N       E                     dE             d eps       ncg     rms          rms(c)
DAV:   1     0.241926461316E+04    0.24193E+04   -0.15950E+05  1824   0.129E+03
DAV:   2    -0.629245825195E+02   -0.24822E+04   -0.23031E+04  2112   0.286E+02
DAV:   3    -0.240354341203E+03   -0.17743E+03   -0.16126E+03  2184   0.690E+01
DAV:   4    -0.247952005556E+03   -0.75977E+01   -0.73016E+01  2288   0.136E+01
DAV:   5    -0.248181518523E+03   -0.22951E+00   -0.22770E+00  2320   0.246E+00    0.272E+01
RMM:   6    -0.246428211760E+03    0.17533E+01   -0.53211E+01  1833   0.147E+01    0.298E+01
RMM:   7    -0.240397689098E+03    0.60305E+01   -0.32330E+01  1830   0.896E+00    0.194E+01
RMM:   8    -0.245422710867E+03   -0.50250E+01   -0.90521E+00  1828   0.469E+00    0.236E+01
RMM:   9    -0.231491459794E+03    0.13931E+02   -0.41941E+00  1831   0.333E+00    0.852E+00
RMM:  10    -0.230404654803E+03    0.10868E+01   -0.12746E+00  1830   0.182E+00    0.507E+00
RMM:  11    -0.230058237200E+03    0.34642E+00   -0.40490E-01  1830   0.993E-01    0.325E+00
RMM:  12    -0.229919265891E+03    0.13897E+00   -0.16552E-01  1843   0.640E-01    0.211E+00
RMM:  13    -0.229909091513E+03    0.10174E-01   -0.12296E-01  1830   0.593E-01    0.181E+00
RMM:  14    -0.229868091056E+03    0.41000E-01   -0.81787E-02  1832   0.492E-01    0.868E-01
RMM:  15    -0.229862464777E+03    0.56263E-02   -0.31759E-02  1830   0.306E-01    0.655E-01
RMM:  16    -0.229856134162E+03    0.63306E-02   -0.89231E-03  1830   0.160E-01    0.272E-01
RMM:  17    -0.229855544525E+03    0.58964E-03   -0.21613E-03  1820   0.793E-02    0.178E-01
RMM:  18    -0.229855671475E+03   -0.12695E-03   -0.90696E-04  1803   0.522E-02    0.143E-01
RMM:  19    -0.229855683598E+03   -0.12123E-04   -0.38465E-04  1298   0.346E-02
   1 F= -.22985568E+03 E0= -.22985293E+03  d E =-.229856E+03
 BRION: g(F)=  0.435E+00 g(S)=  0.000E+00
 bond charge predicted
       N       E                     dE             d eps       ncg     rms          rms(c)
DAV:   1    -0.230135024715E+03   -0.27935E+00   -0.39447E+01  1852   0.115E+01    0.988E-01
RMM:   2    -0.230218300766E+03   -0.83276E-01   -0.76103E-01  1840   0.181E+00    0.146E+00
RMM:   3    -0.230196935938E+03    0.21365E-01   -0.62893E-02  1851   0.436E-01    0.777E-01
RMM:   4    -0.230202103341E+03   -0.51674E-02   -0.12890E-02  1851   0.191E-01    0.946E-01
RMM:   5    -0.230192826725E+03    0.92766E-02   -0.59026E-03  1838   0.124E-01    0.641E-01
RMM:   6    -0.230189841249E+03    0.29855E-02   -0.95293E-03  1829   0.165E-01    0.367E-01
RMM:   7    -0.230188529632E+03    0.13116E-02   -0.53095E-03  1831   0.124E-01    0.236E-01
RMM:   8    -0.230187897778E+03    0.63185E-03   -0.18276E-03  1820   0.726E-02    0.135E-01
RMM:   9    -0.230187706048E+03    0.19173E-03   -0.45071E-04  1439   0.372E-02    0.692E-02
RMM:  10    -0.230187695192E+03    0.10856E-04   -0.12297E-04   966   0.213E-02
   2 F= -.23018770E+03 E0= -.23018387E+03  d E =-.332012E+00
 BRION: g(F)=  0.380E+00 g(S)=  0.000E+00 retain N=  1 mean eig= 0.94
 eig:   0.938
 bond charge predicted
       N       E                     dE             d eps       ncg     rms          rms(c)
DAV:   1    -0.230282443709E+03   -0.94738E-01   -0.13040E+01  1832   0.680E+00    0.628E-01
RMM:   2    -0.230327661216E+03   -0.45218E-01   -0.48068E-01  1839   0.109E+00    0.646E-01
RMM:   3    -0.230321421936E+03    0.62393E-02   -0.18955E-02  1839   0.227E-01    0.538E-01
RMM:   4    -0.230321152006E+03    0.26993E-03   -0.54944E-03  1841   0.117E-01    0.576E-01
RMM:   5    -0.230322568308E+03   -0.14163E-02   -0.43425E-03  1830   0.104E-01    0.611E-01
RMM:   6    -0.230317406510E+03    0.51618E-02   -0.59425E-03  1830   0.124E-01    0.306E-01
RMM:   7    -0.230316061657E+03    0.13449E-02   -0.25590E-03  1825   0.846E-02    0.153E-01
RMM:   8    -0.230315789476E+03    0.27218E-03   -0.62125E-04  1638   0.426E-02    0.903E-02
RMM:   9    -0.230315689267E+03    0.10021E-03   -0.18119E-04  1027   0.251E-02    0.443E-02
RMM:  10    -0.230315689148E+03    0.11882E-06   -0.81985E-05   969   0.177E-02
   3 F= -.23031569E+03 E0= -.23031136E+03  d E =-.127994E+00
 BRION: g(F)=  0.325E+00 g(S)=  0.000E+00 retain N=  2 mean eig= 0.71
 eig:   0.277  1.149
 bond charge predicted
       N       E                     dE             d eps       ncg     rms          rms(c)
DAV:   1    -0.230469556269E+03   -0.15387E+00   -0.11888E+02  1824   0.200E+01    0.174E+00
RMM:   2    -0.230696854987E+03   -0.22730E+00   -0.22325E+00  1836   0.310E+00    0.203E+00
RMM:   3    -0.230707458785E+03   -0.10604E-01   -0.18050E-01  1853   0.734E-01    0.227E+00
RMM:   4    -0.230676129279E+03    0.31330E-01   -0.42201E-02  1857   0.337E-01    0.156E+00
RMM:   5    -0.230646010444E+03    0.30119E-01   -0.26092E-02  1836   0.264E-01    0.868E-01
RMM:   6    -0.230642317319E+03    0.36931E-02   -0.24922E-02  1833   0.264E-01    0.595E-01
RMM:   7    -0.230640362770E+03    0.19545E-02   -0.16094E-02  1834   0.214E-01    0.443E-01
RMM:   8    -0.230637717996E+03    0.26448E-02   -0.54134E-03  1831   0.126E-01    0.238E-01
RMM:   9    -0.230636888354E+03    0.82964E-03   -0.13593E-03  1819   0.631E-02    0.108E-01
RMM:  10    -0.230636693299E+03    0.19505E-03   -0.33360E-04  1135   0.332E-02    0.545E-02
RMM:  11    -0.230636690971E+03    0.23289E-05   -0.15508E-04   972   0.240E-02
   4 F= -.23063669E+03 E0= -.23063017E+03  d E =-.321002E+00
 BRION: g(F)=  0.882E-01 g(S)=  0.000E+00 retain N=  3 mean eig= 4.59
 eig:   6.278  6.278  1.204
 bond charge predicted
       N       E                     dE             d eps       ncg     rms          rms(c)
DAV:   1    -0.230671008391E+03   -0.34315E-01   -0.48332E+00  1824   0.427E+00    0.341E-01
RMM:   2    -0.230684846999E+03   -0.13839E-01   -0.12267E-01  1841   0.660E-01    0.548E-01
RMM:   3    -0.230683189063E+03    0.16579E-02   -0.73922E-03  1855   0.148E-01    0.412E-01
RMM:   4    -0.230682452242E+03    0.73682E-03   -0.20047E-03  1848   0.749E-02    0.339E-01
RMM:   5    -0.230680765611E+03    0.16866E-02   -0.10243E-03  1806   0.530E-02    0.153E-01
RMM:   6    -0.230680718203E+03    0.47408E-04   -0.91940E-04  1758   0.523E-02    0.118E-01
RMM:   7    -0.230680630482E+03    0.87721E-04   -0.65601E-04  1685   0.444E-02    0.895E-02
RMM:   8    -0.230680513014E+03    0.11747E-03   -0.19255E-04  1016   0.260E-02    0.363E-02
RMM:   9    -0.230680500053E+03    0.12960E-04   -0.48333E-05   949   0.138E-02
   5 F= -.23068050E+03 E0= -.23067458E+03  d E =-.438091E-01
 BRION: g(F)=  0.386E-01 g(S)=  0.000E+00 retain N=  2 mean eig= 2.11
 eig:   1.570  2.654
 bond charge predicted
       N       E                     dE             d eps       ncg     rms          rms(c)
[mpiexec@node13] Sending Ctrl-C to processes as requested
[mpiexec@node13] Press Ctrl-C again to force abort
