metal                                   
           1
     7.296955   -4.212899    0.000000
     0.000000    8.425798    0.000000
     0.000000    0.000000   21.879635
   C    O    Pt
   1   2  36
Direct configuration=     1
   0.70026169  0.43871563  0.47972811
   0.90357691  0.38863906  0.46815856
   0.67212515  0.46557151  0.52961664
   0.98675500  0.32859100  0.07437600
   0.32008800  0.32859100  0.07437600
   0.65342200  0.32859100  0.07437600
   0.98675500  0.66192500  0.07437600
   0.32008800  0.66192500  0.07437600
   0.65342200  0.66192500  0.07437600
   0.32008800  0.99525800  0.07437600
   0.65342200  0.99525800  0.07437600
   0.98675500  0.99525800  0.07437600
   0.20897700  0.10636900  0.17918600
   0.54231100  0.10636900  0.17918600
   0.87564400  0.10636900  0.17918600
   0.20897700  0.43970300  0.17918600
   0.54231100  0.43970300  0.17918600
   0.87564400  0.43970300  0.17918600
   0.20897700  0.77303600  0.17918600
   0.54231100  0.77303600  0.17918600
   0.87564400  0.77303600  0.17918600
   0.10142430  0.55213755  0.28017704
   0.42890820  0.88389319  0.27959164
   0.76551930  0.21450292  0.27955534
   0.09650007  0.22089466  0.28817514
   0.43380983  0.21899404  0.28497411
   0.10120087  0.88444142  0.27989225
   0.76431876  0.88620717  0.28189309
   0.43657764  0.54789261  0.28516597
   0.76618329  0.55327924  0.28583034
   0.32050800  0.66011640  0.38222518
   0.65548553  0.98602144  0.38145389
   0.32008865  0.32638368  0.38667077
   0.98874362  0.99379701  0.38898172
   0.31870283  0.99357661  0.38856985
   0.63864474  0.31855998  0.39179206
   0.99590896  0.67091612  0.39089833
   0.99678354  0.31632015  0.39346792
   0.65797870  0.66799267  0.38488049
Direct configuration=     2
   0.69931050  0.43471381  0.47820334
   0.90502951  0.38967309  0.46753430
   0.67291008  0.46606603  0.52932851
   0.98675500  0.32859100  0.07437600
   0.32008800  0.32859100  0.07437600
   0.65342200  0.32859100  0.07437600
   0.98675500  0.66192500  0.07437600
   0.32008800  0.66192500  0.07437600
   0.65342200  0.66192500  0.07437600
   0.32008800  0.99525800  0.07437600
   0.65342200  0.99525800  0.07437600
   0.98675500  0.99525800  0.07437600
   0.20897700  0.10636900  0.17918600
   0.54231100  0.10636900  0.17918600
   0.87564400  0.10636900  0.17918600
   0.20897700  0.43970300  0.17918600
   0.54231100  0.43970300  0.17918600
   0.87564400  0.43970300  0.17918600
   0.20897700  0.77303600  0.17918600
   0.54231100  0.77303600  0.17918600
   0.87564400  0.77303600  0.17918600
   0.10003373  0.55116119  0.28075322
   0.42936966  0.88415499  0.28001322
   0.76550342  0.21605904  0.28041084
   0.09614673  0.22063477  0.28730891
   0.43408843  0.21847552  0.28457455
   0.10016519  0.88426667  0.28073377
   0.76551763  0.88570407  0.28149528
   0.43565950  0.54818208  0.28427304
   0.76719428  0.55252406  0.28535167
   0.32038761  0.66072637  0.38271595
   0.65464646  0.98751502  0.38199107
   0.32048196  0.32617415  0.38713181
   0.98887008  0.99272587  0.38897558
   0.31855939  0.99271995  0.38833949
   0.63976205  0.32128184  0.39310126
   0.99583664  0.67049563  0.39039152
   0.99494542  0.31770661  0.39417438
   0.65820841  0.66750922  0.38549368
Direct configuration=     3
   0.69821516  0.43339277  0.47877008
   0.90578128  0.39039080  0.46738633
   0.67400580  0.46551612  0.52786076
   0.98675500  0.32859100  0.07437600
   0.32008800  0.32859100  0.07437600
   0.65342200  0.32859100  0.07437600
   0.98675500  0.66192500  0.07437600
   0.32008800  0.66192500  0.07437600
   0.65342200  0.66192500  0.07437600
   0.32008800  0.99525800  0.07437600
   0.65342200  0.99525800  0.07437600
   0.98675500  0.99525800  0.07437600
   0.20897700  0.10636900  0.17918600
   0.54231100  0.10636900  0.17918600
   0.87564400  0.10636900  0.17918600
   0.20897700  0.43970300  0.17918600
   0.54231100  0.43970300  0.17918600
   0.87564400  0.43970300  0.17918600
   0.20897700  0.77303600  0.17918600
   0.54231100  0.77303600  0.17918600
   0.87564400  0.77303600  0.17918600
   0.09947150  0.55074546  0.28103196
   0.42959793  0.88423027  0.28020557
   0.76546853  0.21668146  0.28082436
   0.09601009  0.22054955  0.28699333
   0.43419206  0.21831633  0.28443943
   0.09976055  0.88417950  0.28108470
   0.76592179  0.88551028  0.28141254
   0.43527777  0.54830324  0.28394779
   0.76746961  0.55216648  0.28514961
   0.32045366  0.66095953  0.38293920
   0.65432255  0.98813339  0.38222214
   0.32053508  0.32609226  0.38726639
   0.98889042  0.99242180  0.38895540
   0.31861403  0.99245941  0.38823865
   0.64002773  0.32246887  0.39366099
   0.99577064  0.67027935  0.39013902
   0.99428657  0.31811859  0.39438064
   0.65821274  0.66734508  0.38570076
Direct configuration=     4
   0.69501442  0.42432857  0.47652096
   0.90957995  0.39363991  0.46674609
   0.67660941  0.46615562  0.52617242
   0.98675500  0.32859100  0.07437600
   0.32008800  0.32859100  0.07437600
   0.65342200  0.32859100  0.07437600
   0.98675500  0.66192500  0.07437600
   0.32008800  0.66192500  0.07437600
   0.65342200  0.66192500  0.07437600
   0.32008800  0.99525800  0.07437600
   0.65342200  0.99525800  0.07437600
   0.98675500  0.99525800  0.07437600
   0.20897700  0.10636900  0.17918600
   0.54231100  0.10636900  0.17918600
   0.87564400  0.10636900  0.17918600
   0.20897700  0.43970300  0.17918600
   0.54231100  0.43970300  0.17918600
   0.87564400  0.43970300  0.17918600
   0.20897700  0.77303600  0.17918600
   0.54231100  0.77303600  0.17918600
   0.87564400  0.77303600  0.17918600
   0.09715933  0.54900221  0.28223475
   0.43055626  0.88449335  0.28102510
   0.76530057  0.21926473  0.28262776
   0.09545731  0.22020994  0.28569004
   0.43463831  0.21771149  0.28391372
   0.09809900  0.88378538  0.28255635
   0.76752124  0.88469461  0.28113012
   0.43367261  0.54882124  0.28262502
   0.76845449  0.55062082  0.28429906
   0.32085656  0.66192757  0.38390150
   0.65296932  0.99076154  0.38322650
   0.32064954  0.32575477  0.38778063
   0.98892414  0.99124449  0.38885902
   0.31895313  0.99145093  0.38781229
   0.64106242  0.32762481  0.39610851
   0.99548274  0.66932664  0.38901727
   0.99167496  0.31972224  0.39521419
   0.65812777  0.66672413  0.38649945
Direct configuration=     5
   0.69457182  0.42306042  0.47691707
   0.91100240  0.39515921  0.46705358
   0.67712777  0.46609624  0.52591029
   0.98675500  0.32859100  0.07437600
   0.32008800  0.32859100  0.07437600
   0.65342200  0.32859100  0.07437600
   0.98675500  0.66192500  0.07437600
   0.32008800  0.66192500  0.07437600
   0.65342200  0.66192500  0.07437600
   0.32008800  0.99525800  0.07437600
   0.65342200  0.99525800  0.07437600
   0.98675500  0.99525800  0.07437600
   0.20897700  0.10636900  0.17918600
   0.54231100  0.10636900  0.17918600
   0.87564400  0.10636900  0.17918600
   0.20897700  0.43970300  0.17918600
   0.54231100  0.43970300  0.17918600
   0.87564400  0.43970300  0.17918600
   0.20897700  0.77303600  0.17918600
   0.54231100  0.77303600  0.17918600
   0.87564400  0.77303600  0.17918600
   0.09725522  0.54893090  0.28240925
   0.43065671  0.88437044  0.28109248
   0.76520423  0.21919102  0.28293077
   0.09546511  0.22022937  0.28568523
   0.43458376  0.21783595  0.28398160
   0.09819533  0.88372205  0.28257438
   0.76723445  0.88464818  0.28133137
   0.43358423  0.54889900  0.28270426
   0.76788362  0.55039369  0.28425107
   0.32129627  0.66192090  0.38407259
   0.65296067  0.99101368  0.38342761
   0.32027894  0.32574695  0.38764295
   0.98876207  0.99155568  0.38882431
   0.31931655  0.99174371  0.38779941
   0.63992400  0.32708656  0.39551918
   0.99533671  0.66910372  0.38882589
   0.99190754  0.31926098  0.39492490
   0.65781267  0.66695025  0.38634928
