 running on    8 total cores
 distrk:  each k-point on    8 cores,    1 groups
 distr:  one band on    2 cores,    4 groups
 using from now: INCAR     
 vasp.5.4.4 16052018 (build Apr 24 2014 20:13:14) complex standard
 Contain Constrained Minimization Technique (TS), Periodic NBO, VASPsol, libbeef, VASP2WANNIER90, Constrained Cell Relaxation
 POSCAR found type information on POSCAR  C  O  Pt
 POSCAR found :  3 types and      39 ions
 scaLAPACK will be used
 LDA part: xc-table for Pade appr. of Perdew
 POSCAR found type information on POSCAR  C  O  Pt
 POSCAR found :  3 types and      39 ions
 POSCAR, INCAR and KPOINTS ok, starting setup
 FFT: planning ...
 WAVECAR not read
 entering main loop
       N       E                     dE             d eps       ncg     rms          rms(c)
DAV:   1     0.242363586269E+04    0.24236E+04   -0.15955E+05  1824   0.129E+03
DAV:   2    -0.622887674394E+02   -0.24859E+04   -0.23068E+04  2112   0.286E+02
DAV:   3    -0.240257296071E+03   -0.17797E+03   -0.16130E+03  2160   0.692E+01
DAV:   4    -0.248165687284E+03   -0.79084E+01   -0.75848E+01  2328   0.139E+01
DAV:   5    -0.248396918959E+03   -0.23123E+00   -0.22949E+00  2280   0.248E+00    0.275E+01
RMM:   6    -0.245079393611E+03    0.33175E+01   -0.56187E+01  1829   0.150E+01    0.285E+01
RMM:   7    -0.243472604403E+03    0.16068E+01   -0.32216E+01  1831   0.899E+00    0.207E+01
RMM:   8    -0.243511148288E+03   -0.38544E-01   -0.95478E+00  1826   0.477E+00    0.223E+01
RMM:   9    -0.231722341055E+03    0.11789E+02   -0.50413E+00  1831   0.368E+00    0.881E+00
RMM:  10    -0.230656717525E+03    0.10656E+01   -0.16710E+00  1831   0.210E+00    0.552E+00
RMM:  11    -0.230265484253E+03    0.39123E+00   -0.47737E-01  1831   0.111E+00    0.306E+00
RMM:  12    -0.230129393816E+03    0.13609E+00   -0.19738E-01  1842   0.701E-01    0.203E+00
RMM:  13    -0.230148392921E+03   -0.18999E-01   -0.14036E-01  1832   0.620E-01    0.216E+00
RMM:  14    -0.230083472137E+03    0.64921E-01   -0.77722E-02  1831   0.487E-01    0.786E-01
RMM:  15    -0.230078291035E+03    0.51811E-02   -0.28714E-02  1832   0.296E-01    0.529E-01
RMM:  16    -0.230075183204E+03    0.31078E-02   -0.72703E-03  1831   0.145E-01    0.330E-01
RMM:  17    -0.230073687180E+03    0.14960E-02   -0.17000E-03  1819   0.721E-02    0.122E-01
RMM:  18    -0.230073905745E+03   -0.21857E-03   -0.74718E-04  1720   0.465E-02    0.122E-01
RMM:  19    -0.230073919807E+03   -0.14062E-04   -0.38841E-04  1313   0.349E-02
   1 F= -.23007392E+03 E0= -.23006512E+03  d E =-.230074E+03
 BRION: g(F)=  0.310E+00 g(S)=  0.000E+00
 bond charge predicted
       N       E                     dE             d eps       ncg     rms          rms(c)
DAV:   1    -0.230276900285E+03   -0.20299E+00   -0.31102E+01  1856   0.105E+01    0.716E-01
RMM:   2    -0.230434522628E+03   -0.15762E+00   -0.62663E-01  1832   0.162E+00    0.297E+00
RMM:   3    -0.230337665484E+03    0.96857E-01   -0.49715E-02  1844   0.388E-01    0.836E-01
RMM:   4    -0.230330044110E+03    0.76214E-02   -0.12684E-02  1847   0.193E-01    0.530E-01
RMM:   5    -0.230326063199E+03    0.39809E-02   -0.35847E-03  1835   0.996E-02    0.341E-01
RMM:   6    -0.230325835015E+03    0.22818E-03   -0.39865E-03  1832   0.107E-01    0.277E-01
RMM:   7    -0.230325607647E+03    0.22737E-03   -0.44626E-03  1830   0.115E-01    0.226E-01
RMM:   8    -0.230324959940E+03    0.64771E-03   -0.12561E-03  1808   0.602E-02    0.933E-02
RMM:   9    -0.230324874414E+03    0.85526E-04   -0.21668E-04  1036   0.274E-02
   2 F= -.23032487E+03 E0= -.23031642E+03  d E =-.250955E+00
 BRION: g(F)=  0.196E+00 g(S)=  0.000E+00 retain N=  1 mean eig= 1.35
 eig:   1.346
 bond charge predicted
       N       E                     dE             d eps       ncg     rms          rms(c)
DAV:   1    -0.230387566892E+03   -0.62607E-01   -0.18108E+01  1824   0.804E+00    0.684E-01
RMM:   2    -0.230439100280E+03   -0.51533E-01   -0.44747E-01  1834   0.130E+00    0.115E+00
RMM:   3    -0.230429792652E+03    0.93076E-02   -0.23196E-02  1849   0.268E-01    0.838E-01
RMM:   4    -0.230422807888E+03    0.69848E-02   -0.89945E-03  1839   0.161E-01    0.552E-01
RMM:   5    -0.230418801236E+03    0.40067E-02   -0.62325E-03  1835   0.130E-01    0.394E-01
RMM:   6    -0.230418340125E+03    0.46111E-03   -0.67844E-03  1832   0.137E-01    0.352E-01
RMM:   7    -0.230416598484E+03    0.17416E-02   -0.28072E-03  1826   0.890E-02    0.158E-01
RMM:   8    -0.230416417693E+03    0.18079E-03   -0.82508E-04  1786   0.486E-02    0.109E-01
RMM:   9    -0.230416298943E+03    0.11875E-03   -0.19696E-04  1013   0.265E-02    0.424E-02
RMM:  10    -0.230416350005E+03   -0.51062E-04   -0.71827E-05   965   0.171E-02
   3 F= -.23041635E+03 E0= -.23040780E+03  d E =-.914756E-01
 BRION: g(F)=  0.382E+00 g(S)=  0.000E+00 retain N=  2 mean eig= 1.19
 eig:   1.187  1.187
 bond charge predicted
       N       E                     dE             d eps       ncg     rms          rms(c)
[mpiexec@node11] Sending Ctrl-C to processes as requested
[mpiexec@node11] Press Ctrl-C again to force abort
