       N       E                     dE             d eps       ncg     rms          rms(c)
DAV:   1     0.242133767046E+04    0.24213E+04   -0.15949E+05  1824   0.129E+03
DAV:   2    -0.623637075798E+02   -0.24837E+04   -0.23039E+04  2112   0.286E+02
DAV:   3    -0.239859027987E+03   -0.17750E+03   -0.16078E+03  2152   0.690E+01
DAV:   4    -0.247710116542E+03   -0.78511E+01   -0.75491E+01  2336   0.138E+01
DAV:   5    -0.247947563357E+03   -0.23745E+00   -0.23517E+00  2472   0.246E+00    0.271E+01
RMM:   6    -0.244137986192E+03    0.38096E+01   -0.53866E+01  1829   0.148E+01    0.278E+01
RMM:   7    -0.245183990440E+03   -0.10460E+01   -0.30683E+01  1831   0.875E+00    0.215E+01
RMM:   8    -0.243275367485E+03    0.19086E+01   -0.98920E+00  1826   0.477E+00    0.225E+01
RMM:   9    -0.231794728694E+03    0.11481E+02   -0.58002E+00  1831   0.397E+00    0.854E+00
RMM:  10    -0.230661729092E+03    0.11330E+01   -0.17323E+00  1831   0.215E+00    0.510E+00
RMM:  11    -0.230389710123E+03    0.27202E+00   -0.46498E-01  1831   0.108E+00    0.327E+00
RMM:  12    -0.230228015974E+03    0.16169E+00   -0.20456E-01  1840   0.716E-01    0.186E+00
RMM:  13    -0.230243841342E+03   -0.15825E-01   -0.12239E-01  1835   0.571E-01    0.197E+00
RMM:  14    -0.230189246575E+03    0.54595E-01   -0.74639E-02  1832   0.475E-01    0.811E-01
RMM:  15    -0.230185782303E+03    0.34643E-02   -0.24746E-02  1830   0.268E-01    0.614E-01
RMM:  16    -0.230179874924E+03    0.59074E-02   -0.66192E-03  1830   0.140E-01    0.232E-01
RMM:  17    -0.230179229785E+03    0.64514E-03   -0.14782E-03  1815   0.652E-02    0.123E-01
RMM:  18    -0.230179379620E+03   -0.14983E-03   -0.67403E-04  1670   0.439E-02    0.103E-01
RMM:  19    -0.230179309045E+03    0.70575E-04   -0.31094E-04  1193   0.317E-02
   1 F= -.23017931E+03 E0= -.23017528E+03  d E =-.230179E+03
       N       E                     dE             d eps       ncg     rms          rms(c)
DAV:   1    -0.230349856794E+03   -0.17048E+00   -0.23384E+01  1844   0.923E+00    0.687E-01
RMM:   2    -0.230441314645E+03   -0.91458E-01   -0.46487E-01  1833   0.139E+00    0.190E+00
RMM:   3    -0.230393486554E+03    0.47828E-01   -0.33340E-02  1862   0.315E-01    0.736E-01
RMM:   4    -0.230388015069E+03    0.54715E-02   -0.11008E-02  1838   0.180E-01    0.497E-01
RMM:   5    -0.230384793055E+03    0.32220E-02   -0.41717E-03  1836   0.108E-01    0.311E-01
RMM:   6    -0.230384698703E+03    0.94352E-04   -0.51241E-03  1830   0.122E-01    0.246E-01
RMM:   7    -0.230383974569E+03    0.72413E-03   -0.24904E-03  1826   0.853E-02    0.136E-01
RMM:   8    -0.230383756922E+03    0.21765E-03   -0.62339E-04  1665   0.438E-02    0.648E-02
RMM:   9    -0.230383776527E+03   -0.19605E-04   -0.12872E-04   987   0.209E-02
   2 F= -.23038378E+03 E0= -.23037992E+03  d E =-.204467E+00
       N       E                     dE             d eps       ncg     rms          rms(c)
DAV:   1    -0.230437275637E+03   -0.53519E-01   -0.10872E+01  1832   0.637E+00    0.526E-01
RMM:   2    -0.230477411474E+03   -0.40136E-01   -0.34807E-01  1841   0.101E+00    0.863E-01
RMM:   3    -0.230469600921E+03    0.78106E-02   -0.14417E-02  1856   0.201E-01    0.602E-01
RMM:   4    -0.230465459706E+03    0.41412E-02   -0.44689E-03  1839   0.111E-01    0.372E-01
RMM:   5    -0.230464237270E+03    0.12224E-02   -0.35926E-03  1833   0.965E-02    0.315E-01
RMM:   6    -0.230463799772E+03    0.43750E-03   -0.41640E-03  1828   0.106E-01    0.241E-01
RMM:   7    -0.230462813007E+03    0.98676E-03   -0.16890E-03  1816   0.691E-02    0.884E-02
RMM:   8    -0.230462732684E+03    0.80323E-04   -0.27824E-04  1090   0.303E-02
   3 F= -.23046273E+03 E0= -.23045892E+03  d E =-.789562E-01
       N       E                     dE             d eps       ncg     rms          rms(c)
