metal                                   
           1
     7.296955   -4.212899    0.000000
     0.000000    8.425798    0.000000
     0.000000    0.000000   21.879635
   C    O    Pt
   1   2  36
Direct configuration=     1
   0.70542493  0.43164755  0.47880417
   0.90347841  0.38946058  0.46015215
   0.67728839  0.45850343  0.52869270
   0.98675500  0.32859100  0.07437600
   0.32008800  0.32859100  0.07437600
   0.65342200  0.32859100  0.07437600
   0.98675500  0.66192500  0.07437600
   0.32008800  0.66192500  0.07437600
   0.65342200  0.66192500  0.07437600
   0.32008800  0.99525800  0.07437600
   0.65342200  0.99525800  0.07437600
   0.98675500  0.99525800  0.07437600
   0.20897700  0.10636900  0.17918600
   0.54231100  0.10636900  0.17918600
   0.87564400  0.10636900  0.17918600
   0.20897700  0.43970300  0.17918600
   0.54231100  0.43970300  0.17918600
   0.87564400  0.43970300  0.17918600
   0.20897700  0.77303600  0.17918600
   0.54231100  0.77303600  0.17918600
   0.87564400  0.77303600  0.17918600
   0.10158170  0.54916671  0.28022770
   0.43322085  0.88437593  0.28329519
   0.76324741  0.21242252  0.28166394
   0.09124562  0.21412414  0.28801085
   0.42968829  0.21733394  0.28724100
   0.10271884  0.88286428  0.28428444
   0.76205598  0.88417248  0.28439563
   0.43382534  0.55339755  0.28452534
   0.76308343  0.55197327  0.28634415
   0.32829422  0.66372573  0.38698708
   0.65689749  0.98649395  0.38563432
   0.32316027  0.32597193  0.39104122
   0.98654980  0.99153898  0.38970840
   0.31934604  0.99415164  0.38807282
   0.64522204  0.32382934  0.39649832
   0.99431580  0.66298184  0.38719544
   0.99550755  0.32160542  0.38998875
   0.66042836  0.65856420  0.38736489
Direct configuration=     2
   0.70283945  0.42839196  0.47794902
   0.90482613  0.39151217  0.46107431
   0.67877077  0.45925764  0.52862542
   0.98675500  0.32859100  0.07437600
   0.32008800  0.32859100  0.07437600
   0.65342200  0.32859100  0.07437600
   0.98675500  0.66192500  0.07437600
   0.32008800  0.66192500  0.07437600
   0.65342200  0.66192500  0.07437600
   0.32008800  0.99525800  0.07437600
   0.65342200  0.99525800  0.07437600
   0.98675500  0.99525800  0.07437600
   0.20897700  0.10636900  0.17918600
   0.54231100  0.10636900  0.17918600
   0.87564400  0.10636900  0.17918600
   0.20897700  0.43970300  0.17918600
   0.54231100  0.43970300  0.17918600
   0.87564400  0.43970300  0.17918600
   0.20897700  0.77303600  0.17918600
   0.54231100  0.77303600  0.17918600
   0.87564400  0.77303600  0.17918600
   0.10078086  0.54888197  0.28079269
   0.43267230  0.88441354  0.28312407
   0.76301709  0.21404133  0.28217619
   0.09254724  0.21504281  0.28738673
   0.43078918  0.21791219  0.28666820
   0.10124240  0.88244936  0.28406901
   0.76329397  0.88358503  0.28381006
   0.43305839  0.55199187  0.28425340
   0.76365626  0.55092063  0.28557445
   0.32778717  0.66348833  0.38700986
   0.65616184  0.98724715  0.38598140
   0.32282364  0.32608588  0.39083806
   0.98694873  0.99094351  0.38981483
   0.31961824  0.99339453  0.38832323
   0.64372018  0.32386456  0.39687079
   0.99542223  0.66396960  0.38711196
   0.99641078  0.32112815  0.38979214
   0.65993164  0.65965933  0.38775612
Direct configuration=     3
   0.70106241  0.42671096  0.47848670
   0.90593909  0.39301739  0.46150244
   0.68010588  0.45922282  0.52762406
   0.98675500  0.32859100  0.07437600
   0.32008800  0.32859100  0.07437600
   0.65342200  0.32859100  0.07437600
   0.98675500  0.66192500  0.07437600
   0.32008800  0.66192500  0.07437600
   0.65342200  0.66192500  0.07437600
   0.32008800  0.99525800  0.07437600
   0.65342200  0.99525800  0.07437600
   0.98675500  0.99525800  0.07437600
   0.20897700  0.10636900  0.17918600
   0.54231100  0.10636900  0.17918600
   0.87564400  0.10636900  0.17918600
   0.20897700  0.43970300  0.17918600
   0.54231100  0.43970300  0.17918600
   0.87564400  0.43970300  0.17918600
   0.20897700  0.77303600  0.17918600
   0.54231100  0.77303600  0.17918600
   0.87564400  0.77303600  0.17918600
   0.10030432  0.54872106  0.28113401
   0.43242889  0.88442854  0.28304410
   0.76288501  0.21488374  0.28253124
   0.09329025  0.21555112  0.28698529
   0.43134127  0.21809286  0.28632918
   0.10043549  0.88228106  0.28394335
   0.76390422  0.88332410  0.28353037
   0.43270141  0.55125908  0.28410923
   0.76394779  0.55032207  0.28517695
   0.32752730  0.66334824  0.38700303
   0.65577865  0.98772370  0.38612868
   0.32263318  0.32608157  0.39067501
   0.98716650  0.99061013  0.38984569
   0.31981911  0.99297359  0.38845148
   0.64265011  0.32379080  0.39692090
   0.99595542  0.66446151  0.38707673
   0.99659824  0.32090099  0.38985251
   0.65965632  0.66038437  0.38790952
